 *******************************************************************************
 **                                                                           **
 **                              MOPAC v22.1.1                                **
 **                                                                           **
 *******************************************************************************
 **          Digital Object Identifier (DOI): 10.5281/zenodo.6511958          **
 **    Visit the DOI location for information on how to cite this program.    **
 *******************************************************************************

                              PM7 CALCULATION RESULTS

 *******************************************************************************
 *  CALCULATION DONE:                                Wed Nov  6 15:06:46 2024  *
 *  PM7        - The PM7 Hamiltonian to be used
 *  SINGLET    - SPIN STATE DEFINED AS A SINGLET
 *
 *
 *
 *                 CHARGE ON SYSTEM = -1
 *
 *
 *
 *  EPS=78.4   - USE ANDREAS KLAMT'S COSMO IMPLICIT SOLVATION MODEL
 *  LET        - OVERRIDE SOME SAFETY CHECKS
 *  THREADS=1  - MULTI-THREADING NOT USED
 *  T=         - A TIME OF 14.0 DAYS REQUESTED
 *  DUMP=N     - RESTART FILE WRITTEN EVERY 30.0 MINUTES REQUESTED
 *  RELSCF     - DEFAULT SCF CRITERION MULTIPLIED BY 1.0000
 *              (DEFAULT SCF CRITERION = 0.00010)
 *  ITRY=      - DO A MAXIMUM OF 15000 ITERATIONS FOR SCF
 *  AUX        - OUTPUT AUXILIARY INFORMATION
 *  ISOTOPE    - SAVE THE FORCE MATRIX FOR USE LATER
 *  BONDS      - FINAL BOND-ORDER MATRIX TO BE PRINTED
 *  LARGE      - EXPANDED OUTPUT TO BE PRINTED
 *  THERMO     - THERMODYNAMIC QUANTITIES TO BE CALCULATED
 *******************************************************************************
PM7 AUX LARGE THERMO(298,298) LET ISOTOPE BONDS DUMP=30M ITRY=15000 T=14D CHARGE=-1 SINGLET eps=78.4 THREADS=True RELSCF=1
 Title: ASE calculation

   ATOM   CHEMICAL          X               Y               Z
  NUMBER   SYMBOL      (ANGSTROMS)     (ANGSTROMS)     (ANGSTROMS)

     1       C          1.21636634  *   0.63146480  *  -1.63616897  *
     2       C          1.13843485  *  -0.69581199  *  -1.21101679  *
     3       C         -0.11462976  *  -1.22969204  *  -0.91859357  *
     4       C         -1.27569204  *  -0.44115704  *  -0.99677874  *
     5       C         -1.17033792  *   0.88274387  *  -1.39941355  *
     6       C          0.07407041  *   1.41920145  *  -1.73369418  *
     7       H          2.19140266  *   1.05484577  *  -1.88717391  *
     8       C          2.44349456  *  -1.42430116  *  -1.05820613  *
     9       O         -0.40112014  *  -2.49213354  *  -0.49689370  *
    10       H         -2.24008375  *  -0.87439784  *  -0.74130520  *
    11       H         -2.06376630  *   1.50519079  *  -1.45729524  *
    12       H          0.14968586  *   2.45317015  *  -2.06391723  *
    13       O          2.90952576  *  -1.93940558  *  -2.10700798  *
    14       C          3.04186408  *  -1.41278157  *   0.16555042  *
    15       O          6.83749855  *  -2.23824470  *   0.39411247  *
    16       H          7.00325102  *  -2.38859361  *   1.34397790  *
    17       H          7.20692070  *  -3.73619171  *  -0.33421975  *
    18       O          7.42294601  *  -4.58868552  *  -0.75120722  *
    19       H          8.02957707  *  -4.35847912  *  -1.46076351  *
    20       H          3.98723648  *  -1.86649985  *   0.34343760  *
    21       H          2.60675439  *  -0.96109918  *   1.02210794  *
    22       T          5.85969557  *  -2.21493297  *   0.37079241  *
    23       C          0.55931263  *  -3.51759990  *  -0.70870573  *
    24       H         -0.02031967  *  -4.42992800  *  -0.51423194  *
    25       H          1.38286139  *  -3.41651671  *   0.00867513  *
    26       H          0.93702370  *  -3.50786704  *  -1.73664967  *


                                Isotopes Used

              Atom:   22  H  Default mass  1.0079,  mass used:  3.0160 amu


          CARTESIAN COORDINATES 

    NO.       ATOM           X           Y           Z

     1         C          1.2164      0.6315     -1.6362
     2         C          1.1384     -0.6958     -1.2110
     3         C         -0.1146     -1.2297     -0.9186
     4         C         -1.2757     -0.4412     -0.9968
     5         C         -1.1703      0.8827     -1.3994
     6         C          0.0741      1.4192     -1.7337
     7         H          2.1914      1.0548     -1.8872
     8         C          2.4435     -1.4243     -1.0582
     9         O         -0.4011     -2.4921     -0.4969
    10         H         -2.2401     -0.8744     -0.7413
    11         H         -2.0638      1.5052     -1.4573
    12         H          0.1497      2.4532     -2.0639
    13         O          2.9095     -1.9394     -2.1070
    14         C          3.0419     -1.4128      0.1656
    15         O          6.8375     -2.2382      0.3941
    16         H          7.0033     -2.3886      1.3440
    17         H          7.2069     -3.7362     -0.3342
    18         O          7.4229     -4.5887     -0.7512
    19         H          8.0296     -4.3585     -1.4608
    20         H          3.9872     -1.8665      0.3434
    21         H          2.6068     -0.9611      1.0221
    22         H          5.8597     -2.2149      0.3708
    23         C          0.5593     -3.5176     -0.7087
    24         H         -0.0203     -4.4299     -0.5142
    25         H          1.3829     -3.4165      0.0087
    26         H          0.9370     -3.5079     -1.7366

 General Reference for PM7:
 "Optimization of Parameters for Semiempirical Methods VI: More Modifications to the 
 NDDO Approximations and Re-optimization of Parameters", J. J. P. Stewart, J. Mol. Mod., 1:32, 19 (2013)
 https://link.springer.com/article/10.1007/s00894-012-1667-x

           Empirical Formula: C9 H13 O4  =    26 atoms



      MOLECULAR POINT GROUP   :   C1  


 SINGLET STATE CALCULATION


      RHF CALCULATION, NO. OF DOUBLY OCCUPIED LEVELS = 37

  SCF CRITERION =    0.1000E-03


          HEAT OF FORMATION =    -273.384340 KCALS/MOLE


          CARTESIAN COORDINATE DERIVATIVES

   NUMBER  ATOM         X            Y            Z

     1       C      0.326813    -0.084872    -0.006943
     2       C     -0.158891    -0.041599     0.114262
     3       C     -0.154775    -0.089439    -0.067547
     4       C      0.405091     0.011901    -0.210698
     5       C     -0.271438    -0.097496    -0.051391
     6       C      0.099996    -0.118006     0.001798
     7       H      0.107652    -0.149105     0.151021
     8       C      0.171672    -0.060847    -0.717868
     9       O      0.029904    -0.103861     0.017569
    10       H     -0.033442    -0.095939    -0.153710
    11       H      0.053170    -0.157970    -0.177952
    12       H      0.057285    -0.152582     0.016179
    13       O     -0.022153    -0.235122     0.358133
    14       C     -1.315978     2.567983     0.659769
    15       O     -1.398827    -7.623453     1.855217
    16       H      0.570833     2.620386    -0.578926
    17       H      0.097013     0.297697    -0.006009
    18       O     -0.272601     0.143189    -0.959137
    19       H     -0.439128     0.199276     0.156740
    20       H     -0.191598    -0.285495    -0.075793
    21       H      0.173852     0.054314     0.094478
    22       H      1.817582     2.954483    -0.706941
    23       C      0.172324     0.138854     0.158996
    24       H      0.027934     0.121989    -0.012143
    25       H      0.088714    -0.061506     0.055824
    26       H      0.061048     0.247905     0.086882

 DIPOLE           X         Y         Z       TOTAL
 POINT-CHG.   -12.290     8.652    -3.269    15.381
 HYBRID        -0.004     0.402    -0.022     0.402
 SUM          -12.294     9.053    -3.292    15.619


          GRADIENT NORM =   9.77143


                              **** WARNING ****

           GRADIENT IS VERY LARGE FOR A THERMO CALCULATION
           RESULTS ARE LIKELY TO BE INACCURATE IF THERE ARE
           ANY LOW-LYING VIBRATIONS (LESS THAN ABOUT 400CM-1)
           GRADIENT NORM SHOULD BE LESS THAN ABOUT 1.0 FOR THERMO
           TO GIVE ACCURATE RESULTS


          TIME FOR SCF CALCULATION =    0.04

          TIME FOR DERIVATIVES     =    0.02

          MOLECULAR WEIGHT =  187.21



          ROTATIONAL CONSTANTS IN CM(-1)

          A =    0.04418891   B =    0.00895536   C =    0.00801196



           PRINCIPAL MOMENTS OF INERTIA IN UNITS OF 10**(-40)*GRAM-CM**2

          A =      633.4792   B =     3125.8082   C =     3493.8701


          ORIENTATION OF MOLECULE IN FORCE CALCULATION

    NO.       ATOM         X         Y         Z

     1          C      -2.1853    0.9611    0.1518
     2          C      -0.7895    0.9611    0.1518
     3          C      -0.1228    2.1843    0.1518
     4          C      -0.8316    3.3971    0.1001
     5          C      -2.2189    3.3712    0.0771
     6          C      -2.9003    2.1537    0.1169
     7          H      -2.7188    0.0082    0.1717
     8          C      -0.1231   -0.3845    0.1010
     9          O       1.2220    2.3966    0.1554
    10          H      -0.2880    4.3389    0.0779
    11          H      -2.7785    4.3059    0.0305
    12          H      -3.9882    2.1390    0.1146
    13          O       0.0212   -0.9665    1.2069
    14          C       0.2053   -0.8889   -1.1210
    15          O       0.8479   -4.7125   -1.4498
    16          H       1.2709   -4.8201   -2.3226
    17          H       2.0297   -5.2554   -0.3456
    18          O       2.7013   -5.5703    0.2846
    19          H       2.2324   -6.2063    0.8325
    20          H       0.6381   -1.8527   -1.2437
    21          H       0.0610   -0.3569   -2.0283
    22          H       0.8732   -3.7404   -1.3423
    23          C       2.0790    1.3427    0.5721
    24          H       3.0380    1.8584    0.7146
    25          H       2.1554    0.5848   -0.2171
    26          H       1.7355    0.8929    1.5098


    FIRST DERIVATIVES WILL BE USED IN THE CALCULATION OF SECOND DERIVATIVES

          ESTIMATED TIME TO COMPLETE CALCULATION =        8.53 SECONDS

    FOR POINT-GROUP C1   THERE ARE   1 UNIQUE SYMMETRY FUNCTIONS.

 STEP:   1 TIME =     0.04 SECS, INTEGRAL =      0.04 TIME LEFT:1209599.90
 STEP:   2 TIME =     0.02 SECS, INTEGRAL =      0.07 TIME LEFT:1209599.88
 STEP:   3 TIME =     0.02 SECS, INTEGRAL =      0.09 TIME LEFT:1209599.86
 STEP:   4 TIME =     0.02 SECS, INTEGRAL =      0.11 TIME LEFT:1209599.83
 STEP:   5 TIME =     0.03 SECS, INTEGRAL =      0.14 TIME LEFT:1209599.80
 STEP:   6 TIME =     0.02 SECS, INTEGRAL =      0.16 TIME LEFT:1209599.78
 STEP:   7 TIME =     0.02 SECS, INTEGRAL =      0.19 TIME LEFT:1209599.76
 STEP:   8 TIME =     0.02 SECS, INTEGRAL =      0.21 TIME LEFT:1209599.73
 STEP:   9 TIME =     0.02 SECS, INTEGRAL =      0.23 TIME LEFT:1209599.71
 STEP:  10 TIME =     0.02 SECS, INTEGRAL =      0.26 TIME LEFT:1209599.69
 STEP:  11 TIME =     0.02 SECS, INTEGRAL =      0.28 TIME LEFT:1209599.66
 STEP:  12 TIME =     0.03 SECS, INTEGRAL =      0.31 TIME LEFT:1209599.64
 STEP:  13 TIME =     0.02 SECS, INTEGRAL =      0.33 TIME LEFT:1209599.61
 STEP:  14 TIME =     0.02 SECS, INTEGRAL =      0.36 TIME LEFT:1209599.59
 STEP:  15 TIME =     0.02 SECS, INTEGRAL =      0.38 TIME LEFT:1209599.57
 STEP:  16 TIME =     0.03 SECS, INTEGRAL =      0.41 TIME LEFT:1209599.54
 STEP:  17 TIME =     0.02 SECS, INTEGRAL =      0.43 TIME LEFT:1209599.52
 STEP:  18 TIME =     0.02 SECS, INTEGRAL =      0.45 TIME LEFT:1209599.49
 STEP:  19 TIME =     0.02 SECS, INTEGRAL =      0.48 TIME LEFT:1209599.47
 STEP:  20 TIME =     0.02 SECS, INTEGRAL =      0.50 TIME LEFT:1209599.45
 STEP:  21 TIME =     0.02 SECS, INTEGRAL =      0.52 TIME LEFT:1209599.42
 STEP:  22 TIME =     0.02 SECS, INTEGRAL =      0.55 TIME LEFT:1209599.40
 STEP:  23 TIME =     0.03 SECS, INTEGRAL =      0.57 TIME LEFT:1209599.37
 STEP:  24 TIME =     0.02 SECS, INTEGRAL =      0.60 TIME LEFT:1209599.35
 STEP:  25 TIME =     0.02 SECS, INTEGRAL =      0.62 TIME LEFT:1209599.32
 STEP:  26 TIME =     0.03 SECS, INTEGRAL =      0.65 TIME LEFT:1209599.30
 STEP:  27 TIME =     0.02 SECS, INTEGRAL =      0.67 TIME LEFT:1209599.27
 STEP:  28 TIME =     0.02 SECS, INTEGRAL =      0.70 TIME LEFT:1209599.25
 STEP:  29 TIME =     0.02 SECS, INTEGRAL =      0.72 TIME LEFT:1209599.23
 STEP:  30 TIME =     0.03 SECS, INTEGRAL =      0.75 TIME LEFT:1209599.20
 STEP:  31 TIME =     0.02 SECS, INTEGRAL =      0.77 TIME LEFT:1209599.18
 STEP:  32 TIME =     0.02 SECS, INTEGRAL =      0.79 TIME LEFT:1209599.15
 STEP:  33 TIME =     0.03 SECS, INTEGRAL =      0.82 TIME LEFT:1209599.12
 STEP:  34 TIME =     0.02 SECS, INTEGRAL =      0.84 TIME LEFT:1209599.10
 STEP:  35 TIME =     0.02 SECS, INTEGRAL =      0.87 TIME LEFT:1209599.08
 STEP:  36 TIME =     0.02 SECS, INTEGRAL =      0.89 TIME LEFT:1209599.05
 STEP:  37 TIME =     0.03 SECS, INTEGRAL =      0.92 TIME LEFT:1209599.03
 STEP:  38 TIME =     0.02 SECS, INTEGRAL =      0.94 TIME LEFT:1209599.00
 STEP:  39 TIME =     0.02 SECS, INTEGRAL =      0.96 TIME LEFT:1209598.98
 STEP:  40 TIME =     0.03 SECS, INTEGRAL =      0.99 TIME LEFT:1209598.95
 STEP:  41 TIME =     0.02 SECS, INTEGRAL =      1.02 TIME LEFT:1209598.93
 STEP:  42 TIME =     0.02 SECS, INTEGRAL =      1.04 TIME LEFT:1209598.91
 STEP:  43 TIME =     0.03 SECS, INTEGRAL =      1.07 TIME LEFT:1209598.88
 STEP:  44 TIME =     0.02 SECS, INTEGRAL =      1.09 TIME LEFT:1209598.86
 STEP:  45 TIME =     0.02 SECS, INTEGRAL =      1.11 TIME LEFT:1209598.83
 STEP:  46 TIME =     0.02 SECS, INTEGRAL =      1.14 TIME LEFT:1209598.81
 STEP:  47 TIME =     0.03 SECS, INTEGRAL =      1.16 TIME LEFT:1209598.78
 STEP:  48 TIME =     0.02 SECS, INTEGRAL =      1.19 TIME LEFT:1209598.76
 STEP:  49 TIME =     0.02 SECS, INTEGRAL =      1.21 TIME LEFT:1209598.73
 STEP:  50 TIME =     0.02 SECS, INTEGRAL =      1.23 TIME LEFT:1209598.71
 STEP:  51 TIME =     0.02 SECS, INTEGRAL =      1.26 TIME LEFT:1209598.69
 STEP:  52 TIME =     0.02 SECS, INTEGRAL =      1.28 TIME LEFT:1209598.66
 STEP:  53 TIME =     0.02 SECS, INTEGRAL =      1.30 TIME LEFT:1209598.64
 STEP:  54 TIME =     0.02 SECS, INTEGRAL =      1.33 TIME LEFT:1209598.62
 STEP:  55 TIME =     0.03 SECS, INTEGRAL =      1.36 TIME LEFT:1209598.59
 STEP:  56 TIME =     0.02 SECS, INTEGRAL =      1.38 TIME LEFT:1209598.57
 STEP:  57 TIME =     0.02 SECS, INTEGRAL =      1.40 TIME LEFT:1209598.54
 STEP:  58 TIME =     0.02 SECS, INTEGRAL =      1.43 TIME LEFT:1209598.52
 STEP:  59 TIME =     0.03 SECS, INTEGRAL =      1.45 TIME LEFT:1209598.49
 STEP:  60 TIME =     0.02 SECS, INTEGRAL =      1.48 TIME LEFT:1209598.47
 STEP:  61 TIME =     0.02 SECS, INTEGRAL =      1.50 TIME LEFT:1209598.45
 STEP:  62 TIME =     0.03 SECS, INTEGRAL =      1.53 TIME LEFT:1209598.42
 STEP:  63 TIME =     0.02 SECS, INTEGRAL =      1.55 TIME LEFT:1209598.39
 STEP:  64 TIME =     0.02 SECS, INTEGRAL =      1.57 TIME LEFT:1209598.37
 STEP:  65 TIME =     0.03 SECS, INTEGRAL =      1.60 TIME LEFT:1209598.34
 STEP:  66 TIME =     0.02 SECS, INTEGRAL =      1.62 TIME LEFT:1209598.32
 STEP:  67 TIME =     0.02 SECS, INTEGRAL =      1.65 TIME LEFT:1209598.30
 STEP:  68 TIME =     0.02 SECS, INTEGRAL =      1.67 TIME LEFT:1209598.27
 STEP:  69 TIME =     0.03 SECS, INTEGRAL =      1.70 TIME LEFT:1209598.25
 STEP:  70 TIME =     0.02 SECS, INTEGRAL =      1.72 TIME LEFT:1209598.22
 STEP:  71 TIME =     0.02 SECS, INTEGRAL =      1.75 TIME LEFT:1209598.20
 STEP:  72 TIME =     0.03 SECS, INTEGRAL =      1.77 TIME LEFT:1209598.17
 STEP:  73 TIME =     0.02 SECS, INTEGRAL =      1.80 TIME LEFT:1209598.15
 STEP:  74 TIME =     0.02 SECS, INTEGRAL =      1.82 TIME LEFT:1209598.12
 STEP:  75 TIME =     0.02 SECS, INTEGRAL =      1.84 TIME LEFT:1209598.10
 STEP:  76 TIME =     0.03 SECS, INTEGRAL =      1.87 TIME LEFT:1209598.07
 STEP:  77 TIME =     0.02 SECS, INTEGRAL =      1.89 TIME LEFT:1209598.05
 STEP:  78 TIME =     0.02 SECS, INTEGRAL =      1.92 TIME LEFT:1209598.03

(To convert to Hartree/Bohr^2, multiply by (10^(-21) x N x a0^2)/(4.184 x 627.51) =  0.0642)


           FORCE MATRIX IN MILLIDYNES/ANGSTROM


                  C  1       C  2       C  3       C  4       C  5       C  6
 ------------------------------------------------------------------------------
     C    1  15.414277
     C    2   6.059185  15.929012
     C    3   2.022207   5.904786  16.276386
     C    4   1.163437   1.719845   5.473911  15.431406
     C    5   1.930688   1.103228   1.954264   6.562452  15.662692
     C    6   6.337996   1.888565   1.241676   1.910938   6.202530  15.442061
     H    7   3.425411   0.748597   0.094421   0.018077   0.082321   0.750387
     C    8   0.873509   3.209526   0.738298   0.094723   0.048545   0.119823
     O    9   0.143707   1.070482   4.973067   1.462063   0.127660   0.066297
     H   10   0.016445   0.076899   0.753418   3.418327   0.771202   0.093137
     H   11   0.082936   0.011828   0.097547   0.759291   3.414714   0.737802
     H   12   0.767393   0.089255   0.031601   0.084394   0.763424   3.431130
     O   13   0.063793   1.415266   0.122973   0.036083   0.020906   0.038674
     C   14   0.027832   0.865322   0.084155   0.027991   0.018094   0.034002
     O   15   0.001045   0.004592   0.002465   0.000926   0.001810   0.001205
     H   16   0.000462   0.003474   0.001234   0.000651   0.000716   0.000721
     H   17   0.000405   0.001898   0.000829   0.000749   0.000853   0.000563
     O   18   0.000872   0.002245   0.001305   0.000938   0.001025   0.000938
     H   19   0.000363   0.000431   0.000745   0.000287   0.000404   0.000555
     H   20   0.008648   0.092327   0.012585   0.003416   0.001376   0.004078
     H   21   0.019291   0.039580   0.018567   0.005678   0.005263   0.008944
     H   22   0.001698   0.006692   0.001831   0.001223   0.001310   0.002318
     C   23   0.020553   0.073201   1.072659   0.135260   0.032150   0.012201
     H   24   0.004746   0.018408   0.125342   0.034327   0.007280   0.002399
     H   25   0.003976   0.009290   0.072501   0.010691   0.003881   0.002514
     H   26   0.004816   0.007491   0.076355   0.014764   0.004709   0.004603


                  H  7       C  8       O  9       H 10       H 11       H 12
 ------------------------------------------------------------------------------
     H    7   4.330180
     C    8   0.069996  17.701719
     O    9   0.016728   0.137845  10.486198
     H   10   0.009663   0.021336   0.052683   4.332493
     H   11   0.008246   0.017964   0.012906   0.034254   4.323349
     H   12   0.029862   0.021042   0.026085   0.008546   0.040518   4.356284
     O   13   0.013777   8.512710   0.054205   0.008269   0.006406   0.008308
     C   14   0.018897   7.938466   0.040321   0.009176   0.006365   0.008503
     O   15   0.000964   0.033694   0.002023   0.001169   0.001111   0.001004
     H   16   0.000778   0.027576   0.001026   0.000490   0.000402   0.000362
     H   17   0.000690   0.004221   0.001369   0.000596   0.000500   0.000428
     O   18   0.000826   0.010682   0.001521   0.000670   0.000614   0.000647
     H   19   0.000343   0.001984   0.000643   0.000201   0.000243   0.000322
     H   20   0.002553   0.868650   0.005878   0.000610   0.000458   0.000623
     H   21   0.004532   0.963718   0.007297   0.003117   0.002513   0.002629
     H   22   0.001357   0.040862   0.000945   0.000780   0.000893   0.000835
     C   23   0.004838   0.045119   4.225319   0.015937   0.004840   0.005423
     H   24   0.000916   0.017737   0.745743   0.005368   0.001592   0.001257
     H   25   0.001109   0.102691   0.700166   0.002649   0.000656   0.000884
     H   26   0.002098   0.073374   0.719576   0.004914   0.001105   0.001792


                  O 13       C 14       O 15       H 16       H 17       O 18
 ------------------------------------------------------------------------------
     O   13  10.743792
     C   14   1.876650  14.199593
     O   15   0.069839   0.069073   6.952225
     H   16   0.044248   0.048755   3.837498   4.286663
     H   17   0.003467   0.004518   0.253114   0.122407   3.883206
     O   18   0.006368   0.005509   3.099178   0.042197   3.510054   8.299876
     H   19   0.001509   0.002717   0.063904   0.010636   0.788485   3.900411
     H   20   0.110969   3.554354   0.038954   0.012511   0.005727   0.005078
     H   21   0.158098   3.560796   0.005617   0.005908   0.001032   0.001646
     H   22   0.037813   0.037276   3.825135   0.847939   0.124512   0.041731
     C   23   0.056431   0.086439   0.004666   0.003698   0.000663   0.000841
     H   24   0.009601   0.011939   0.001021   0.000611   0.000949   0.001183
     H   25   0.043361   0.069459   0.001512   0.000896   0.000714   0.001479
     H   26   0.025087   0.025551   0.001007   0.000894   0.000799   0.001274


                  H 19       H 20       H 21       H 22       C 23       H 24
 ------------------------------------------------------------------------------
     H   19   4.313699
     H   20   0.002238   4.362814
     H   21   0.000764   0.481533   4.409076
     H   22   0.010088   0.055650   0.007179   4.226767
     C   23   0.000690   0.011547   0.013521   0.004391  11.277950
     H   24   0.000350   0.002665   0.003133   0.000619   3.339652   4.109505
     H   25   0.000776   0.015921   0.037787   0.001233   3.312755   0.447846
     H   26   0.000520   0.004539   0.006155   0.001440   3.353611   0.446568


                  H 25       H 26
 ------------------------------
     H   25   4.065551
     H   26   0.446974   4.102835


          HEAT OF FORMATION =    -273.384340 KCALS/MOLE


          TRIVIAL VIBRATIONS, SHOULD BE ZERO

 -25.0301=TX -34.5679=TY -49.3428=TZ  25.2654=RX  -8.5489=RY  -7.7826=RZ


      MOLECULAR POINT GROUP   :   C1  


           EIGENVECTORS  


   Root No.       1         2         3         4         5         6         7         8

                 1 A       2 A       3 A       4 A       5 A       6 A       7 A       8 A   

                  -0.1      -0.0      -0.0      -0.0      -0.0      -0.0      -0.0       0.0
  
           1   -0.0032    0.0456   -0.0070   -0.0262    0.0956   -0.0327   -0.0049   -0.0034
           2   -0.0048   -0.0118   -0.0030    0.0101   -0.1364   -0.0072    0.0111   -0.0354
           3   -0.0063   -0.0691    0.0002   -0.0470   -0.0109   -0.0081   -0.0567   -0.0257
           4   -0.0030    0.0480   -0.0074   -0.0244    0.0958   -0.0326   -0.0058   -0.0031
           5   -0.0032    0.0296   -0.0097   -0.0257   -0.0741   -0.0521   -0.0187   -0.0102
           6   -0.0008    0.0659   -0.0140   -0.0061   -0.0110   -0.0358   -0.0479   -0.0451
           7   -0.0063    0.0058   -0.0027    0.0037    0.0374    0.0059    0.0197   -0.0224
           8   -0.0010    0.0527   -0.0118   -0.0416   -0.0425   -0.0731   -0.0319   -0.0002
           9    0.0087    0.2034   -0.0505    0.0031   -0.0187    0.0219   -0.0136   -0.0056
          10   -0.0083   -0.0379    0.0034    0.0314   -0.0179    0.0430    0.0496   -0.0465
          11   -0.0021    0.0278   -0.0084   -0.0246   -0.0746   -0.0471   -0.0149   -0.0111
          12    0.0122    0.0827   -0.0365   -0.0330   -0.0151    0.0974    0.0064    0.0495
          13   -0.0081   -0.0313    0.0025    0.0324   -0.0164    0.0425    0.0488   -0.0460
          14   -0.0042   -0.0162   -0.0020    0.0095   -0.1375   -0.0020    0.0150   -0.0346
          15    0.0062   -0.0741   -0.0099   -0.0639   -0.0161    0.1096   -0.0121    0.0588
          16   -0.0054    0.0054   -0.0017    0.0025    0.0404    0.0047    0.0226   -0.0252
          17   -0.0060   -0.0394    0.0009    0.0255   -0.1699    0.0171    0.0289   -0.0478
          18   -0.0028   -0.1200   -0.0001   -0.0711   -0.0170    0.0603   -0.0417    0.0211
          19   -0.0020    0.0742   -0.0125   -0.0484    0.1363   -0.0621   -0.0273    0.0154
          20   -0.0055   -0.0295    0.0004    0.0225   -0.1595    0.0088    0.0234   -0.0463
          21   -0.0121   -0.1185    0.0096   -0.0454   -0.0093   -0.0393   -0.0766   -0.0426
          22   -0.0008    0.0597    0.0011   -0.0804    0.1627   -0.0715   -0.0095    0.0067
          23   -0.0023    0.0344   -0.0074   -0.0565   -0.0425   -0.0684   -0.0198   -0.0028
          24   -0.0010    0.0329    0.0276    0.1118   -0.0082   -0.1285   -0.1042   -0.0870
          25   -0.0071   -0.0184    0.0006    0.0042    0.0290    0.0116    0.0275   -0.0274
          26    0.0029    0.1685   -0.0275   -0.0552    0.0136   -0.1124   -0.0742    0.0276
          27    0.0171    0.5518   -0.1222    0.0812   -0.0393    0.0048   -0.0114    0.0023
          28   -0.0097   -0.0613    0.0066    0.0554   -0.0617    0.0755    0.0702   -0.0627
          29   -0.0011    0.0462   -0.0110   -0.0376   -0.0496   -0.0661   -0.0270   -0.0013
          30    0.0182    0.1075   -0.0434   -0.0265   -0.0146    0.1310    0.0320    0.0768
          31   -0.0094   -0.0570    0.0060    0.0544   -0.0595    0.0701    0.0691   -0.0626
          32   -0.0050   -0.0356    0.0007    0.0221   -0.1632    0.0167    0.0276   -0.0429
          33    0.0092   -0.1515    0.0009   -0.0777   -0.0142    0.1574   -0.0032    0.0985
          34   -0.0054    0.0068   -0.0019    0.0023    0.0409    0.0041    0.0222   -0.0250
          35   -0.0078   -0.0753    0.0060    0.0510   -0.2186    0.0517    0.0532   -0.0669
          36   -0.0064   -0.1952    0.0088   -0.0884   -0.0232    0.0734   -0.0536    0.0300
          37   -0.0002    0.2061    0.1489   -0.2368    0.2904   -0.0733    0.1238   -0.2067
          38   -0.0032    0.0588    0.1000   -0.0039    0.0115   -0.1439   -0.0149   -0.1322
          39   -0.0001    0.0258    0.0668    0.1626    0.0034   -0.1686   -0.1192   -0.1304
          40   -0.0012   -0.0777   -0.1249    0.0251    0.0821   -0.0940   -0.1290    0.2172
          41   -0.0027    0.0193   -0.1081   -0.1652   -0.0758    0.0062   -0.0043    0.1275
          42   -0.0008    0.0003    0.0367    0.1846   -0.0167   -0.1656   -0.1420   -0.0864
          43   -0.1122   -0.0320    0.1379   -0.0698   -0.1736    0.1610   -0.1462   -0.0826
          44    0.2478   -0.0276    0.2505    0.2088    0.2083    0.1359    0.0665    0.1463
          45    0.1401    0.0290   -0.0112    0.0270    0.0063    0.0038    0.2541    0.2483
          46   -0.2812   -0.0559    0.0975   -0.0770   -0.1176    0.2382   -0.2447   -0.0934
          47   -0.5059    0.0086    0.4220    0.1864    0.1423    0.1094    0.0954    0.1534
          48    0.1517    0.0148   -0.0461    0.0282    0.0442    0.0434    0.2000    0.2352
          49   -0.0809   -0.0178    0.0224    0.0262   -0.1981    0.0391    0.0658   -0.0378
          50    0.0525   -0.0484   -0.1147    0.2111    0.2249    0.2142    0.0467   -0.0489
          51    0.0268    0.0033   -0.0696   -0.0738    0.0423    0.1733    0.0132    0.0991
          52   -0.0342   -0.0073   -0.0729    0.1030   -0.2210   -0.0534    0.2296   -0.0261
          53    0.0014   -0.0381   -0.2849    0.2058    0.1904    0.2223    0.0691   -0.2175
          54   -0.0544   -0.0027   -0.0518   -0.1579    0.0494    0.2758   -0.1472    0.0057
          55    0.0013   -0.0024   -0.2536    0.1956   -0.2413   -0.1439    0.4131   -0.0360
          56   -0.0170   -0.0156   -0.1645    0.1361    0.1550    0.2465   -0.0134   -0.3162
          57   -0.0453    0.0274   -0.0658   -0.1602   -0.0084    0.2279   -0.0882   -0.1174
          58   -0.0010   -0.0849   -0.1391   -0.0301    0.1186   -0.1039   -0.1177    0.2601
          59   -0.0014    0.0230   -0.1165   -0.2112   -0.0583    0.0098    0.0109    0.1452
          60   -0.0076   -0.0468    0.0567    0.3171   -0.0224   -0.2342   -0.2077   -0.0990
          61   -0.0013   -0.2234   -0.1935    0.2317   -0.0379   -0.0846   -0.2457    0.3607
          62   -0.0002    0.0015   -0.1620   -0.2107   -0.1146    0.0693    0.0082    0.2050
          63    0.0000    0.0110    0.0150    0.1252   -0.0214   -0.1288   -0.1161   -0.0636
          64    0.6108    0.0168    0.4089   -0.1123   -0.2740    0.0901   -0.1084   -0.0959
          65    0.2716   -0.0376    0.2064    0.2180    0.2250    0.1466    0.0650    0.1529
          66   -0.2870    0.0975    0.3438   -0.0104   -0.1024   -0.0560    0.2854    0.2240
          67   -0.0081    0.0464   -0.0026   -0.0124    0.0664   -0.0052   -0.0213    0.0038
          68   -0.0003    0.0008    0.0062   -0.1088    0.0747   -0.1616   -0.0746    0.0156
          69    0.0097   -0.0212   -0.0273   -0.0249    0.0407   -0.0869    0.0905   -0.0928
          70   -0.0079    0.1168   -0.0126    0.0469    0.0171    0.0259   -0.0580    0.0237
          71   -0.0016   -0.0804    0.0218   -0.1709    0.1400   -0.2053   -0.0654    0.0077
          72    0.0146   -0.1884   -0.0217   -0.1965    0.1357   -0.1393    0.3010   -0.1965
          73   -0.0065   -0.2141    0.0254   -0.1865    0.1912   -0.0930    0.1279   -0.0771
          74    0.0060    0.1959   -0.0369   -0.1519    0.0890   -0.1438   -0.0201    0.0114
          75    0.0037   -0.2321    0.0172   -0.0010    0.0396   -0.1126    0.0538   -0.0981
          76   -0.0086    0.2896   -0.0291    0.0894    0.0150    0.0385   -0.1713    0.0921
          77   -0.0068   -0.2115    0.0538   -0.0429    0.0422   -0.1717   -0.1417    0.0218
          78    0.0063   -0.0337   -0.0133    0.0429    0.0072   -0.0761    0.0049   -0.0591


   Root No.       9        10        11        12        13        14        15        16

                 9 A      10 A      11 A      12 A      13 A      14 A      15 A      16 A   

                   0.0       0.0       0.0       0.1       0.1       0.1       0.1       0.1
  
           1    0.0216    0.0164    0.0025    0.0932    0.0281   -0.0683    0.0168   -0.1326
           2    0.0046   -0.0328   -0.0312    0.0241   -0.0111    0.0246   -0.0036    0.0009
           3   -0.1903    0.1294   -0.0049   -0.0356   -0.0125   -0.0595   -0.0074   -0.0864
           4    0.0211    0.0164    0.0022    0.0973    0.0281   -0.0733    0.0175   -0.1235
           5    0.0199   -0.0312   -0.0225    0.0738    0.0114    0.0009    0.0038   -0.1018
           6   -0.1483    0.1098   -0.0018   -0.1693   -0.0549   -0.0806   -0.0020   -0.0563
           7    0.0059    0.0188   -0.0014    0.0374    0.0099   -0.0435    0.0107   -0.0589
           8    0.0293   -0.0329   -0.0210    0.1055    0.0212   -0.0101    0.0064   -0.1426
           9   -0.0216    0.0335    0.0037   -0.0856   -0.0389   -0.0484    0.0029    0.0369
          10   -0.0098    0.0178   -0.0073   -0.0164   -0.0088   -0.0088    0.0025    0.0103
          11    0.0272   -0.0393   -0.0243    0.0744    0.0095    0.0066    0.0022   -0.0956
          12    0.1819   -0.1232    0.0092   -0.1460   -0.0568   -0.0723    0.0080   -0.0724
          13   -0.0101    0.0184   -0.0072   -0.0167   -0.0097   -0.0113    0.0028    0.0173
          14    0.0152   -0.0427   -0.0315    0.0192   -0.0122    0.0358   -0.0056    0.0109
          15    0.1494   -0.1342    0.0046    0.0130    0.0098    0.0187   -0.0028    0.0062
          16    0.0063    0.0163   -0.0027    0.0373    0.0088   -0.0369    0.0090   -0.0572
          17    0.0002   -0.0371   -0.0345   -0.0085   -0.0218    0.0508   -0.0095    0.0512
          18   -0.0689    0.0201   -0.0038    0.1420    0.0518    0.0475   -0.0128    0.0635
          19    0.0319    0.0180    0.0084    0.1398    0.0455   -0.0970    0.0250   -0.2201
          20   -0.0031   -0.0325   -0.0346   -0.0023   -0.0210    0.0413   -0.0086    0.0463
          21   -0.3016    0.2042   -0.0089   -0.0234   -0.0150   -0.0975   -0.0086   -0.2091
          22    0.0339    0.0105    0.0100    0.0358    0.0340    0.0626   -0.0100   -0.1238
          23    0.0257   -0.0308   -0.0175    0.0408    0.0132    0.0675   -0.0100   -0.0985
          24   -0.1065   -0.0017   -0.0128   -0.1689   -0.0461   -0.0275   -0.0036   -0.0585
          25    0.0084    0.0179   -0.0016    0.0287    0.0092   -0.0359    0.0095   -0.0851
          26    0.0288   -0.0294   -0.0201    0.1725    0.0324   -0.0532    0.0147   -0.0420
          27   -0.1329    0.0696    0.0023    0.2742    0.0639    0.0718    0.0052    0.2236
          28   -0.0207    0.0156   -0.0119   -0.0628   -0.0266    0.0139   -0.0038    0.1029
          29    0.0350   -0.0398   -0.0220    0.1044    0.0200   -0.0074    0.0062   -0.1495
          30    0.3379   -0.2287    0.0141   -0.2488   -0.0997   -0.1339    0.0189   -0.1978
          31   -0.0190    0.0179   -0.0118   -0.0637   -0.0272    0.0082   -0.0028    0.0876
          32    0.0165   -0.0497   -0.0342   -0.0057   -0.0211    0.0512   -0.0091    0.0539
          33    0.2977   -0.2706    0.0080    0.0737    0.0413    0.0818   -0.0029    0.0318
          34    0.0068    0.0166   -0.0026    0.0373    0.0087   -0.0385    0.0094   -0.0608
          35   -0.0168   -0.0358   -0.0395   -0.0513   -0.0363    0.0888   -0.0186    0.1489
          36   -0.1259    0.0341   -0.0096    0.3968    0.1411    0.1687   -0.0253    0.2347
          37    0.1200    0.0668   -0.0684   -0.0418    0.0062    0.2902   -0.0566   -0.1624
          38    0.1335   -0.1381   -0.0645    0.0639    0.0261    0.2219   -0.0286   -0.1097
          39   -0.0551   -0.0691   -0.0294   -0.1393   -0.0353    0.0275   -0.0089   -0.0597
          40   -0.0460   -0.0654    0.0931   -0.0086    0.0622    0.1239   -0.0182   -0.0316
          41   -0.1072    0.1026    0.0418   -0.1069   -0.0031    0.0243   -0.0136   -0.0817
          42   -0.0701   -0.0783   -0.0156   -0.1195   -0.0314    0.0089   -0.0045   -0.0409
          43   -0.0460    0.0000   -0.1021    0.0199   -0.0777    0.0425    0.1337    0.0170
          44   -0.0891    0.0430   -0.0343    0.0266   -0.1152   -0.0037   -0.1413    0.0041
          45    0.0240   -0.0012   -0.0123    0.0478   -0.1827    0.0286    0.1271   -0.0059
          46   -0.0478   -0.0163   -0.3173    0.0922   -0.2027   -0.0627   -0.4244   -0.0411
          47   -0.0900    0.0367    0.0960   -0.0411    0.1385   -0.0227   -0.0474    0.0223
          48    0.0246   -0.0101   -0.1367    0.0921   -0.2796   -0.0176   -0.1561   -0.0385
          49   -0.0201    0.0115    0.0185    0.0577   -0.2935    0.1100    0.5177   -0.0077
          50   -0.0483    0.0346   -0.1866   -0.0317   -0.0007    0.0441    0.3291   -0.0182
          51    0.0169   -0.0190   -0.2236   -0.0215    0.1014   -0.0147   -0.0544    0.0132
          52    0.0128    0.0098    0.0705    0.0453   -0.2094    0.0348    0.1135   -0.0020
          53    0.0047    0.0045   -0.1132   -0.1421    0.4389   -0.0422    0.0562    0.0043
          54    0.0080   -0.0314   -0.2395   -0.0619    0.2275    0.0206    0.2430    0.0170
          55    0.0600    0.0050   -0.1090   -0.0725    0.2403   -0.0872   -0.3894    0.0230
          56    0.0061   -0.0172    0.5857    0.0475   -0.1535    0.0070   -0.0300   -0.0108
          57    0.0494   -0.0606    0.4199    0.0597   -0.0860   -0.0225   -0.2667    0.0201
          58   -0.0822   -0.0786    0.1100   -0.2386    0.0439    0.5987   -0.0974    0.1207
          59   -0.1347    0.1183    0.0515   -0.2347   -0.0156    0.2242   -0.0497   -0.0208
          60    0.0119   -0.2274   -0.0313    0.0064   -0.0046    0.1115   -0.0047   -0.0038
          61   -0.0172   -0.1048    0.1648    0.2365    0.1474   -0.2175    0.0653   -0.0988
          62   -0.1807    0.2170    0.0884   -0.1602   -0.0011   -0.1706    0.0152   -0.1417
          63   -0.1163   -0.0046   -0.0000   -0.1854   -0.0438   -0.0519   -0.0001   -0.0636
          64   -0.0372   -0.0152    0.1591   -0.0765    0.3325   -0.0493    0.0198    0.0150
          65   -0.0901    0.0464   -0.0655    0.0443   -0.1778    0.0047   -0.1379    0.0059
          66    0.0309   -0.0248    0.2332   -0.0683    0.2892   -0.0458    0.1131   -0.0017
          67    0.0096    0.0002    0.0005   -0.0677   -0.0285   -0.1006    0.0120    0.1429
          68    0.0927   -0.0072   -0.0167    0.0269   -0.0181   -0.1261    0.0185    0.1125
          69    0.0299    0.1640    0.0081    0.1131    0.0213    0.0303    0.0092    0.0880
          70    0.0564    0.0816    0.0015   -0.0014    0.0001   -0.0437    0.0057    0.0325
          71    0.0823   -0.0595   -0.0160   -0.1097   -0.0743   -0.2250    0.0268    0.3814
          72   -0.2551   -0.1988   -0.0026    0.1487    0.0175   -0.0357    0.0281   -0.0170
          73   -0.1385   -0.2298   -0.0022   -0.1860   -0.0806   -0.2121    0.0286    0.2519
          74   -0.1364   -0.2416   -0.0261    0.1017   -0.0079   -0.1490    0.0259    0.1649
          75    0.2339    0.3636    0.0160    0.0306    0.0052    0.0375    0.0045    0.0587
          76    0.0997    0.1346    0.0046   -0.1057   -0.0405   -0.0984    0.0032    0.3844
          77    0.3748    0.2944   -0.0076   -0.0316   -0.0204   -0.0836    0.0086    0.0054
          78    0.1964    0.3555    0.0135    0.0750    0.0174    0.0548    0.0010    0.1177


   Root No.      17        18        19        20        21        22        23        24

                17 A      18 A      19 A      20 A      21 A      22 A      23 A      24 A   

                   0.2       0.2       0.3       0.3       0.4       0.4       0.5       0.7
  
           1   -0.0313   -0.0406   -0.1285    0.0674   -0.0279    0.0044    0.0170    0.1099
           2    0.0328    0.0141   -0.0142   -0.0152    0.0210   -0.0027    0.0505    0.0181
           3    0.1309    0.0660   -0.0307   -0.0997   -0.0504    0.0051    0.1764    0.0017
           4   -0.0288   -0.0387   -0.1268    0.0645   -0.0375    0.0052    0.0154    0.0864
           5   -0.0044   -0.0178   -0.0486    0.0386    0.1530   -0.0142    0.0726    0.0067
           6   -0.0739   -0.0432    0.0338   -0.0137   -0.1646    0.0182    0.3161    0.0080
           7   -0.0280   -0.0286   -0.0891    0.0512    0.0560   -0.0047   -0.0002   -0.0704
           8   -0.0013   -0.0218   -0.0721    0.0432    0.0907   -0.0076    0.0904    0.0777
           9    0.0194    0.0127    0.0680    0.0335   -0.0955    0.0121    0.3504   -0.0007
          10   -0.0104   -0.0076   -0.0342    0.0135   -0.0459    0.0039   -0.0276    0.0239
          11    0.0151   -0.0064   -0.0443    0.0236    0.0440   -0.0037    0.0742    0.1407
          12    0.1321    0.0620    0.0357    0.0852   -0.0451    0.0066    0.1981   -0.0072
          13   -0.0048   -0.0042   -0.0329    0.0143   -0.0701    0.0062   -0.0365    0.0290
          14    0.0339    0.0175    0.0026   -0.0296   -0.0488    0.0038    0.0377    0.1022
          15   -0.1002   -0.0519   -0.0201   -0.0774   -0.0373    0.0053    0.1757   -0.0053
          16   -0.0140   -0.0198   -0.0770    0.0351   -0.0948    0.0096   -0.0156    0.1345
          17    0.0427    0.0283    0.0278   -0.0370   -0.0328    0.0017    0.0300    0.0344
          18    0.0103    0.0218    0.0477    0.1067   -0.0460    0.0053    0.1672   -0.0010
          19   -0.0600   -0.0710   -0.2048    0.1297    0.0976   -0.0051    0.0498    0.2250
          20    0.0556    0.0345    0.0248   -0.0575   -0.0438    0.0021    0.0281   -0.0332
          21    0.4141    0.2020   -0.1938   -0.4376    0.1472   -0.0187   -0.2579   -0.0017
          22   -0.0153   -0.0012    0.1033   -0.0259   -0.0598    0.0038   -0.0178    0.0702
          23    0.0039    0.0029    0.0743   -0.0072    0.1842   -0.0181    0.0762   -0.0329
          24   -0.1641   -0.0906    0.0277    0.0690   -0.0686    0.0042   -0.0656    0.0238
          25   -0.0320   -0.0319   -0.0839    0.0612    0.1029   -0.0094    0.0285   -0.1107
          26    0.0132   -0.0146   -0.1485    0.0116   -0.1685    0.0185   -0.0603   -0.0966
          27    0.0210    0.0206   -0.0397   -0.1323    0.0115   -0.0013   -0.1283    0.0232
          28    0.0088    0.0153    0.0140   -0.0327   -0.2651    0.0244   -0.1328    0.0682
          29    0.0094   -0.0175   -0.0773    0.0526    0.1655   -0.0150    0.1253    0.1346
          30    0.4019    0.1922    0.0314    0.2790    0.0265   -0.0024   -0.3034    0.0031
          31    0.0145    0.0159    0.0045   -0.0189   -0.1475    0.0128   -0.0784   -0.0439
          32    0.0321    0.0222    0.0189   -0.0704   -0.0875    0.0070    0.0042    0.0696
          33   -0.3862   -0.2102   -0.1782   -0.4738    0.0436   -0.0042   -0.1519   -0.0001
          34   -0.0150   -0.0212   -0.0830    0.0353   -0.0995    0.0101   -0.0157    0.1553
          35    0.0671    0.0578    0.1085   -0.0561   -0.0836    0.0045   -0.0109   -0.0334
          36    0.0215    0.0581    0.1763    0.5009    0.0070   -0.0015   -0.1608    0.0084
          37    0.0267    0.0482    0.5124   -0.2148   -0.1899    0.0137    0.0572   -0.0230
          38    0.0168    0.0198    0.2184   -0.0174    0.3178   -0.0397   -0.2281   -0.0638
          39   -0.1554   -0.0821    0.0511    0.0848    0.0194   -0.0082   -0.2199    0.0208
          40    0.0199    0.0417    0.0575   -0.0276   -0.0467    0.0044   -0.0572    0.0363
          41   -0.0910   -0.0340    0.0750    0.0124    0.0963   -0.0086    0.0765   -0.0513
          42   -0.1172   -0.0642    0.0134    0.0650   -0.0217   -0.0000   -0.0798    0.0208
          43    0.1473   -0.2782    0.0191   -0.0020    0.0034    0.0220   -0.0073    0.0004
          44    0.0607   -0.1335    0.0075    0.0030   -0.0067   -0.1136   -0.0007   -0.0015
          45   -0.0095   -0.0063    0.0075    0.0031   -0.0100   -0.1065    0.0042   -0.0003
          46   -0.2080    0.3692   -0.0284   -0.0001    0.0036   -0.0073   -0.0005   -0.0014
          47    0.0939   -0.1664   -0.0093    0.0038    0.0004    0.0094    0.0053    0.0004
          48   -0.1888    0.3141   -0.0088    0.0035   -0.0116   -0.1498    0.0031   -0.0015
          49    0.0068   -0.0267    0.0042    0.0013   -0.0239   -0.2361   -0.0011   -0.0002
          50   -0.0989    0.1701   -0.0049    0.0008    0.0596    0.5804   -0.0079    0.0001
          51    0.1037   -0.2060    0.0289   -0.0026    0.0517    0.5084   -0.0094    0.0004
          52    0.0228   -0.0634    0.0077    0.0015    0.0123    0.1197   -0.0033    0.0003
          53   -0.0715    0.1537   -0.0283    0.0040   -0.0367   -0.3609    0.0090   -0.0002
          54    0.0868   -0.1498    0.0101   -0.0009   -0.0344   -0.3367    0.0022    0.0002
          55    0.1056   -0.2041    0.0101    0.0017    0.0006    0.0075    0.0007    0.0002
          56   -0.0866    0.1539   -0.0189    0.0044    0.0038    0.0355    0.0010    0.0000
          57    0.1370   -0.2648    0.0231   -0.0003    0.0026    0.0290   -0.0041    0.0004
          58    0.1185    0.0940   -0.2920    0.0395   -0.0577    0.0158    0.0070    0.0346
          59   -0.0839   -0.0260   -0.0773    0.0622    0.0902   -0.0045    0.0376   -0.0416
          60    0.0620    0.0175   -0.0132   -0.0125    0.0834    0.0012    0.2763   -0.0982
          61    0.0793    0.0741    0.4309   -0.1957   -0.0556    0.0074    0.0492   -0.0330
          62   -0.2597   -0.1175    0.2317    0.0555    0.0298   -0.0081   -0.2159   -0.0266
          63   -0.2174   -0.1151    0.0470    0.1110   -0.0665    0.0013   -0.2475    0.0480
          64   -0.0541    0.1494   -0.0428    0.0005    0.0092    0.0832    0.0117   -0.0000
          65    0.0876   -0.1870    0.0126    0.0026   -0.0108   -0.1454   -0.0009   -0.0008
          66   -0.1521    0.3118   -0.0413    0.0043   -0.0011    0.0554    0.0087    0.0023
          67   -0.0132    0.0007   -0.0090    0.0132    0.1465   -0.0136    0.0298   -0.1495
          68    0.0276    0.0094   -0.0787    0.0011   -0.1688    0.0186   -0.0400   -0.0933
          69    0.0087    0.0053   -0.0193   -0.0412    0.0436   -0.0039   -0.0281    0.0125
          70   -0.0269   -0.0170   -0.0697    0.0371    0.1161   -0.0103    0.0229   -0.4543
          71    0.0543    0.0497    0.0423   -0.0583   -0.0666    0.0075   -0.0318    0.5040
          72    0.0103   -0.0137   -0.0495   -0.0068   -0.0001    0.0022   -0.0192   -0.1695
          73   -0.0054    0.0121    0.0736    0.0273    0.3525   -0.0347    0.1129   -0.1247
          74    0.0378    0.0126   -0.1013   -0.0385   -0.2585    0.0270   -0.1044   -0.2444
          75    0.0005    0.0039    0.0062   -0.0042    0.1483   -0.0138    0.0332    0.1489
          76   -0.0030    0.0337    0.0646   -0.0767    0.3212   -0.0329   -0.0079    0.0372
          77    0.0128   -0.0043   -0.1206    0.0679   -0.2431    0.0257   -0.0177   -0.3689
          78    0.0046    0.0099   -0.0135   -0.0432    0.0679   -0.0074   -0.0355   -0.0369


   Root No.      25        26        27        28        29        30        31        32

                25 A      26 A      27 A      28 A      29 A      30 A      31 A      32 A   

                   0.8       0.8       0.9       0.9       1.0       1.2       1.3       1.3
  
           1   -0.0747    0.0231   -0.0078   -0.0772    0.0146    0.0096    0.0383    0.0051
           2   -0.1156    0.0223   -0.0358   -0.0784    0.0009    0.2276    0.0960   -0.0428
           3    0.0016   -0.0845   -0.0196    0.0044    0.0502   -0.0087    0.1024   -0.0918
           4   -0.0855    0.0237    0.0175   -0.0503    0.0090    0.0109    0.0524   -0.0106
           5    0.0677   -0.0172   -0.0115   -0.0186    0.0031    0.0164   -0.0195   -0.0491
           6   -0.0251    0.1100    0.0254    0.0016    0.0031    0.0603   -0.2094   -0.2235
           7    0.0036    0.0166   -0.0157    0.0138    0.0177   -0.0632    0.0964   -0.1212
           8   -0.0355    0.0037    0.0171   -0.0532    0.0087    0.0057   -0.0424    0.0036
           9    0.0013   -0.1918   -0.0180    0.0099   -0.0966    0.0210   -0.2856   -0.0455
          10    0.0742   -0.0084    0.0212    0.0078    0.0239   -0.1967   -0.0401   -0.0088
          11   -0.0288   -0.0102    0.0786   -0.0909    0.0206   -0.0554   -0.1032    0.0885
          12    0.0026   -0.2702   -0.0409    0.0256   -0.0084   -0.0389   -0.0033    0.1328
          13    0.0842   -0.0117    0.0419    0.0356    0.0170   -0.2291   -0.0463   -0.0064
          14   -0.1105    0.0087    0.0038   -0.1367    0.0021    0.1897    0.0014    0.0867
          15    0.0134   -0.2742   -0.0390    0.0229    0.0416   -0.0662    0.2482    0.1682
          16   -0.0087    0.0035    0.0674   -0.0957    0.0298   -0.1982   -0.0745    0.0855
          17   -0.0968    0.0123   -0.0123   -0.0663    0.0052    0.1341    0.0330    0.0200
          18    0.0121   -0.2223   -0.0454    0.0087    0.0601   -0.0562    0.3153    0.0829
          19    0.2166   -0.0284    0.0614    0.3526   -0.0796    0.5449    0.0511    0.0545
          20   -0.3030    0.0570   -0.0761   -0.3442    0.0546   -0.0208    0.1169   -0.0776
          21    0.0094   -0.0024    0.0129    0.0099   -0.0506   -0.0009   -0.0692    0.0695
          22   -0.0980    0.0026    0.0375   -0.0307   -0.0031   -0.0122   -0.0815    0.0956
          23    0.1930   -0.0057   -0.0391   -0.0234   -0.0046   -0.0519   -0.0954   -0.0085
          24   -0.0717    0.0541    0.0272    0.0013    0.0034    0.0361   -0.0966   -0.0988
          25   -0.0199    0.0104   -0.0027   -0.0068    0.0375   -0.0421    0.0920   -0.1281
          26   -0.0033    0.0068   -0.0011   -0.0125   -0.0911   -0.0220    0.1469   -0.1496
          27    0.0053    0.0150    0.0058   -0.0173   -0.3265   -0.0668    0.0650    0.0273
          28    0.4897   -0.1591    0.1046   -0.4080   -0.0405    0.1985   -0.0524    0.0063
          29   -0.2650    0.0857    0.0448    0.1263    0.0607   -0.3153   -0.1258    0.0970
          30    0.0083    0.2472    0.0325   -0.0235    0.0127    0.0302    0.0115   -0.0909
          31    0.0494    0.0559   -0.5818    0.4672   -0.0683   -0.1667   -0.0633    0.0008
          32   -0.1601    0.0767   -0.3682    0.0977   -0.0550    0.3179   -0.0236    0.1046
          33    0.0003    0.1956    0.0494   -0.0059   -0.0398    0.0201   -0.1593   -0.1084
          34   -0.0086    0.0037    0.0694   -0.1135    0.0356   -0.2462   -0.0952    0.1111
          35   -0.0120   -0.0274    0.6593    0.4972   -0.0294   -0.0281    0.0585   -0.0288
          36   -0.0139    0.1946    0.0030   -0.0254   -0.0405    0.0419   -0.2040   -0.0529
          37   -0.0783    0.2169    0.0396    0.0196    0.0071    0.0740    0.0985    0.0097
          38    0.1955   -0.4562   -0.1248    0.0130   -0.0094   -0.0944   -0.0497   -0.0666
          39   -0.0683   -0.2070   -0.0188    0.0131   -0.0019    0.0019   -0.1071   -0.1328
          40   -0.1137   -0.0710    0.0293   -0.0150   -0.0128   -0.0110   -0.0961    0.1405
          41    0.2192    0.1344   -0.0312   -0.0225   -0.0044   -0.0608   -0.1462   -0.0583
          42   -0.0712   -0.0194    0.0178    0.0039   -0.0007    0.0325   -0.0710   -0.0636
          43   -0.0041   -0.0048    0.0002    0.0001   -0.0010    0.0009   -0.0004   -0.0021
          44    0.0028   -0.0009   -0.0013    0.0002   -0.0010   -0.0003   -0.0012   -0.0027
          45    0.0034    0.0046   -0.0003   -0.0003    0.0002   -0.0015   -0.0003    0.0011
          46    0.0024    0.0013   -0.0006    0.0002   -0.0012   -0.0003    0.0019   -0.0002
          47    0.0042    0.0056   -0.0002   -0.0013   -0.0018   -0.0029   -0.0044    0.0054
          48    0.0051    0.0023   -0.0014    0.0005    0.0004   -0.0009    0.0020   -0.0020
          49   -0.0022   -0.0015    0.0004    0.0000   -0.0007    0.0001   -0.0010    0.0008
          50   -0.0024   -0.0032   -0.0003    0.0003   -0.0010   -0.0005   -0.0015    0.0008
          51   -0.0024   -0.0028    0.0000    0.0003   -0.0003   -0.0008   -0.0008   -0.0001
          52   -0.0021   -0.0020    0.0003   -0.0003   -0.0005   -0.0004   -0.0007    0.0009
          53    0.0020    0.0056   -0.0003   -0.0000   -0.0005   -0.0003    0.0008    0.0012
          54   -0.0002    0.0025    0.0002    0.0002   -0.0004   -0.0001    0.0000   -0.0004
          55   -0.0013   -0.0003    0.0003   -0.0001   -0.0005    0.0003   -0.0000    0.0001
          56   -0.0001    0.0021   -0.0003    0.0001   -0.0006   -0.0007    0.0002    0.0009
          57   -0.0023   -0.0005    0.0002    0.0005   -0.0003   -0.0001   -0.0004   -0.0010
          58   -0.1159   -0.0680    0.0124    0.0154    0.0096    0.0444    0.1037    0.0021
          59    0.1816    0.0743   -0.0393   -0.0051    0.0049   -0.0276   -0.1229   -0.1903
          60    0.3952    0.4575   -0.0350   -0.0378    0.0029   -0.1200    0.2353    0.2433
          61   -0.0250   -0.0490   -0.0088    0.0244    0.0012    0.0520   -0.0678   -0.1777
          62    0.0824    0.0881   -0.0197   -0.0012    0.0045   -0.0622    0.3203    0.2753
          63   -0.1776   -0.0317    0.0386    0.0109    0.0025    0.0359    0.1843    0.1704
          64    0.0045    0.0084    0.0005   -0.0018   -0.0014   -0.0026   -0.0005    0.0052
          65    0.0002   -0.0009   -0.0006    0.0001   -0.0010    0.0003   -0.0001   -0.0001
          66   -0.0041    0.0009    0.0012    0.0001    0.0004    0.0014    0.0009   -0.0009
          67   -0.0311    0.0003    0.0063   -0.0047    0.0148   -0.0144    0.0959   -0.1683
          68    0.0182   -0.0102   -0.0040    0.0102   -0.0139   -0.0193    0.1176   -0.1700
          69    0.0042    0.0053    0.0001   -0.0029   -0.0604   -0.0250    0.0165    0.0348
          70   -0.0857   -0.0080    0.0396   -0.0337   -0.0910    0.0256    0.1465   -0.2041
          71    0.1141    0.0124   -0.0628    0.0515    0.0158   -0.1396    0.1009   -0.1740
          72    0.0095   -0.0068   -0.0060    0.0355    0.5078    0.0812   -0.0013   -0.0835
          73   -0.1369    0.0116    0.0613   -0.0989   -0.4627    0.0809   -0.1138    0.2408
          74    0.0501   -0.0244    0.0027    0.0388    0.0461   -0.0173   -0.0774    0.1552
          75   -0.0340    0.0192   -0.0010   -0.0400   -0.1813   -0.0241    0.2183   -0.2638
          76   -0.0328    0.0340    0.0063    0.0001    0.5457    0.1410   -0.0433    0.0686
          77    0.0024   -0.0393    0.0225    0.0191   -0.0132    0.0276   -0.1792    0.1792
          78   -0.0010    0.0046    0.0114    0.0039    0.1226    0.0476   -0.1915    0.3297


   Root No.      33        34        35        36        37        38        39        40

                33 A      34 A      35 A      36 A      37 A      38 A      39 A      40 A   

                   1.4       1.5       1.8       1.8       1.9       2.0       2.0       2.0
  
           1    0.0248    0.0171   -0.0133    0.1509   -0.0023    0.0514    0.0268    0.1147
           2    0.0193    0.0145   -0.0115    0.2152   -0.0015   -0.0315   -0.0125   -0.0654
           3   -0.3900   -0.0314   -0.0579   -0.0257    0.0011   -0.3265    0.0461    0.1591
           4    0.0298    0.0426   -0.0173    0.1429   -0.0010    0.0352    0.0163    0.0758
           5   -0.0064   -0.0003   -0.0021    0.0383    0.0033   -0.0836   -0.0328   -0.1277
           6   -0.1185   -0.0352    0.0022    0.0130    0.0013   -0.2003    0.0194    0.0631
           7    0.0259    0.0255   -0.0194    0.2445   -0.0011   -0.0067   -0.0031   -0.0104
           8   -0.0012   -0.0116    0.0053   -0.0504    0.0035   -0.0729   -0.0341   -0.1317
           9    0.3967   -0.0132    0.0009    0.0247    0.0009   -0.2730    0.0388    0.1326
          10   -0.0112   -0.0718    0.0033    0.0443   -0.0004   -0.0498   -0.0272   -0.1241
          11   -0.0225   -0.0969    0.0218   -0.2073    0.0031   -0.0743   -0.0527   -0.2207
          12    0.3512    0.0386    0.0690    0.0375   -0.0008    0.1962   -0.0217   -0.0694
          13   -0.0051   -0.0692   -0.0024    0.0445   -0.0006   -0.0392   -0.0198   -0.0919
          14   -0.0022   -0.0380    0.0206   -0.1388   -0.0023    0.0866    0.0380    0.1517
          15   -0.0252    0.0452    0.0124    0.0029   -0.0011    0.3459   -0.0484   -0.1621
          16   -0.0068   -0.0878    0.0120   -0.1253   -0.0039    0.1113    0.0621    0.2566
          17   -0.0075   -0.0211    0.0062    0.0160   -0.0016    0.0104    0.0058    0.0112
          18   -0.3673    0.0097   -0.0710   -0.0332   -0.0001    0.0047    0.0026    0.0132
          19    0.0014   -0.0781    0.0102    0.0879   -0.0039    0.0107    0.0029   -0.0070
          20    0.0583    0.0810   -0.0320    0.4043   -0.0022    0.0041    0.0015   -0.0005
          21    0.2555    0.0184    0.0293    0.0018   -0.0008    0.1318   -0.0190   -0.0617
          22   -0.0408    0.3940   -0.0135   -0.0113    0.0092   -0.0183   -0.0022    0.0368
          23   -0.0477    0.1809   -0.0065   -0.0049    0.0081   -0.0600   -0.0185   -0.0331
          24   -0.0769    0.0121    0.0088    0.0116   -0.0019    0.2233   -0.0231   -0.0835
          25    0.0386    0.0279    0.0083    0.2001   -0.0004   -0.0198   -0.0072   -0.0278
          26    0.0159    0.0401   -0.0951   -0.1116    0.0019    0.0409   -0.0175   -0.0534
          27   -0.0832   -0.0286   -0.4092   -0.0045   -0.0013    0.0725   -0.0066   -0.0260
          28   -0.0243   -0.0111    0.0070   -0.1535    0.0057   -0.1134   -0.0722   -0.2918
          29   -0.0388   -0.1847    0.0233   -0.1908    0.0013   -0.1037   -0.0702   -0.3121
          30   -0.2325   -0.0156   -0.0350   -0.0122    0.0010   -0.0886    0.0106    0.0360
          31   -0.0283    0.0519   -0.0150   -0.0049    0.0044   -0.0647   -0.0399   -0.1519
          32   -0.0132    0.0302    0.0232   -0.2583   -0.0002    0.0957    0.0577    0.2454
          33    0.0238   -0.0238   -0.0102    0.0113    0.0009   -0.1777    0.0196    0.0644
          34   -0.0116   -0.1233    0.0158   -0.1762   -0.0062    0.1760    0.1018    0.4207
          35    0.0088    0.1145   -0.0167    0.0478    0.0014    0.0323    0.0227    0.1049
          36    0.2176   -0.0075    0.0397    0.0137   -0.0003   -0.0026   -0.0027   -0.0088
          37    0.0278   -0.1551    0.0076   -0.0070   -0.0059    0.0738   -0.0235   -0.1331
          38   -0.0006   -0.0828   -0.0180    0.0512   -0.0059   -0.1812    0.0778    0.2532
          39   -0.0678   -0.0480    0.0014    0.0415   -0.0084    0.1670    0.0288    0.0895
          40   -0.0503    0.6117   -0.0106   -0.0760    0.0155   -0.1302   -0.0201   -0.0254
          41   -0.1015    0.2587   -0.0005    0.0119    0.0049    0.2147   -0.0085    0.0216
          42   -0.0540    0.0442    0.0086   -0.0130    0.0001    0.1071   -0.0322   -0.1239
          43    0.0006   -0.0114   -0.0011    0.0044    0.4801    0.0040   -0.1000    0.0298
          44   -0.0000   -0.0073   -0.0004    0.0024    0.1245   -0.0002   -0.2585    0.0663
          45   -0.0022    0.0083    0.0005   -0.0010    0.0586    0.0051    0.2521   -0.0616
          46    0.0022   -0.0081   -0.0006    0.0012   -0.0203   -0.0004   -0.0486    0.0127
          47   -0.0016    0.0277    0.0009   -0.0048   -0.3073    0.0066    0.4466   -0.1147
          48   -0.0007   -0.0037    0.0004   -0.0006   -0.1082    0.0031    0.1870   -0.0458
          49   -0.0007    0.0065    0.0004   -0.0022   -0.3575   -0.0069   -0.1420    0.0319
          50   -0.0013    0.0035    0.0003   -0.0011   -0.2842   -0.0079   -0.2420    0.0578
          51   -0.0017    0.0026   -0.0004    0.0002    0.1830    0.0050    0.2234   -0.0537
          52   -0.0012    0.0042    0.0001    0.0009    0.2524    0.0064    0.2468   -0.0589
          53   -0.0003    0.0017   -0.0002   -0.0001    0.1303    0.0027    0.0835   -0.0203
          54   -0.0010    0.0023   -0.0002   -0.0012   -0.0506   -0.0010    0.0018   -0.0016
          55   -0.0015    0.0020    0.0009   -0.0007   -0.1838   -0.0055   -0.1582    0.0378
          56   -0.0014    0.0011   -0.0002    0.0009    0.2335    0.0053    0.1632   -0.0386
          57   -0.0025    0.0013    0.0002   -0.0017   -0.3462   -0.0090   -0.2548    0.0603
          58    0.0708   -0.2526   -0.0008    0.0060   -0.0045   -0.1468    0.0061   -0.0040
          59   -0.0933   -0.1323    0.0091    0.0616   -0.0045    0.3635   -0.0098   -0.0011
          60    0.1303    0.0295   -0.0106    0.0175    0.0013   -0.0041    0.0271    0.1285
          61   -0.0442   -0.2857    0.0108    0.0368   -0.0064    0.1143   -0.0054   -0.0361
          62    0.1975   -0.1133   -0.0142   -0.0012    0.0018   -0.2154    0.0318    0.1284
          63    0.1058   -0.0259    0.0015   -0.0550    0.0005   -0.1683   -0.0284   -0.1498
          64    0.0001    0.0163    0.0001   -0.0027   -0.1695    0.0010    0.2072   -0.0528
          65    0.0009   -0.0030   -0.0007    0.0007    0.0952   -0.0041   -0.1824    0.0457
          66   -0.0001   -0.0124   -0.0007    0.0031    0.2680   -0.0076   -0.4169    0.1058
          67    0.0931    0.0228   -0.0500   -0.0030   -0.0013   -0.0181    0.0096    0.0297
          68    0.0625    0.0403    0.1445   -0.2243    0.0018    0.0066   -0.0016    0.0005
          69   -0.0733    0.0004    0.3504    0.1073    0.0004   -0.0210    0.0030    0.0108
          70    0.0733    0.0290    0.1919   -0.2099    0.0007   -0.0155    0.0106    0.0354
          71    0.0889    0.0330   -0.1048    0.1978   -0.0020   -0.0232    0.0052    0.0139
          72    0.1211    0.0169   -0.2803   -0.1366    0.0004    0.0136    0.0008    0.0026
          73   -0.1424   -0.0983   -0.1024   -0.0351   -0.0003    0.0299   -0.0098   -0.0340
          74   -0.1229   -0.0606    0.5002    0.1090   -0.0005   -0.0235    0.0049    0.0154
          75    0.0709    0.0853    0.1783   -0.2785    0.0033    0.0152   -0.0057   -0.0099
          76   -0.0200    0.0008   -0.0219   -0.1565    0.0013    0.0212   -0.0112   -0.0327
          77    0.0102   -0.0752   -0.4525    0.0366   -0.0025    0.0121    0.0028    0.0035
          78   -0.1760   -0.0694    0.1719    0.2772   -0.0011   -0.0106   -0.0016   -0.0080


   Root No.      41        42        43        44        45        46        47        48

                41 A      42 A      43 A      44 A      45 A      46 A      47 A      48 A   

                   2.4       2.9       3.3       3.4       3.4       3.6       3.8       4.2
  
           1   -0.1528   -0.0281   -0.0715   -0.0066    0.1284   -0.0666    0.0070   -0.1839
           2    0.0319    0.2027    0.0409    0.0033   -0.0658    0.0127    0.0502    0.0776
           3   -0.0285   -0.0062    0.4227   -0.0029    0.0717   -0.2729    0.0238   -0.0354
           4   -0.1630   -0.0948   -0.0841   -0.0081    0.1616   -0.0601   -0.0744   -0.1085
           5   -0.0343   -0.2214   -0.0088    0.0072   -0.1495    0.0218    0.0372   -0.0658
           6   -0.0576   -0.0627    0.1133   -0.0034    0.0955    0.5321    0.1689   -0.0072
           7    0.0030   -0.1760    0.0668    0.0072   -0.1245    0.0967   -0.2345    0.1511
           8   -0.1044   -0.2305   -0.0678   -0.0013    0.0215   -0.0310   -0.0140   -0.2095
           9   -0.0166    0.0914   -0.4376    0.0066   -0.1565   -0.0821   -0.1628    0.0117
          10    0.1005    0.1564    0.0605    0.0038   -0.0633    0.0696   -0.0716    0.2640
          11    0.0279   -0.0264   -0.0352   -0.0067    0.1339   -0.0564    0.0205   -0.1622
          12   -0.0539   -0.0413    0.4954   -0.0033    0.0702   -0.3058   -0.0359    0.0559
          13    0.0512    0.1961    0.0560    0.0056   -0.1056    0.0461   -0.0067    0.2380
          14    0.1496   -0.0057    0.0399    0.0024   -0.0389    0.0640   -0.0505    0.1528
          15    0.0173   -0.0542   -0.0551   -0.0023    0.0657    0.4812    0.1980   -0.0758
          16    0.0068   -0.0052    0.0119    0.0038   -0.0753    0.0048    0.0395   -0.0168
          17    0.1366    0.1502    0.0661    0.0062   -0.1174    0.0631   -0.0109    0.2502
          18    0.0600    0.0696   -0.4229    0.0051   -0.1257   -0.1976   -0.1819    0.0584
          19    0.0936    0.3128    0.0317    0.0028   -0.0524   -0.0094    0.1434   -0.0250
          20   -0.1598    0.2747   -0.0551   -0.0032    0.0421   -0.0833    0.2356   -0.2109
          21    0.0137   -0.0035   -0.1319    0.0015   -0.0237    0.0853   -0.0112    0.0101
          22   -0.0940   -0.1175   -0.1657   -0.0201    0.3745   -0.1401    0.2626    0.4946
          23   -0.0146   -0.2258   -0.0396    0.0083   -0.1806   -0.0501    0.3577    0.2119
          24    0.0054    0.0058   -0.0430   -0.0046    0.0912   -0.0628   -0.0530    0.0586
          25    0.0470   -0.2714    0.0558    0.0057   -0.0923    0.0936   -0.3008    0.1217
          26   -0.3453   -0.0935    0.0903    0.0070   -0.1241    0.0980   -0.2504    0.0355
          27    0.0804    0.0222    0.0856   -0.0019    0.0350    0.0087    0.0768    0.0285
          28   -0.0300   -0.0697   -0.0338   -0.0083    0.1709   -0.0444   -0.0579   -0.1212
          29    0.1697    0.1751    0.0030   -0.0096    0.2047   -0.0052   -0.1265    0.0239
          30    0.0159    0.0108   -0.1509    0.0009   -0.0252    0.0853    0.0083   -0.0110
          31   -0.1942    0.0359   -0.0575   -0.0018    0.0245   -0.0565    0.1500   -0.1821
          32    0.1138   -0.2818   -0.0060   -0.0047    0.1001    0.0114   -0.2050    0.0439
          33   -0.0175    0.0316    0.0125    0.0008   -0.0245   -0.1371   -0.0437    0.0107
          34    0.0118    0.0073    0.0349    0.0127   -0.2585    0.0123    0.1976   -0.1557
          35   -0.1385   -0.1087   -0.0462   -0.0045    0.0789   -0.0415    0.0047   -0.1156
          36   -0.0198   -0.0199    0.1301   -0.0010    0.0325    0.0577    0.0464   -0.0111
          37    0.0538    0.0189    0.0336    0.0049   -0.1263   -0.0195   -0.0999   -0.1193
          38   -0.0413    0.0759    0.0560   -0.0036    0.0297    0.1438    0.0188   -0.0582
          39   -0.0272    0.1620   -0.0244   -0.0137    0.3084    0.0258   -0.2237    0.0019
          40    0.1575    0.1923    0.1365    0.0102   -0.1753    0.1261   -0.2136   -0.2508
          41    0.0662    0.1272    0.0386    0.0044   -0.0578   -0.0010   -0.1145   -0.1089
          42    0.0452   -0.0592    0.0008    0.0076   -0.1705   -0.0724    0.0384   -0.0228
          43    0.0015    0.0026    0.0016   -0.4947   -0.0224    0.0011   -0.0023    0.0003
          44    0.0024    0.0037    0.0002    0.1429    0.0061   -0.0021   -0.0011   -0.0016
          45   -0.0008   -0.0004    0.0005   -0.3639   -0.0181    0.0020   -0.0012   -0.0004
          46   -0.0015   -0.0011   -0.0003    0.0778    0.0053   -0.0007    0.0010    0.0010
          47   -0.0037   -0.0029   -0.0002   -0.0907   -0.0055   -0.0004   -0.0003    0.0002
          48   -0.0028   -0.0022   -0.0014   -0.1433   -0.0047    0.0000    0.0009    0.0016
          49   -0.0003   -0.0005   -0.0008    0.3742    0.0179   -0.0015    0.0012    0.0000
          50    0.0012    0.0015    0.0014   -0.3044   -0.0146    0.0019   -0.0020   -0.0010
          51   -0.0013   -0.0014   -0.0017    0.5015    0.0236   -0.0012    0.0020    0.0004
          52   -0.0010   -0.0008   -0.0001    0.1606    0.0073   -0.0003    0.0001   -0.0007
          53    0.0001    0.0001    0.0002    0.0455    0.0013    0.0003   -0.0003   -0.0008
          54    0.0005   -0.0002   -0.0002    0.0117   -0.0003    0.0005    0.0006    0.0001
          55    0.0005    0.0006    0.0006   -0.0888   -0.0041    0.0003   -0.0004   -0.0003
          56   -0.0006   -0.0003    0.0001    0.0551    0.0023    0.0004   -0.0001   -0.0002
          57    0.0013    0.0009    0.0002   -0.0989   -0.0046    0.0013   -0.0004   -0.0004
          58   -0.0540   -0.0810   -0.0120   -0.0022    0.0719    0.0720    0.0498    0.0558
          59   -0.0163    0.0021   -0.0624    0.0040   -0.0676   -0.2290    0.0292    0.0059
          60   -0.0252    0.0814   -0.0124   -0.0048    0.1058   -0.0172   -0.0587   -0.0018
          61   -0.0308   -0.0590   -0.0305    0.0004   -0.0144   -0.0518    0.0568    0.0387
          62   -0.0482    0.0495   -0.0016   -0.0067    0.2000    0.0951   -0.0681    0.0329
          63    0.0373   -0.1837    0.0099    0.0131   -0.3718   -0.1285    0.2243   -0.0144
          64   -0.0017   -0.0016    0.0003   -0.0319   -0.0014    0.0004    0.0001    0.0003
          65    0.0025    0.0013    0.0007    0.1489    0.0067    0.0015   -0.0002   -0.0008
          66    0.0035    0.0036    0.0005    0.0964    0.0042    0.0010   -0.0005   -0.0008
          67    0.3441   -0.0852   -0.0212   -0.0038    0.0828   -0.0289    0.0371   -0.0401
          68   -0.1645    0.1454    0.0007    0.0021   -0.0429    0.0082    0.0112    0.0311
          69    0.1004   -0.0549   -0.0070   -0.0010    0.0227   -0.0078   -0.0019   -0.0205
          70    0.3543   -0.0137   -0.0469   -0.0087    0.1656   -0.0843    0.1847   -0.1933
          71    0.3015   -0.1380   -0.0075   -0.0032    0.0693   -0.0189    0.0134   -0.0720
          72    0.0386    0.0220   -0.0073   -0.0020    0.0285   -0.0175    0.0449   -0.0314
          73   -0.2187    0.0108    0.0176    0.0021   -0.0360    0.0191   -0.0406   -0.0099
          74   -0.0094    0.0719   -0.0046    0.0015   -0.0297    0.0022    0.0231    0.0979
          75   -0.2110    0.1538    0.0106    0.0027   -0.0559    0.0131    0.0178    0.1041
          76   -0.2834    0.0720    0.0166    0.0032   -0.0591    0.0218   -0.0280    0.0420
          77    0.0776    0.0538   -0.0029    0.0000   -0.0022   -0.0055    0.0423    0.0435
          78    0.0426   -0.1650    0.0138   -0.0010    0.0265    0.0088   -0.0762   -0.1089


   Root No.      49        50        51        52        53        54        55        56

                49 A      50 A      51 A      52 A      53 A      54 A      55 A      56 A   

                   4.8       5.2       5.6       6.7       7.0       7.2       7.7       8.5
  
           1   -0.0745   -0.1880    0.0866   -0.2028    0.0187   -0.1661   -0.0007   -0.2662
           2    0.0271    0.1116   -0.0632   -0.1196   -0.0116    0.1835   -0.0047   -0.2715
           3   -0.3991    0.1474   -0.0902    0.0216    0.0018   -0.0264    0.0004   -0.0011
           4   -0.0845   -0.1580    0.0860   -0.2472    0.0130   -0.0836   -0.0020   -0.2649
           5    0.0776    0.0466   -0.2721   -0.0523    0.0022   -0.0674    0.0037    0.1407
           6    0.3532   -0.2170    0.1863   -0.0591   -0.0068    0.0833   -0.0002    0.0336
           7   -0.0471   -0.0812   -0.0400    0.0981   -0.0028    0.0087    0.0006   -0.0612
           8    0.0482    0.0613   -0.2330   -0.2090   -0.0039    0.0530    0.0010    0.2169
           9   -0.2750    0.1410   -0.0277    0.0444    0.0008   -0.0119   -0.0001   -0.0126
          10   -0.0586   -0.0207    0.0851   -0.0547    0.0194   -0.2475    0.0051    0.2088
          11    0.0426    0.0281   -0.1089   -0.2207    0.0010    0.0038    0.0013    0.3107
          12    0.3224   -0.1047    0.0271   -0.0099    0.0000   -0.0031    0.0002   -0.0043
          13   -0.0098    0.0512    0.0666   -0.1464    0.0217   -0.2626    0.0052    0.2183
          14   -0.0174    0.0793   -0.0021   -0.2540   -0.0004    0.0723   -0.0035   -0.1806
          15   -0.3942    0.1029   -0.0320    0.0176    0.0006   -0.0106    0.0002    0.0064
          16   -0.0086   -0.0215    0.0422   -0.1681    0.0195   -0.2105    0.0022    0.0368
          17    0.0519    0.1796   -0.0527   -0.2431   -0.0086    0.1632   -0.0040   -0.1348
          18    0.4171   -0.1276    0.0483   -0.0043   -0.0006    0.0005    0.0004    0.0061
          19    0.0321    0.0287    0.0309    0.1847   -0.0023   -0.0178    0.0019    0.1587
          20    0.0206   -0.0675    0.0610    0.3211    0.0024   -0.1083    0.0042    0.2737
          21    0.0737   -0.0267    0.0174   -0.0106   -0.0008    0.0065    0.0002   -0.0045
          22   -0.0145    0.1234    0.0549    0.0286   -0.0175    0.2227   -0.0023    0.1476
          23    0.0593    0.0053   -0.0505    0.1777    0.0194   -0.2985    0.0053   -0.2573
          24    0.0444    0.1200   -0.2052    0.0821    0.0117   -0.1307   -0.0001   -0.0586
          25   -0.0383   -0.0313   -0.0904    0.1448   -0.0202    0.2206   -0.0024    0.1009
          26    0.0698    0.3498    0.2545    0.1219   -0.0067    0.0764   -0.0012    0.0505
          27    0.0015   -0.1170   -0.0666   -0.0240    0.0012   -0.0166    0.0004   -0.0005
          28   -0.0190   -0.0715    0.0541    0.1971   -0.0104    0.1091   -0.0021   -0.1512
          29   -0.0793   -0.1228    0.1941    0.3389   -0.0119    0.1216   -0.0032   -0.2905
          30   -0.0542    0.0185   -0.0047   -0.0033    0.0001   -0.0013   -0.0000    0.0060
          31    0.0677    0.1035   -0.0926   -0.1032   -0.0107    0.1594   -0.0034   -0.1083
          32   -0.0997   -0.2216    0.1260    0.2344    0.0144   -0.2366    0.0057    0.1969
          33    0.0775   -0.0073   -0.0012   -0.0125   -0.0009    0.0115   -0.0002   -0.0085
          34    0.1283    0.1487   -0.1752    0.3151   -0.0308    0.3109   -0.0027   -0.0263
          35   -0.0158   -0.0576    0.0118    0.0313    0.0005   -0.0092    0.0000   -0.0179
          36   -0.0717    0.0215   -0.0068    0.0007   -0.0005    0.0019    0.0002    0.0009
          37   -0.0074    0.0122   -0.0694   -0.0040    0.0060   -0.0396   -0.0011   -0.0051
          38    0.0016   -0.1206    0.1760   -0.0474    0.0040    0.0483   -0.0052   -0.0192
          39    0.0327    0.1148   -0.1544   -0.0091   -0.0018    0.0479   -0.0019    0.0821
          40   -0.0089   -0.0525    0.0249   -0.0650   -0.0120    0.0634    0.0039    0.0722
          41    0.0044   -0.0054   -0.0528    0.0422    0.0176   -0.1418   -0.0062   -0.1464
          42    0.0057    0.0274   -0.1093    0.0875    0.0108   -0.2093    0.0066   -0.1508
          43   -0.0003    0.0006   -0.0000   -0.0033   -0.2639   -0.0223    0.0358   -0.0197
          44   -0.0036   -0.0027    0.0082   -0.0100   -0.3653   -0.0158    0.2699    0.0420
          45    0.0002    0.0002   -0.0005    0.0033    0.2759    0.0237   -0.2491    0.0464
          46    0.0007    0.0001   -0.0002    0.0026    0.1943    0.0163   -0.1012    0.0206
          47    0.0000    0.0006   -0.0006   -0.0005   -0.0595   -0.0053    0.0277   -0.0049
          48   -0.0007    0.0004    0.0006   -0.0049   -0.3946   -0.0330    0.2069   -0.0423
          49   -0.0005   -0.0006    0.0017   -0.0028   -0.1866   -0.0157   -0.1002   -0.0007
          50    0.0004    0.0004   -0.0009    0.0014    0.0822    0.0067    0.0341   -0.0002
          51   -0.0006   -0.0005    0.0016   -0.0024   -0.1697   -0.0143   -0.0803   -0.0015
          52    0.0005    0.0001   -0.0012    0.0046    0.3877    0.0368    0.4652   -0.0015
          53   -0.0002   -0.0001    0.0001    0.0003    0.0746    0.0103    0.3286   -0.0037
          54    0.0001    0.0000   -0.0007    0.0020    0.0699    0.0025   -0.1912    0.0039
          55    0.0000   -0.0002    0.0003   -0.0014   -0.1403   -0.0151   -0.2930    0.0022
          56   -0.0001   -0.0000    0.0003   -0.0015   -0.1875   -0.0204   -0.3994    0.0031
          57   -0.0001    0.0001   -0.0001    0.0015    0.1587    0.0173    0.3433   -0.0028
          58    0.0880    0.0553   -0.1354    0.0663    0.0093   -0.1260    0.0010   -0.0786
          59   -0.1930   -0.1079    0.2994   -0.1383   -0.0180    0.2722   -0.0017    0.1658
          60   -0.0388   -0.0132    0.0629   -0.0419   -0.0054    0.0852   -0.0009    0.0522
          61   -0.0198   -0.0122    0.0383   -0.0059    0.0003    0.0203   -0.0012    0.0049
          62    0.0749    0.0803   -0.1468    0.0444    0.0001   -0.0705    0.0048   -0.0187
          63   -0.1298   -0.1633    0.3072   -0.0851   -0.0032    0.1522   -0.0077    0.0482
          64    0.0006    0.0002   -0.0007    0.0005    0.0104    0.0000   -0.0077   -0.0013
          65    0.0025    0.0012   -0.0058    0.0102    0.4506    0.0254   -0.2589   -0.0354
          66    0.0000   -0.0003    0.0003    0.0009    0.0548    0.0036   -0.0268   -0.0041
          67   -0.0148   -0.0973   -0.1071    0.0557   -0.0130    0.1598   -0.0029   -0.0038
          68    0.0155    0.1391    0.1685    0.0191    0.0119   -0.1487    0.0022   -0.0707
          69   -0.0061   -0.0475   -0.0656    0.0001   -0.0050    0.0539   -0.0001    0.0028
          70    0.0958    0.2181    0.1490   -0.0854    0.0100   -0.1130    0.0017    0.0100
          71    0.0389    0.1001    0.0567   -0.0201    0.0014   -0.0177    0.0004    0.0179
          72    0.0170    0.0346    0.0264   -0.0156    0.0021   -0.0231    0.0002   -0.0003
          73    0.0148    0.0650    0.0483    0.0000    0.0015   -0.0191    0.0004   -0.0011
          74   -0.0759   -0.2818   -0.2132   -0.0082   -0.0056    0.0675   -0.0009    0.0228
          75   -0.0660   -0.2393   -0.1759   -0.0072   -0.0041    0.0490   -0.0007    0.0200
          76   -0.0220   -0.0721   -0.0566   -0.0081   -0.0012    0.0111    0.0002    0.0091
          77   -0.0502   -0.1954   -0.1540   -0.0183   -0.0034    0.0359   -0.0000    0.0108
          78    0.0910    0.3355    0.2629    0.0280    0.0051   -0.0585    0.0003   -0.0168


   Root No.      57        58        59        60        61        62        63        64

                57 A      58 A      59 A      60 A      61 A      62 A      63 A      64 A   

                   8.7       8.8       9.0       9.6      10.0      10.9      11.1      12.7
  
           1    0.0241   -0.0083   -0.0276    0.0833    0.0041    0.0010   -0.0877   -0.0089
           2    0.0239   -0.0181   -0.1830    0.2705    0.0455    0.0036   -0.2084    0.0356
           3    0.0003    0.0001    0.0048   -0.0058    0.0024    0.0001    0.0047   -0.0011
           4    0.0227   -0.0101   -0.0540    0.1256    0.0102    0.0023   -0.1296    0.0714
           5   -0.0069   -0.0111   -0.1340    0.1498   -0.0071   -0.0053    0.2672   -0.4799
           6   -0.0048    0.0038   -0.0076    0.0114   -0.0347   -0.0004    0.0009    0.0037
           7    0.0087   -0.0147   -0.1649    0.0545   -0.0162   -0.0042    0.2557   -0.1577
           8   -0.0184    0.0021   -0.0416    0.0334    0.0272   -0.0002    0.0659   -0.0363
           9    0.0014   -0.0145   -0.0094   -0.0259    0.0047    0.0003   -0.0101    0.0033
          10   -0.0146   -0.0004   -0.0870    0.1372    0.0416    0.0018   -0.0893    0.0583
          11   -0.0294    0.0084    0.1114    0.0655    0.0570    0.0043   -0.1773    0.4112
          12    0.0004    0.0041   -0.0051    0.0050   -0.0016   -0.0002    0.0074   -0.0127
          13   -0.0165    0.0005   -0.0376    0.1387    0.0335    0.0032   -0.1896   -0.0881
          14    0.0116    0.0094    0.1974   -0.2835   -0.0689   -0.0040    0.2027    0.0031
          15   -0.0005    0.0005   -0.0086    0.0134    0.0032    0.0003   -0.0100   -0.0032
          16   -0.0053    0.0181    0.2677   -0.3425   -0.0860   -0.0044    0.2040   -0.1612
          17    0.0096   -0.0002   -0.0036   -0.0303    0.0013    0.0001    0.0164   -0.0164
          18   -0.0006    0.0001    0.0014   -0.0017   -0.0008    0.0001    0.0024    0.0004
          19   -0.0142    0.0090    0.0750   -0.1063   -0.0139   -0.0008    0.0487    0.0122
          20   -0.0232    0.0132    0.1116   -0.1533   -0.0224   -0.0016    0.0914   -0.0032
          21    0.0002   -0.0002   -0.0026    0.0030   -0.0006    0.0003   -0.0019   -0.0001
          22   -0.0145    0.0046   -0.0338    0.0130    0.0656    0.0002    0.0576   -0.0503
          23    0.0255   -0.0017    0.0759   -0.0531   -0.1418    0.0004   -0.1234    0.1193
          24    0.0074   -0.0019    0.0139   -0.0129   -0.0007   -0.0020   -0.0084    0.0020
          25   -0.0112    0.0142    0.0167   -0.2383    0.0028   -0.0008    0.1123    0.5320
          26   -0.0088    0.0021    0.1736   -0.1620   -0.0035    0.0064   -0.4155   -0.2095
          27    0.0012   -0.0340   -0.0527    0.0378    0.0005   -0.0021    0.1382    0.0981
          28    0.0130   -0.0031   -0.0265   -0.0320   -0.0182   -0.0012    0.0524   -0.0668
          29    0.0250   -0.0054   -0.0372   -0.0692   -0.0372   -0.0021    0.0819   -0.1279
          30   -0.0006   -0.0007    0.0004    0.0008    0.0010   -0.0000   -0.0027    0.0028
          31    0.0066    0.0036    0.0834   -0.1110   -0.0235   -0.0012    0.0672    0.0259
          32   -0.0126   -0.0052   -0.1186    0.1705    0.0376    0.0020   -0.1091   -0.0179
          33    0.0003   -0.0000    0.0063   -0.0088   -0.0018   -0.0000    0.0050    0.0014
          34    0.0035   -0.0137   -0.2029    0.2221    0.0509    0.0023   -0.0968    0.0699
          35    0.0018   -0.0007   -0.0012    0.0000   -0.0014   -0.0001    0.0027    0.0045
          36   -0.0003   -0.0001   -0.0010    0.0012   -0.0000    0.0003   -0.0009    0.0001
          37    0.0030   -0.0034   -0.0080    0.0051   -0.0157   -0.0013    0.0067   -0.0164
          38    0.0009    0.0031    0.0089   -0.0121    0.0197   -0.0014   -0.0301    0.0530
          39   -0.0030   -0.0013   -0.0297    0.0160    0.0935    0.0017    0.0650   -0.0963
          40   -0.0117   -0.0055   -0.0413    0.0468   -0.2450   -0.0043    0.0137   -0.0353
          41    0.0145   -0.0058    0.0669   -0.1047    0.6419    0.0132   -0.0073    0.0422
          42    0.0141   -0.0019    0.0359    0.0034   -0.3987   -0.0066   -0.1186    0.1478
          43   -0.2001    0.0006   -0.0018   -0.0007    0.0082   -0.1753   -0.0021   -0.0001
          44    0.5184   -0.0022    0.0080   -0.0015    0.0018    0.1788    0.0017    0.0003
          45    0.4848   -0.0009    0.0053    0.0007   -0.0051   -0.2971   -0.0060    0.0009
          46    0.2106   -0.0003    0.0019    0.0003   -0.0031   -0.0447   -0.0011    0.0002
          47   -0.0483    0.0000   -0.0009   -0.0001   -0.0018    0.0081    0.0000    0.0000
          48   -0.4315    0.0009   -0.0042   -0.0007    0.0073    0.0947    0.0025   -0.0006
          49   -0.0038    0.0001    0.0001   -0.0005    0.0063   -0.2611   -0.0039    0.0002
          50   -0.0038    0.0000   -0.0002    0.0001   -0.0029    0.1164    0.0017   -0.0002
          51   -0.0123    0.0001   -0.0000   -0.0005    0.0057   -0.2378   -0.0036    0.0002
          52   -0.0014   -0.0002    0.0001    0.0004   -0.0072    0.3729    0.0055   -0.0004
          53   -0.0141   -0.0001    0.0005   -0.0013    0.0105   -0.3802   -0.0058    0.0004
[...]
 REDUCED MASS        0.7117         C  1 -- H  7         +10.8% ( 35.7%)      0.0%
 EFFECTIVE MASS      4.8357
 FORCE CONSTANT      0.4471

 VIBRATION         38   38A           ATOM PAIR      ENERGY CONTRIBUTION    RADIAL
 FREQUENCY          1069.77         C 23 -- H 26         +18.0% ( 60.6%)      4.3%
 TRANSITION DIPOLE   0.6990         C 23 -- H 24         +16.9% ( 58.6%)     27.2%
 TRAVEL (Ang.)       0.3138         O  9 -- C 23         +11.5% ( 48.4%)     49.6%
 REDUCED MASS        0.6403         C 23 -- H 25          +8.6% ( 41.9%)      5.9%
 EFFECTIVE MASS      6.9457
 FORCE CONSTANT      0.4317

 VIBRATION         39   39A           ATOM PAIR      ENERGY CONTRIBUTION    RADIAL
 FREQUENCY          1080.17         C 23 -- H 25         +40.0% ( 78.4%)      9.6%
 TRANSITION DIPOLE   0.1393         C 23 -- H 26         +24.6% ( 61.5%)     11.0%
 TRAVEL (Ang.)       0.3290         C 23 -- H 24         +17.2% ( 51.4%)      6.1%
 REDUCED MASS        0.5767         O  9 -- C 23          +9.7% ( 38.6%)     13.1%
 EFFECTIVE MASS      3.4924
 FORCE CONSTANT      0.3964

 VIBRATION         40   40A           ATOM PAIR      ENERGY CONTRIBUTION    RADIAL
 FREQUENCY          1153.16         O 15 -- H 16         +71.2% ( 72.5%)      5.5%
 TRANSITION DIPOLE   1.1518         O 15 -- H 22         +28.4% ( 45.8%)     19.7%
 TRAVEL (Ang.)       0.2585         H 17 -- O 18          +0.2% (  3.3%)     46.0%
 REDUCED MASS        0.8753
 EFFECTIVE MASS      2.9138
 FORCE CONSTANT      0.6858

 VIBRATION         41   41A           ATOM PAIR      ENERGY CONTRIBUTION    RADIAL
 FREQUENCY          1164.24         O  9 -- C 23         +28.5% ( 73.3%)     79.9%
 TRANSITION DIPOLE   0.7047         C 23 -- H 24         +19.5% ( 60.6%)      1.8%
 TRAVEL (Ang.)       0.1581         C 23 -- H 25         +13.1% ( 49.6%)     17.5%
 REDUCED MASS        2.3159         C 23 -- H 26         +12.3% ( 48.1%)     47.3%
 EFFECTIVE MASS      9.3290
 FORCE CONSTANT      1.8495

 VIBRATION         42   42A           ATOM PAIR      ENERGY CONTRIBUTION    RADIAL
 FREQUENCY          1181.58         C  1 -- H  7         +20.5% ( 59.3%)      5.2%
 TRANSITION DIPOLE   0.4809         C  4 -- H 10         +19.4% ( 57.7%)      1.4%
 TRAVEL (Ang.)       0.3498         C  5 -- C  6         +16.5% ( 53.1%)     99.6%
 REDUCED MASS        0.4663         C  1 -- C  6          +8.0% ( 37.0%)     44.0%
 EFFECTIVE MASS      5.4747
 FORCE CONSTANT      0.3836

 VIBRATION         43   43A           ATOM PAIR      ENERGY CONTRIBUTION    RADIAL
 FREQUENCY          1190.48         O  9 -- C 23         +11.1% ( 45.3%)     72.9%
 TRANSITION DIPOLE   0.7183         C  4 -- H 10          +9.4% ( 41.8%)     39.4%
 TRAVEL (Ang.)       0.2688         C  3 -- C  4          +9.4% ( 41.7%)     31.2%
 REDUCED MASS        0.7838         C  6 -- H 12          +9.2% ( 41.4%)      7.1%
 EFFECTIVE MASS      8.1074
 FORCE CONSTANT      0.6545

 VIBRATION         44   44A           ATOM PAIR      ENERGY CONTRIBUTION    RADIAL
 FREQUENCY          1236.86         C  6 -- H 12         +32.7% ( 67.0%)      0.4%
 TRANSITION DIPOLE   0.1459         C  5 -- H 11         +30.8% ( 65.1%)      0.2%
 TRAVEL (Ang.)       0.3838         C  3 -- C  4          +5.2% ( 26.7%)     89.4%
 REDUCED MASS        0.3701         C  4 -- H 10          +5.1% ( 26.4%)      1.0%
 EFFECTIVE MASS      2.5427
 FORCE CONSTANT      0.3336

 VIBRATION         45   45A           ATOM PAIR      ENERGY CONTRIBUTION    RADIAL
 FREQUENCY          1252.45         C 23 -- H 24         +41.6% ( 55.8%)      0.6%
 TRANSITION DIPOLE   0.5352         C 23 -- H 26         +40.6% ( 55.1%)      2.2%
 TRAVEL (Ang.)       0.3706         C 23 -- H 25         +13.7% ( 32.0%)     25.9%
 REDUCED MASS        0.3920         O  9 -- C 23          +3.9% ( 17.0%)      2.7%
 EFFECTIVE MASS      1.4589
 FORCE CONSTANT      0.3623

 VIBRATION         46   46A           ATOM PAIR      ENERGY CONTRIBUTION    RADIAL
 FREQUENCY          1255.40         C  1 -- C  2         +13.7% ( 47.8%)     45.6%
 TRANSITION DIPOLE   0.7625         C  2 -- C  3         +13.5% ( 47.5%)      6.2%
 TRAVEL (Ang.)       0.2537         C  2 -- C  8         +12.8% ( 46.1%)     97.0%
 REDUCED MASS        0.8342         C  6 -- H 12         +10.1% ( 41.1%)     13.6%
 EFFECTIVE MASS      7.1237
 FORCE CONSTANT      0.7746

 VIBRATION         47   47A           ATOM PAIR      ENERGY CONTRIBUTION    RADIAL
 FREQUENCY          1287.90         C 23 -- H 25         +50.3% ( 62.6%)      0.6%
 TRANSITION DIPOLE   0.7614         C 23 -- H 26         +33.5% ( 51.1%)      3.8%
 TRAVEL (Ang.)       0.3512         C 23 -- H 24          +8.3% ( 25.4%)     35.8%
 REDUCED MASS        0.4244         O  9 -- C 23          +3.9% ( 17.4%)     18.8%
 EFFECTIVE MASS      1.5842
 FORCE CONSTANT      0.4147

 VIBRATION         48   48A           ATOM PAIR      ENERGY CONTRIBUTION    RADIAL
 FREQUENCY          1321.52         C  1 -- H  7         +23.9% ( 56.5%)      0.8%
 TRANSITION DIPOLE   0.2618         C  4 -- H 10         +23.4% ( 55.9%)      2.5%
 TRAVEL (Ang.)       0.3630         C  2 -- C  3          +9.3% ( 35.3%)      0.0%
 REDUCED MASS        0.3871         C  3 -- C  4          +8.9% ( 34.6%)     75.8%
 EFFECTIVE MASS      3.2611
 FORCE CONSTANT      0.3983

 VIBRATION         49   49A           ATOM PAIR      ENERGY CONTRIBUTION    RADIAL
 FREQUENCY          1339.99         C  3 -- O  9         +13.3% ( 43.4%)     96.8%
 TRANSITION DIPOLE   0.8017         C 23 -- H 25         +11.2% ( 39.7%)      0.9%
 TRAVEL (Ang.)       0.3462         C 23 -- H 26          +9.8% ( 37.2%)      0.5%
 REDUCED MASS        0.4199         C  3 -- C  4          +9.3% ( 36.1%)     58.5%
 EFFECTIVE MASS      5.3546
 FORCE CONSTANT      0.4442

 VIBRATION         50   50A           ATOM PAIR      ENERGY CONTRIBUTION    RADIAL
 FREQUENCY          1351.90         C 14 -- H 20         +23.3% ( 52.6%)      0.2%
 TRANSITION DIPOLE   0.9621         C 14 -- H 21         +16.6% ( 44.3%)      2.9%
 TRAVEL (Ang.)       0.3879         C  2 -- C  8         +11.9% ( 37.5%)     97.8%
 REDUCED MASS        0.3314         C  2 -- C  3          +5.8% ( 26.1%)     22.3%
 EFFECTIVE MASS      3.7813
 FORCE CONSTANT      0.3569

 VIBRATION         51   51A           ATOM PAIR      ENERGY CONTRIBUTION    RADIAL
 FREQUENCY          1384.18         C  3 -- O  9         +17.7% ( 51.4%)     84.6%
 TRANSITION DIPOLE   0.7396         C  2 -- C  3         +11.7% ( 42.0%)     21.5%
 TRAVEL (Ang.)       0.2532         C  3 -- C  4         +10.9% ( 40.5%)     80.9%
 REDUCED MASS        0.7596         C 23 -- H 24          +8.8% ( 36.2%)      0.7%
 EFFECTIVE MASS      6.8269
 FORCE CONSTANT      0.8575

 VIBRATION         52   52A           ATOM PAIR      ENERGY CONTRIBUTION    RADIAL
 FREQUENCY          1445.72         C  1 -- C  6         +16.5% ( 62.8%)     99.2%
 TRANSITION DIPOLE   2.1575         C  3 -- C  4         +13.0% ( 55.7%)     99.7%
 TRAVEL (Ang.)       0.1759         C  4 -- C  5         +12.3% ( 54.2%)     90.5%
 REDUCED MASS        1.5073         C  1 -- C  2          +9.1% ( 46.6%)     89.8%
 EFFECTIVE MASS     10.5364
 FORCE CONSTANT      1.8562

 VIBRATION         53   53A           ATOM PAIR      ENERGY CONTRIBUTION    RADIAL
 FREQUENCY          1446.85         H 17 -- O 18         +65.5% ( 66.7%)      7.9%
 TRANSITION DIPOLE   1.0619         O 18 -- H 19         +33.4% ( 47.7%)      9.3%
 TRAVEL (Ang.)       0.2883         C  1 -- C  6          +0.2% (  3.4%)     98.9%
 REDUCED MASS        0.5606         C  4 -- C  5          +0.1% (  3.0%)     92.5%
 EFFECTIVE MASS      1.7646
 FORCE CONSTANT      0.6914

 VIBRATION         54   54A           ATOM PAIR      ENERGY CONTRIBUTION    RADIAL
 FREQUENCY          1480.23         C  8 -- O 13         +29.2% ( 74.1%)     78.3%
 TRANSITION DIPOLE   4.5246         C  8 -- C 14         +24.2% ( 67.5%)     37.3%
 TRAVEL (Ang.)       0.1196         C  2 -- C  8         +16.0% ( 54.8%)     92.1%
 REDUCED MASS        3.1830         C 14 -- H 21         +10.1% ( 43.6%)      2.0%
 EFFECTIVE MASS     11.9732
 FORCE CONSTANT      4.1090

 VIBRATION         55   55A           ATOM PAIR      ENERGY CONTRIBUTION    RADIAL
 FREQUENCY          1514.20         C  1 -- C  2         +14.2% ( 53.3%)     88.2%
 TRANSITION DIPOLE   2.1101         C  2 -- C  3         +13.9% ( 52.8%)     12.5%
 TRAVEL (Ang.)       0.1698         C  4 -- C  5         +11.3% ( 47.7%)     55.4%
 REDUCED MASS        1.5452         C  3 -- C  4         +10.8% ( 46.5%)     99.9%
 EFFECTIVE MASS      9.9537         C  5 -- H 11         +10.5% ( 45.9%)      1.0%
 FORCE CONSTANT      2.0874

 VIBRATION         56   56A           ATOM PAIR      ENERGY CONTRIBUTION    RADIAL
 FREQUENCY          1569.58         C  5 -- C  6         +14.4% ( 53.6%)     92.1%
 TRANSITION DIPOLE   1.8891         C  2 -- C  3         +13.7% ( 52.3%)     98.2%
 TRAVEL (Ang.)       0.1698         C  3 -- C  4         +10.1% ( 44.9%)     16.8%
 REDUCED MASS        1.4893         C  1 -- C  6          +9.3% ( 42.9%)      5.0%
 EFFECTIVE MASS     10.1428
 FORCE CONSTANT      2.1618

 VIBRATION         57   57A           ATOM PAIR      ENERGY CONTRIBUTION    RADIAL
 FREQUENCY          1662.70         O 15 -- H 22         +95.7% ( 97.1%)     98.2%
 TRANSITION DIPOLE   1.6940         O 15 -- H 16          +3.6% ( 18.9%)     50.4%
 TRAVEL (Ang.)       0.1308         H 17 -- O 18          +0.2% (  4.1%)     84.3%
 REDUCED MASS        2.3693         C  8 -- C 14          +0.2% (  3.9%)     78.8%
 EFFECTIVE MASS      4.1162
 FORCE CONSTANT      3.8592

 VIBRATION         58   58A           ATOM PAIR      ENERGY CONTRIBUTION    RADIAL
 FREQUENCY          1693.60         C  4 -- C  5         +22.7% ( 68.2%)     99.1%
 TRANSITION DIPOLE   3.2294         C  1 -- C  2         +14.0% ( 53.6%)     99.9%
 TRAVEL (Ang.)       0.1228         C  5 -- C  6         +12.0% ( 49.6%)     45.6%
 REDUCED MASS        2.6403         C  5 -- H 11          +9.0% ( 43.1%)      2.8%
 EFFECTIVE MASS     11.9431
 FORCE CONSTANT      4.4620

 VIBRATION         59   59A           ATOM PAIR      ENERGY CONTRIBUTION    RADIAL
 FREQUENCY          1698.42         C  2 -- C  3         +18.0% ( 60.5%)     91.0%
 TRANSITION DIPOLE   2.1740         C  1 -- C  6         +15.7% ( 56.5%)     94.8%
 TRAVEL (Ang.)       0.1262         C  3 -- C  4         +13.4% ( 52.2%)     77.5%
 REDUCED MASS        2.4940         C  5 -- C  6         +12.0% ( 49.4%)     80.7%
 EFFECTIVE MASS     11.9821
 FORCE CONSTANT      4.2387

 VIBRATION         60   60A           ATOM PAIR      ENERGY CONTRIBUTION    RADIAL
 FREQUENCY          1767.55         C  8 -- C 14         +38.7% ( 91.4%)     95.2%
 TRANSITION DIPOLE   8.9998         C  8 -- O 13         +27.7% ( 77.3%)     80.5%
 TRAVEL (Ang.)       0.0807         C  2 -- C  8         +20.7% ( 66.9%)      6.3%
 REDUCED MASS        5.8521         C 14 -- H 20          +6.1% ( 36.2%)     16.8%
 EFFECTIVE MASS     12.2454
 FORCE CONSTANT     10.7723

 VIBRATION         61   61A           ATOM PAIR      ENERGY CONTRIBUTION    RADIAL
 FREQUENCY          2564.92         H 17 -- O 18         +80.0% ( 92.0%)     97.9%
 TRANSITION DIPOLE   2.7113         O 18 -- H 19         +16.1% ( 41.2%)     90.9%
 TRAVEL (Ang.)       0.1953         O 15 -- H 16          +3.9% ( 20.4%)     96.8%
 REDUCED MASS        0.6891
 EFFECTIVE MASS      1.5318
 FORCE CONSTANT      2.6711

 VIBRATION         62   62A           ATOM PAIR      ENERGY CONTRIBUTION    RADIAL
 FREQUENCY          2631.70         C 23 -- H 25         +58.4% ( 79.0%)     98.8%
 TRANSITION DIPOLE   0.8608         C 23 -- H 26         +39.1% ( 64.6%)     96.5%
 TRAVEL (Ang.)       0.2232         C 23 -- H 24          +1.6% ( 13.0%)     18.5%
 REDUCED MASS        0.5144         O  9 -- C 23          +0.9% (  9.9%)      0.0%
 EFFECTIVE MASS      1.4716
 FORCE CONSTANT      2.0991

 VIBRATION         63   63A           ATOM PAIR      ENERGY CONTRIBUTION    RADIAL
 FREQUENCY          2643.59         C 23 -- H 24         +59.9% ( 80.0%)     99.5%
 TRANSITION DIPOLE   0.9679         C 23 -- H 26         +27.2% ( 53.9%)     92.5%
 TRAVEL (Ang.)       0.2332         C 23 -- H 25         +11.9% ( 35.6%)     79.3%
 REDUCED MASS        0.4691         O  9 -- C 23          +1.0% ( 10.4%)      2.2%
 EFFECTIVE MASS      1.4793
 FORCE CONSTANT      1.9314

 VIBRATION         64   64A           ATOM PAIR      ENERGY CONTRIBUTION    RADIAL
 FREQUENCY          2735.01         C  1 -- H  7         +86.7% ( 94.1%)    100.0%
 TRANSITION DIPOLE   1.0465         C  6 -- H 12          +8.5% ( 29.5%)     99.8%
 TRAVEL (Ang.)       0.1827         C  4 -- H 10          +1.8% ( 13.5%)    100.0%
 REDUCED MASS        0.7386         C  1 -- C  6          +0.9% (  9.8%)      8.3%
 EFFECTIVE MASS      1.3786
 FORCE CONSTANT      3.2551

 VIBRATION         65   65A           ATOM PAIR      ENERGY CONTRIBUTION    RADIAL
 FREQUENCY          2736.84         C 14 -- H 20         +58.8% ( 78.9%)     99.2%
 TRANSITION DIPOLE   0.5981         C 14 -- H 21         +39.5% ( 64.7%)     97.7%
 TRAVEL (Ang.)       0.2176         C  8 -- C 14          +1.0% ( 10.3%)      0.5%
 REDUCED MASS        0.5202         C  5 -- H 11          +0.3% (  5.3%)    100.0%
 EFFECTIVE MASS      1.5014
 FORCE CONSTANT      2.2958

 VIBRATION         66   66A           ATOM PAIR      ENERGY CONTRIBUTION    RADIAL
 FREQUENCY          2740.07         C  5 -- H 11         +70.1% ( 84.2%)    100.0%
 TRANSITION DIPOLE   0.5248         C  4 -- H 10          +8.7% ( 29.6%)     99.7%
 TRAVEL (Ang.)       0.2256         C  6 -- H 12          +7.6% ( 27.8%)     99.6%
 REDUCED MASS        0.4836         C  1 -- H  7          +3.5% ( 18.8%)     99.8%
 EFFECTIVE MASS      1.3374
 FORCE CONSTANT      2.1393

 VIBRATION         67   67A           ATOM PAIR      ENERGY CONTRIBUTION    RADIAL
 FREQUENCY          2741.08         C 23 -- H 24         +34.3% ( 56.3%)     96.8%
 TRANSITION DIPOLE   0.6768         C 23 -- H 26         +29.4% ( 52.2%)     96.4%
 TRAVEL (Ang.)       0.2978         C 23 -- H 25         +25.3% ( 48.4%)     95.6%
 REDUCED MASS        0.2773         C  5 -- H 11          +9.3% ( 29.3%)    100.0%
 EFFECTIVE MASS      1.1245
 FORCE CONSTANT      1.2277

 VIBRATION         68   68A           ATOM PAIR      ENERGY CONTRIBUTION    RADIAL
 FREQUENCY          2749.03         C  6 -- H 12         +48.3% ( 70.2%)    100.0%
 TRANSITION DIPOLE   1.6320         C  4 -- H 10         +48.1% ( 70.0%)    100.0%
 TRAVEL (Ang.)       0.2333         C  1 -- H  7          +1.3% ( 11.6%)     99.0%
 REDUCED MASS        0.4508         C  1 -- C  6          +0.5% (  7.5%)     41.5%
 EFFECTIVE MASS      1.3621
 FORCE CONSTANT      2.0072

 VIBRATION         69   69A           ATOM PAIR      ENERGY CONTRIBUTION    RADIAL
 FREQUENCY          2757.46         O 15 -- H 16         +76.1% ( 87.0%)     99.4%
 TRANSITION DIPOLE   1.4487         O 18 -- H 19          +9.1% ( 30.1%)     98.5%
 TRAVEL (Ang.)       0.2078         C  4 -- H 10          +5.4% ( 23.1%)    100.0%
 REDUCED MASS        0.5661         C  6 -- H 12          +4.8% ( 21.9%)    100.0%
 EFFECTIVE MASS      1.3466
 FORCE CONSTANT      2.5362

 VIBRATION         70   70A           ATOM PAIR      ENERGY CONTRIBUTION    RADIAL
 FREQUENCY          2758.04         C  4 -- H 10         +34.3% ( 59.0%)    100.0%
 TRANSITION DIPOLE   0.8408         C  6 -- H 12         +28.4% ( 53.7%)    100.0%
 TRAVEL (Ang.)       0.3223         C  5 -- H 11         +16.6% ( 41.1%)    100.0%
 REDUCED MASS        0.2354         O 15 -- H 16         +11.8% ( 34.6%)     99.4%
 EFFECTIVE MASS      1.4217
 FORCE CONSTANT      1.0551

 VIBRATION         71   71A           ATOM PAIR      ENERGY CONTRIBUTION    RADIAL
 FREQUENCY          2797.91         O 18 -- H 19         +77.3% ( 84.9%)     99.7%
 TRANSITION DIPOLE   1.2372         H 17 -- O 18         +15.0% ( 37.4%)     98.6%
 TRAVEL (Ang.)       0.2044         O 15 -- H 16          +7.6% ( 26.7%)     99.5%
 REDUCED MASS        0.5766
 EFFECTIVE MASS      1.2190
 FORCE CONSTANT      2.6594

 VIBRATION         72   72A           ATOM PAIR      ENERGY CONTRIBUTION    RADIAL
 FREQUENCY          2804.93         C 14 -- H 21         +60.1% ( 76.2%)     97.4%
 TRANSITION DIPOLE   1.2586         C 14 -- H 20         +38.9% ( 61.3%)     94.0%
 TRAVEL (Ang.)       0.2195         C  8 -- C 14          +0.7% (  8.3%)     99.2%
 REDUCED MASS        0.4991
 EFFECTIVE MASS      1.2569
 FORCE CONSTANT      2.3137

      SYMMETRY NUMBER FOR POINT-GROUP C1  =  1


          SYSTEM IS A GROUND STATE



 Title: ASE calculation


          MOLECULE IS NOT LINEAR

          THERE ARE 72 GENUINE VIBRATIONS IN THIS SYSTEM
          THIS THERMODYNAMICS CALCULATION IS LIMITED TO
          MOLECULES WHICH HAVE NO INTERNAL ROTATIONS




                    CALCULATED THERMODYNAMIC PROPERTIES
                                          *
   TEMP. (K)   PARTITION FUNCTION   H.O.F.    ENTHALPY  HEAT CAPACITY ENTROPY
                                   KCAL/MOL   CAL/MOLE    CAL/K/MOL  CAL/K/MOL


 298.00  VIB.     0.3646D+08                  9069.1081    52.8879    65.0337
         ROT.     0.2967D+07                   888.2803     2.9808    32.5963
         INT.     0.1082D+15                  9957.3884    55.8687    97.6300
         TRA.     0.2476D+28                  1480.4672     4.9680    41.5849
         TOT.                     -273.384   11437.8556    60.8367   139.2149

   *: NOTE: HEATS OF FORMATION ARE RELATIVE TO THE
            ELEMENTS IN THEIR STANDARD STATE AT 298K
              (=  Standard Enthalpy of Formation).

            Hvib:  Zero-point energy is not included.
                   frequencies of less than zero cm-1 are not included.
            Hrot = (3/2)RT
            Htra = (3/2)RT + pV = (5/2)RT

            Heat capacity is Cp, not Cv

          For more information, see: HTTP://OpenMOPAC.net/Manual/thermochemistry.html


           FORCE CONSTANT IN CARTESIAN COORDINATES (Millidynes/A)

    ATOM   CHEMICAL       X               Y               Z
   NUMBER   SYMBOL  FORCE CONSTANT  FORCE CONSTANT  FORCE CONSTANT

      1       C       11.210654       10.235443        2.361864
      2       C       10.955650       11.168373        2.731362
      3       C       10.942071       11.850385        2.074930
      4       C       11.872259        9.583581        2.120890
      5       C       11.464826       10.169526        2.382420
      6       C        9.775344       11.818028        2.285544
      7       H        1.721150        3.396598        0.391945
      8       C        4.176100        7.985528       14.878645
      9       O        8.675646        5.210467        1.036017
     10       H        1.716929        3.436579        0.396760
     11       H        1.803074        3.332852        0.379112
     12       H        4.234713        0.910079        0.380917
     13       O        0.516172        2.999227        8.453221
     14       C        3.094387        6.557181       11.406093
     15       O        2.474411        4.498915        4.547675
     16       H        0.803011        0.656927        3.397132
     17       H        1.879330        0.964055        2.008051
     18       O        4.611506        2.595157        4.198130
     19       H        1.108993        1.957046        1.749203
     20       H        0.897268        3.510337        0.800283
     21       H        0.256971        1.491511        3.453586
     22       H        0.164840        4.010842        0.682189
     23       C        6.527317        6.795214        6.060895
     24       H        3.332077        1.354625        0.563816
     25       H        0.715860        2.299522        2.323958
     26       H        0.991305        1.242190        3.086249

 **********************
 *                    *
 * JOB ENDED NORMALLY *
 *                    *
 **********************



 TOTAL JOB TIME:             2.06 SECONDS

 == MOPAC DONE ==
