
                                 *****************
                                 * O   R   C   A *
                                 *****************

                                            #,                                       
                                            ###                                      
                                            ####                                     
                                            #####                                    
                                            ######                                   
                                           ########,                                 
                                     ,,################,,,,,                         
                               ,,#################################,,                 
                          ,,##########################################,,             
                       ,#########################################, ''#####,          
                    ,#############################################,,   '####,        
                  ,##################################################,,,,####,       
                ,###########''''           ''''###############################       
              ,#####''   ,,,,##########,,,,          '''####'''          '####       
            ,##' ,,,,###########################,,,                        '##       
           ' ,,###''''                  '''############,,,                           
         ,,##''                                '''############,,,,        ,,,,,,###''
      ,#''                                            '''#######################'''  
     '                                                          ''''####''''         
             ,#######,   #######,   ,#######,      ##                                
            ,#'     '#,  ##    ##  ,#'     '#,    #''#        ######   ,####,        
            ##       ##  ##   ,#'  ##            #'  '#       #        #'  '#        
            ##       ##  #######   ##           ,######,      #####,   #    #        
            '#,     ,#'  ##    ##  '#,     ,#' ,#      #,         ##   #,  ,#        
             '#######'   ##     ##  '#######'  #'      '#     #####' # '####'        



                  #######################################################
                  #                        -***-                        #
                  #          Department of theory and spectroscopy      #
                  #    Directorship and core code : Frank Neese         #
                  #        Max Planck Institute fuer Kohlenforschung    #
                  #                Kaiser Wilhelm Platz 1               #
                  #                 D-45470 Muelheim/Ruhr               #
                  #                      Germany                        #
                  #                                                     #
                  #                  All rights reserved                #
                  #                        -***-                        #
                  #######################################################


                         Program Version 5.0.4 -  RELEASE  -


 With contributions from (in alphabetic order):
   Daniel Aravena         : Magnetic Suceptibility
   Michael Atanasov       : Ab Initio Ligand Field Theory (pilot matlab implementation)
   Alexander A. Auer      : GIAO ZORA, VPT2 properties, NMR spectrum
   Ute Becker             : Parallelization
   Giovanni Bistoni       : ED, misc. LED, open-shell LED, HFLD
   Martin Brehm           : Molecular dynamics
   Dmytro Bykov           : SCF Hessian
   Vijay G. Chilkuri      : MRCI spin determinant printing, contributions to CSF-ICE
   Dipayan Datta          : RHF DLPNO-CCSD density
   Achintya Kumar Dutta   : EOM-CC, STEOM-CC
   Dmitry Ganyushin       : Spin-Orbit,Spin-Spin,Magnetic field MRCI
   Miquel Garcia          : C-PCM and meta-GGA Hessian, CC/C-PCM, Gaussian charge scheme
   Yang Guo               : DLPNO-NEVPT2, F12-NEVPT2, CIM, IAO-localization
   Andreas Hansen         : Spin unrestricted coupled pair/coupled cluster methods
   Benjamin Helmich-Paris : MC-RPA, TRAH-SCF, COSX integrals
   Lee Huntington         : MR-EOM, pCC
   Robert Izsak           : Overlap fitted RIJCOSX, COSX-SCS-MP3, EOM
   Marcus Kettner         : VPT2
   Christian Kollmar      : KDIIS, OOCD, Brueckner-CCSD(T), CCSD density, CASPT2, CASPT2-K
   Simone Kossmann        : Meta GGA functionals, TD-DFT gradient, OOMP2, MP2 Hessian
   Martin Krupicka        : Initial AUTO-CI
   Lucas Lang             : DCDCAS
   Marvin Lechner         : AUTO-CI (C++ implementation), FIC-MRCC
   Dagmar Lenk            : GEPOL surface, SMD
   Dimitrios Liakos       : Extrapolation schemes; Compound Job, initial MDCI parallelization
   Dimitrios Manganas     : Further ROCIS development; embedding schemes
   Dimitrios Pantazis     : SARC Basis sets
   Anastasios Papadopoulos: AUTO-CI, single reference methods and gradients
   Taras Petrenko         : DFT Hessian,TD-DFT gradient, ASA, ECA, R-Raman, ABS, FL, XAS/XES, NRVS
   Peter Pinski           : DLPNO-MP2, DLPNO-MP2 Gradient
   Christoph Reimann      : Effective Core Potentials
   Marius Retegan         : Local ZFS, SOC
   Christoph Riplinger    : Optimizer, TS searches, QM/MM, DLPNO-CCSD(T), (RO)-DLPNO pert. Triples
   Tobias Risthaus        : Range-separated hybrids, TD-DFT gradient, RPA, STAB
   Michael Roemelt        : Original ROCIS implementation
   Masaaki Saitow         : Open-shell DLPNO-CCSD energy and density
   Barbara Sandhoefer     : DKH picture change effects
   Avijit Sen             : IP-ROCIS
   Kantharuban Sivalingam : CASSCF convergence, NEVPT2, FIC-MRCI
   Bernardo de Souza      : ESD, SOC TD-DFT
   Georgi Stoychev        : AutoAux, RI-MP2 NMR, DLPNO-MP2 response
   Willem Van den Heuvel  : Paramagnetic NMR
   Boris Wezisla          : Elementary symmetry handling
   Frank Wennmohs         : Technical directorship


 We gratefully acknowledge several colleagues who have allowed us to
 interface, adapt or use parts of their codes:
   Stefan Grimme, W. Hujo, H. Kruse, P. Pracht,  : VdW corrections, initial TS optimization,
                  C. Bannwarth, S. Ehlert          DFT functionals, gCP, sTDA/sTD-DF
   Ed Valeev, F. Pavosevic, A. Kumar             : LibInt (2-el integral package), F12 methods
   Garnet Chan, S. Sharma, J. Yang, R. Olivares  : DMRG
   Ulf Ekstrom                                   : XCFun DFT Library
   Mihaly Kallay                                 : mrcc  (arbitrary order and MRCC methods)
   Jiri Pittner, Ondrej Demel                    : Mk-CCSD
   Frank Weinhold                                : gennbo (NPA and NBO analysis)
   Christopher J. Cramer and Donald G. Truhlar   : smd solvation model
   Lars Goerigk                                  : TD-DFT with DH, B97 family of functionals
   V. Asgeirsson, H. Jonsson                     : NEB implementation
   FAccTs GmbH                                   : IRC, NEB, NEB-TS, DLPNO-Multilevel, CI-OPT
                                                   MM, QMMM, 2- and 3-layer-ONIOM, Crystal-QMMM,
                                                   LR-CPCM, SF, NACMEs, symmetry and pop. for TD-DFT,
                                                   nearIR, NL-DFT gradient (VV10), updates on ESD,
                                                   ML-optimized integration grids
   S Lehtola, MJT Oliveira, MAL Marques          : LibXC Library
   Liviu Ungur et al                             : ANISO software


 Your calculation uses the libint2 library for the computation of 2-el integrals
 For citations please refer to: http://libint.valeyev.net

 Your ORCA version has been built with support for libXC version: 5.1.0
 For citations please refer to: https://tddft.org/programs/libxc/

 This ORCA versions uses:
   CBLAS   interface :  Fast vector & matrix operations
   LAPACKE interface :  Fast linear algebra routines
   SCALAPACK package :  Parallel linear algebra routines
   Shared memory     :  Shared parallel matrices
   BLAS/LAPACK       :  OpenBLAS 0.3.15  USE64BITINT DYNAMIC_ARCH NO_AFFINITY Prescott SINGLE_THREADED
        Core in use  :  Prescott
   Copyright (c) 2011-2014, The OpenBLAS Project


Your calculation utilizes the atom-pairwise dispersion correction
with the Becke-Johnson damping scheme (D3BJ)
Cite in your paper:
S.Grimme, S.Ehrlich, L.Goerigk, J Comput Chem, (2011), 32, 1456–1465 
S.Grimme, J.Antony, S.Ehrlich and H.Krieg, J.Chem.Phys., 132, (2010), 154104 
   

================================================================================

----- Orbital basis set information -----
Your calculation utilizes the basis: def2-TZVP
   F. Weigend and R. Ahlrichs, Phys. Chem. Chem. Phys. 7, 3297 (2005).

----- AuxJ basis set information -----
Your calculation utilizes the auxiliary basis: def2/J
   F. Weigend, Phys. Chem. Chem. Phys. 8, 1057 (2006).

================================================================================
                                        WARNINGS
                       Please study these warnings very carefully!
================================================================================

WARNING: Gradients needed for Numerical Frequencies
  ===> : Setting RunTyp to EnGrad

INFO   : the flag for use of the SHARK integral package has been found!

================================================================================
                                       INPUT FILE
================================================================================
NAME = /home/rudenko/mop_saddle_orca_4_serv/for_orca/m-clc6h4chno2ch3_oh/orca/freq_D/f_D.inp
|  1> !  NUMFREQ B3LYP def2-TZVP CPCM D3 
|  2> %pal nprocs 102 end
|  3> %cpcm epsilon 78.4 end 
|  4> *xyz -1 1 
|  5> C   -0.58031995055066 2.78502002539336 -0.1735063866235
|  6> C   0.03604379322727 1.55181130034571 -0.36019824187227
|  7> C   -0.68660563109875 0.37365498921093 -0.19403388610529
|  8> C   -2.03347460527598 0.43644549602748 0.16368660039888
|  9> C   -2.63250491868863 1.67366598823753 0.33330378700767
| 10> C   -1.92360021242001 2.8578322268908 0.17244699344441
| 11> H   -0.01468028219396 3.69902644533268 -0.30081388705913
| 12> H   1.08229367632547 1.48931593083065 -0.63173005000585
| 13> H   -2.61215439659334 -0.46789518505656 0.29809103088693
| 14> Cl   -4.33127500783231 1.7475318731162 0.76284398253186
| 15> H   -2.41277769681251 3.81152508332249 0.31418286513268
| 16> C   0.01726498196786 -0.94856374045289 -0.34537674328748
| 17> C   0.09609846164385 -1.75503097327983 0.94029148315403
| 18> H   0.70815769442891 -2.64426094310856 0.80828600682743
| 19> H   -0.89315574423096 -2.04782513091192 1.29531957329351
| 20> H   0.56247366309746 -1.12590148276632 1.6986949906537
| 21> N   -0.60376822859194 -1.76380931745943 -1.46282754145041
| 22> O   -0.48762282269501 -2.98058165352921 -1.4249769582255
| 23> O   -1.12830627984254 -1.16834269409892 -2.39494480437598
| 24> H   1.05119344028915 -0.76686738913618 -0.72401623269477 M = 2
| 25> O   3.9090338662234 -1.26185078172345 1.32729397086647
| 26> H   3.16325924393884 -1.41455113096779 1.91589686050692
| 27> H   3.49438669750897 -0.92689889219987 0.42832503072502
| 28> H   3.34576193033142 -0.73092316038341 -1.61413838934859
| 29> O   2.87427832784399 -0.42252688363352 -0.83210005438079
| 30> *
| 31> 
| 32>                          ****END OF INPUT****
================================================================================

                     *******************************
                     * Energy+Gradient Calculation *
                     *******************************

---------------------------------
CARTESIAN COORDINATES (ANGSTROEM)
---------------------------------
  C     -0.580320    2.785020   -0.173506
  C      0.036044    1.551811   -0.360198
  C     -0.686606    0.373655   -0.194034
  C     -2.033475    0.436445    0.163687
  C     -2.632505    1.673666    0.333304
  C     -1.923600    2.857832    0.172447
  H     -0.014680    3.699026   -0.300814
  H      1.082294    1.489316   -0.631730
  H     -2.612154   -0.467895    0.298091
  Cl    -4.331275    1.747532    0.762844
  H     -2.412778    3.811525    0.314183
  C      0.017265   -0.948564   -0.345377
  C      0.096098   -1.755031    0.940291
  H      0.708158   -2.644261    0.808286
  H     -0.893156   -2.047825    1.295320
  H      0.562474   -1.125901    1.698695
  N     -0.603768   -1.763809   -1.462828
  O     -0.487623   -2.980582   -1.424977
  O     -1.128306   -1.168343   -2.394945
  H      1.051193   -0.766867   -0.724016
  O      3.909034   -1.261851    1.327294
  H      3.163259   -1.414551    1.915897
  H      3.494387   -0.926899    0.428325
  H      3.345762   -0.730923   -1.614138
  O      2.874278   -0.422527   -0.832100

----------------------------
CARTESIAN COORDINATES (A.U.)
----------------------------
  NO LB      ZA    FRAG     MASS         X           Y           Z
   0 C     6.0000    0    12.011   -1.096646    5.262925   -0.327880
   1 C     6.0000    0    12.011    0.068113    2.932498   -0.680676
   2 C     6.0000    0    12.011   -1.297497    0.706106   -0.366671
   3 C     6.0000    0    12.011   -3.842710    0.824762    0.309323
   4 C     6.0000    0    12.011   -4.974713    3.162770    0.629853
   5 C     6.0000    0    12.011   -3.635078    5.400520    0.325878
   6 H     1.0000    0     1.008   -0.027742    6.990147   -0.568456
   7 H     1.0000    0     1.008    2.045239    2.814399   -1.193797
   8 H     1.0000    0     1.008   -4.936256   -0.884194    0.563310
   9 Cl   17.0000    0    35.453   -8.184924    3.302357    1.441566
  10 H     1.0000    0     1.008   -4.559489    7.202739    0.593720
  11 C     6.0000    0    12.011    0.032626   -1.792526   -0.652667
  12 C     6.0000    0    12.011    0.181600   -3.316528    1.776893
  13 H     1.0000    0     1.008    1.338224   -4.996929    1.527439
  14 H     1.0000    0     1.008   -1.687820   -3.869829    2.447799
  15 H     1.0000    0     1.008    1.062921   -2.127645    3.210068
  16 N     7.0000    0    14.007   -1.140957   -3.333117   -2.764343
  17 O     8.0000    0    15.999   -0.921474   -5.632483   -2.692816
  18 O     8.0000    0    15.999   -2.132190   -2.207848   -4.525790
  19 H     1.0000    0     2.000    1.986468   -1.449169   -1.368192
  20 O     8.0000    0    15.999    7.387003   -2.384552    2.508222
  21 H     1.0000    0     1.008    5.977694   -2.673114    3.620520
  22 H     1.0000    0     1.008    6.603434   -1.751585    0.809417
  23 H     1.0000    0     1.008    6.322574   -1.381245   -3.050279
  24 O     8.0000    0    15.999    5.431599   -0.798460   -1.572441

--------------------------------
INTERNAL COORDINATES (ANGSTROEM)
--------------------------------
 C      0   0   0     0.000000000000     0.00000000     0.00000000
 C      1   0   0     1.391244720742     0.00000000     0.00000000
 C      2   1   0     1.392079407603   120.27758972     0.00000000
 C      3   2   1     1.394977644198   119.58581806   359.87918994
 C      4   3   2     1.385034964441   119.28790412     0.69658151
 C      1   2   3     1.389023837015   120.55248497   359.61182046
 H      1   2   3     1.082387716937   120.08001662   179.82735238
 H      2   1   3     1.082716034758   120.85896598   180.27224143
 H      4   3   2     1.082019833126   120.70401366   180.03052411
 Cl     5   4   3     1.753790399189   119.11409914   179.21938687
 H      6   1   2     1.081163138924   121.09408035   180.35054237
 C      3   2   1     1.505523453631   119.24763298   182.53679274
 C     12   3   2     1.519719350282   113.90780346   114.05745317
 H     13  12   3     1.087553166268   111.12513590   186.45843987
 H     13  12   3     1.091053274305   111.75638160    64.08000385
 H     13  12   3     1.090176877645   107.72680184   305.05472727
 N     12   3   2     1.516246644106   110.78135530   240.12369114
 O     17  12   3     1.222888931909   118.24691428   204.87013193
 O     17  12   3     1.224158183647   118.36775069    28.99364035
 H     12   3   2     1.115970198503   108.92141292   352.17298076
 O     16  13  12     3.369849569719   108.95878422   277.60602112
 H     21  16  13     0.962263241320    33.83145751   238.86201246
 H     21  16  13     1.045117313108    71.81213168    57.57630815
 H     23  21  16     2.057219636115   155.94927129   214.55722911
 O     24  23  21     0.963840758781    42.29106603   180.51457001

---------------------------
INTERNAL COORDINATES (A.U.)
---------------------------
 C      0   0   0     0.000000000000     0.00000000     0.00000000
 C      1   0   0     2.629071507467     0.00000000     0.00000000
 C      2   1   0     2.630648837041   120.27758972     0.00000000
 C      3   2   1     2.636125710477   119.58581806   359.87918994
 C      4   3   2     2.617336768699   119.28790412     0.69658151
 C      1   2   3     2.624874645446   120.55248497   359.61182046
 H      1   2   3     2.045416355731   120.08001662   179.82735238
 H      2   1   3     2.046036786498   120.85896598   180.27224143
 H      4   3   2     2.044721156079   120.70401366   180.03052411
 Cl     5   4   3     3.314183550768   119.11409914   179.21938687
 H      6   1   2     2.043102238658   121.09408035   180.35054237
 C      3   2   1     2.845027015558   119.24763298   182.53679274
 C     12   3   2     2.871853372454   113.90780346   114.05745317
 H     13  12   3     2.055177640325   111.12513590   186.45843987
 H     13  12   3     2.061791885955   111.75638160    64.08000385
 H     13  12   3     2.060135736283   107.72680184   305.05472727
 N     12   3   2     2.865290908837   110.78135530   240.12369114
 O     17  12   3     2.310925173512   118.24691428   204.87013193
 O     17  12   3     2.313323711691   118.36775069    28.99364035
 H     12   3   2     2.108878048789   108.92141292   352.17298076
 O     16  13  12     6.368092799280   108.95878422   277.60602112
 H     21  16  13     1.818413994835    33.83145751   238.86201246
 H     21  16  13     1.974985499593    71.81213168    57.57630815
 H     23  21  16     3.887581709583   155.94927129   214.55722911
 O     24  23  21     1.821395070806    42.29106603   180.51457001

---------------------
BASIS SET INFORMATION
---------------------
There are 5 groups of distinct atoms

 Group   1 Type C   : 11s6p2d1f contracted to 5s3p2d1f pattern {62111/411/11/1}
 Group   2 Type H   : 5s1p contracted to 3s1p pattern {311/1}
 Group   3 Type Cl  : 14s9p3d1f contracted to 5s5p2d1f pattern {73211/51111/21/1}
 Group   4 Type N   : 11s6p2d1f contracted to 5s3p2d1f pattern {62111/411/11/1}
 Group   5 Type O   : 11s6p2d1f contracted to 5s3p2d1f pattern {62111/411/11/1}

Atom   0C    basis set group =>   1
Atom   1C    basis set group =>   1
Atom   2C    basis set group =>   1
Atom   3C    basis set group =>   1
Atom   4C    basis set group =>   1
Atom   5C    basis set group =>   1
Atom   6H    basis set group =>   2
Atom   7H    basis set group =>   2
Atom   8H    basis set group =>   2
Atom   9Cl   basis set group =>   3
Atom  10H    basis set group =>   2
Atom  11C    basis set group =>   1
Atom  12C    basis set group =>   1
Atom  13H    basis set group =>   2
Atom  14H    basis set group =>   2
Atom  15H    basis set group =>   2
Atom  16N    basis set group =>   4
Atom  17O    basis set group =>   5
Atom  18O    basis set group =>   5
Atom  19H    basis set group =>   2
Atom  20O    basis set group =>   5
Atom  21H    basis set group =>   2
Atom  22H    basis set group =>   2
Atom  23H    basis set group =>   2
Atom  24O    basis set group =>   5
---------------------------------
AUXILIARY/J BASIS SET INFORMATION
---------------------------------
There are 5 groups of distinct atoms

 Group   1 Type C   : 12s5p4d2f1g contracted to 6s4p3d1f1g pattern {711111/2111/211/2/1}
 Group   2 Type H   : 5s2p1d contracted to 3s1p1d pattern {311/2/1}
 Group   3 Type Cl  : 14s5p5d2f1g contracted to 8s4p3d1f1g pattern {71111111/2111/311/2/1}
 Group   4 Type N   : 12s5p4d2f1g contracted to 6s4p3d1f1g pattern {711111/2111/211/2/1}
 Group   5 Type O   : 12s5p4d2f1g contracted to 6s4p3d1f1g pattern {711111/2111/211/2/1}

Atom   0C    basis set group =>   1
Atom   1C    basis set group =>   1
Atom   2C    basis set group =>   1
Atom   3C    basis set group =>   1
Atom   4C    basis set group =>   1
Atom   5C    basis set group =>   1
Atom   6H    basis set group =>   2
Atom   7H    basis set group =>   2
Atom   8H    basis set group =>   2
Atom   9Cl   basis set group =>   3
Atom  10H    basis set group =>   2
Atom  11C    basis set group =>   1
Atom  12C    basis set group =>   1
Atom  13H    basis set group =>   2
Atom  14H    basis set group =>   2
Atom  15H    basis set group =>   2
Atom  16N    basis set group =>   4
Atom  17O    basis set group =>   5
Atom  18O    basis set group =>   5
Atom  19H    basis set group =>   2
Atom  20O    basis set group =>   5
Atom  21H    basis set group =>   2
Atom  22H    basis set group =>   2
Atom  23H    basis set group =>   2
Atom  24O    basis set group =>   5


           ************************************************************
           *        Program running with 102 parallel MPI-processes   *
           *              working on a common directory               *
           ************************************************************
------------------------------------------------------------------------------
                           ORCA GTO INTEGRAL CALCULATION
                           -- RI-GTO INTEGRALS CHOSEN --
------------------------------------------------------------------------------
------------------------------------------------------------------------------
                   ___                                                        
                  /   \      - P O W E R E D   B Y -                         
                 /     \                                                     
                 |  |  |   _    _      __       _____    __    __             
                 |  |  |  | |  | |    /  \     |  _  \  |  |  /  |          
                  \  \/   | |  | |   /    \    | | | |  |  | /  /          
                 / \  \   | |__| |  /  /\  \   | |_| |  |  |/  /          
                |  |  |   |  __  | /  /__\  \  |    /   |      \           
                |  |  |   | |  | | |   __   |  |    \   |  |\   \          
                \     /   | |  | | |  |  |  |  | |\  \  |  | \   \       
                 \___/    |_|  |_| |__|  |__|  |_| \__\ |__|  \__/        
                                                                              
                      - O R C A' S   B I G   F R I E N D -                    
                                      &                                       
                       - I N T E G R A L  F E E D E R -                       
                                                                              
 v1 FN, 2020, v2 2021                                                         
------------------------------------------------------------------------------


Reading SHARK input file /home/rudenko/mop_saddle_orca_4_serv/for_orca/m-clc6h4chno2ch3_oh/orca/freq_D/f_D.SHARKINP.tmp ... ok
----------------------
SHARK INTEGRAL PACKAGE
----------------------

Number of atoms                             ...     25
Number of basis functions                   ...    506
Number of shells                            ...    200
Maximum angular momentum                    ...      3
Integral batch strategy                     ... SHARK/LIBINT Hybrid
RI-J (if used) integral strategy            ... SPLIT-RIJ (Revised 2003 algorithm where possible)
Printlevel                                  ...      1
Contraction scheme used                     ... SEGMENTED contraction
Coulomb Range Separation                    ... NOT USED
Exchange Range Separation                   ... NOT USED
Finite Nucleus Model                        ... NOT USED
Auxiliary Coulomb fitting basis             ... AVAILABLE
   # of basis functions in Aux-J            ...    809
   # of shells in Aux-J                     ...    267
   Maximum angular momentum in Aux-J        ...      4
Auxiliary J/K fitting basis                 ... NOT available
Auxiliary Correlation fitting basis         ... NOT available
Auxiliary 'external' fitting basis          ... NOT available
Integral threshold                          ...     2.500000e-11
Primitive cut-off                           ...     2.500000e-12
Primitive pair pre-selection threshold      ...     2.500000e-12

Calculating pre-screening integrals         ... done (  0.1 sec) Dimension = 200
Organizing shell pair data                  ... done (  0.5 sec)
Shell pair information
Total number of shell pairs                 ...     20100
Shell pairs after pre-screening             ...     15643
Total number of primitive shell pairs       ...     62836
Primitive shell pairs kept                  ...     33345
          la=0 lb=0:   4047 shell pairs
          la=1 lb=0:   4509 shell pairs
          la=1 lb=1:   1300 shell pairs
          la=2 lb=0:   2201 shell pairs
          la=2 lb=1:   1248 shell pairs
          la=2 lb=2:    316 shell pairs
          la=3 lb=0:   1051 shell pairs
          la=3 lb=1:    603 shell pairs
          la=3 lb=2:    291 shell pairs
          la=3 lb=3:     77 shell pairs

Calculating one electron integrals          ... done (  0.1 sec)
Calculating RI/J V-Matrix + Cholesky decomp.... done (  0.1 sec)
Calculating Nuclear repulsion               ... done (  0.0 sec) ENN=    985.135508453985 Eh

SHARK setup successfully completed in   1.1 seconds

Maximum memory used throughout the entire GTOINT-calculation: 29.5 MB


           ************************************************************
           *        Program running with 102 parallel MPI-processes   *
           *              working on a common directory               *
           ************************************************************
-------------------------------------------------------------------------------
                                 ORCA SCF
-------------------------------------------------------------------------------

------------
SCF SETTINGS
------------
Hamiltonian:
 Density Functional     Method          .... DFT(GTOs)
 Exchange Functional    Exchange        .... B88
   X-Alpha parameter    XAlpha          ....  0.666667
   Becke's b parameter  XBeta           ....  0.004200
 Correlation Functional Correlation     .... LYP
 LDA part of GGA corr.  LDAOpt          .... VWN-5
 Gradients option       PostSCFGGA      .... off
 Hybrid DFT is turned on
   Fraction HF Exchange ScalHFX         ....  0.200000
   Scaling of DF-GGA-X  ScalDFX         ....  0.720000
   Scaling of DF-GGA-C  ScalDFC         ....  0.810000
   Scaling of DF-LDA-C  ScalLDAC        ....  1.000000
   Perturbative correction              ....  0.000000
   Density functional embedding theory  .... OFF
   NL short-range parameter             ....  4.800000
 RI-approximation to the Coulomb term is turned on
   Number of AuxJ basis functions       .... 809
   RIJ-COSX (HFX calculated with COS-X)).... on


General Settings:
 Integral files         IntName         .... /home/rudenko/mop_saddle_orca_4_serv/for_orca/m-clc6h4chno2ch3_oh/orca/freq_D/f_D
 Hartree-Fock type      HFTyp           .... RHF
 Total Charge           Charge          ....   -1
 Multiplicity           Mult            ....    1
 Number of Electrons    NEL             ....  116
 Basis Dimension        Dim             ....  506
 Nuclear Repulsion      ENuc            ....    985.1355084540 Eh

Convergence Acceleration:
 DIIS                   CNVDIIS         .... on
   Start iteration      DIISMaxIt       ....    12
   Startup error        DIISStart       ....  0.200000
   # of expansion vecs  DIISMaxEq       ....     5
   Bias factor          DIISBfac        ....   1.050
   Max. coefficient     DIISMaxC        ....  10.000
 Trust-Rad. Augm. Hess. CNVTRAH         .... auto
   Auto Start mean grad. ratio tolernc. ....  1.125000
   Auto Start start iteration           ....    20
   Auto Start num. interpolation iter.  ....    10
   Max. Number of Micro iterations      ....    16
   Max. Number of Macro iterations      .... Maxiter - #DIIS iter
   Number of Davidson start vectors     ....     2
   Converg. threshold I  (grad. norm)   ....   1.000e-05
   Converg. threshold II (energy diff.) ....   1.000e-08
   Grad. Scal. Fac. for Micro threshold ....   0.100
   Minimum threshold for Micro iter.    ....   0.010
   NR start threshold (gradient norm)   ....   0.001
   Initial trust radius                 ....   0.400
   Minimum AH scaling param. (alpha)    ....   1.000
   Maximum AH scaling param. (alpha)    .... 1000.000
   Orbital update algorithm             .... Taylor
   White noise on init. David. guess    .... on
   Maximum white noise                  ....   0.010
   Quad. conv. algorithm                .... NR
 SOSCF                  CNVSOSCF        .... on
   Start iteration      SOSCFMaxIt      ....   150
   Startup grad/error   SOSCFStart      ....  0.003300
 Level Shifting         CNVShift        .... on
   Level shift para.    LevelShift      ....    0.2500
   Turn off err/grad.   ShiftErr        ....    0.0010
 Zerner damping         CNVZerner       .... off
 Static damping         CNVDamp         .... on
   Fraction old density DampFac         ....    0.7000
   Max. Damping (<1)    DampMax         ....    0.9800
   Min. Damping (>=0)   DampMin         ....    0.0000
   Turn off err/grad.   DampErr         ....    0.1000
 Fernandez-Rico         CNVRico         .... off

SCF Procedure:
 Maximum # iterations   MaxIter         ....   125
 SCF integral mode      SCFMode         .... Direct
   Integral package                     .... SHARK and LIBINT hybrid scheme
 Reset frequency        DirectResetFreq ....    20
 Integral Threshold     Thresh          ....  2.500e-11 Eh
 Primitive CutOff       TCut            ....  2.500e-12 Eh

Convergence Tolerance:
 Convergence Check Mode ConvCheckMode   .... Total+1el-Energy
 Convergence forced     ConvForced      .... 0
 Energy Change          TolE            ....  1.000e-08 Eh
 1-El. energy change                    ....  1.000e-05 Eh
 Orbital Gradient       TolG            ....  1.000e-05
 Orbital Rotation angle TolX            ....  1.000e-05
 DIIS Error             TolErr          ....  5.000e-07


Diagonalization of the overlap matrix:
Smallest eigenvalue                        ... 7.899e-06
Time for diagonalization                   ...    0.086 sec
Threshold for overlap eigenvalues          ... 1.000e-08
Number of eigenvalues below threshold      ... 0
Time for construction of square roots      ...    0.175 sec
Total time needed                          ...    0.264 sec

Time for model grid setup =    0.185 sec

------------------------------
INITIAL GUESS: MODEL POTENTIAL
------------------------------
Loading Hartree-Fock densities                     ... done
Calculating cut-offs                               ... done
Initializing the effective Hamiltonian             ... done
Setting up the integral package (SHARK)            ... done
Starting the Coulomb interaction                   ... done (   0.1 sec)
Reading the grid                                   ... done
Mapping shells                                     ... done
Starting the XC term evaluation                    ... done (   0.1 sec)
  promolecular density results
     # of electrons  =    114.998151082
     EX              =   -111.231537666
     EC              =     -4.075469392
     EX+EC           =   -115.307007058
Transforming the Hamiltonian                       ... done (   0.2 sec)
Diagonalizing the Hamiltonian                      ... done (   0.1 sec)
Back transforming the eigenvectors                 ... done (   0.0 sec)
Now organizing SCF variables                       ... done
                      ------------------
                      INITIAL GUESS DONE (   0.7 sec)
                      ------------------
-------------------
DFT GRID GENERATION
-------------------

General Integration Accuracy     IntAcc      ... 4.388
Radial Grid Type                 RadialGrid  ... OptM3 with GC (2021)
Angular Grid (max. ang.)         AngularGrid ... 4 (Lebedev-302)
Angular grid pruning method      GridPruning ... 4 (adaptive)
Weight generation scheme         WeightScheme... Becke
Basis function cutoff            BFCut       ... 1.0000e-11
Integration weight cutoff        WCut        ... 1.0000e-14
Angular grids for H and He will be reduced by one unit
Partially contracted basis set               ... off
Rotationally invariant grid construction     ... off

Total number of grid points                  ...   120731
Total number of batches                      ...     1899
Average number of points per batch           ...       63
Average number of grid points per atom       ...     4829
Time for grid setup =    0.981 sec

--------------------
COSX GRID GENERATION
--------------------

GRIDX 1
-------
General Integration Accuracy     IntAcc      ... 3.816
Radial Grid Type                 RadialGrid  ... OptM3 with GC (2021)
Angular Grid (max. ang.)         AngularGrid ... 1 (Lebedev-50)
Angular grid pruning method      GridPruning ... 4 (adaptive)
Weight generation scheme         WeightScheme... Becke
Basis function cutoff            BFCut       ... 1.0000e-11
Integration weight cutoff        WCut        ... 1.0000e-14
Angular grids for H and He will be reduced by one unit
Partially contracted basis set               ... on
Rotationally invariant grid construction     ... off

Total number of grid points                  ...    15289
Total number of batches                      ...      252
Average number of points per batch           ...       60
Average number of grid points per atom       ...      612
UseSFitting                                  ... on

GRIDX 2
-------
General Integration Accuracy     IntAcc      ... 4.020
Radial Grid Type                 RadialGrid  ... OptM3 with GC (2021)
Angular Grid (max. ang.)         AngularGrid ... 2 (Lebedev-110)
Angular grid pruning method      GridPruning ... 4 (adaptive)
Weight generation scheme         WeightScheme... Becke
Basis function cutoff            BFCut       ... 1.0000e-11
Integration weight cutoff        WCut        ... 1.0000e-14
Angular grids for H and He will be reduced by one unit
Partially contracted basis set               ... on
Rotationally invariant grid construction     ... off

Total number of grid points                  ...    33386
Total number of batches                      ...      533
Average number of points per batch           ...       62
Average number of grid points per atom       ...     1335
UseSFitting                                  ... on

GRIDX 3
-------
General Integration Accuracy     IntAcc      ... 4.338
Radial Grid Type                 RadialGrid  ... OptM3 with GC (2021)
Angular Grid (max. ang.)         AngularGrid ... 3 (Lebedev-194)
Angular grid pruning method      GridPruning ... 4 (adaptive)
Weight generation scheme         WeightScheme... Becke
Basis function cutoff            BFCut       ... 1.0000e-11
Integration weight cutoff        WCut        ... 1.0000e-14
Angular grids for H and He will be reduced by one unit
Partially contracted basis set               ... on
Rotationally invariant grid construction     ... off

Total number of grid points                  ...    73693
Total number of batches                      ...     1166
Average number of points per batch           ...       63
Average number of grid points per atom       ...     2948
UseSFitting                                  ... on

Time for X-Grid setup             =    1.398 sec


--------------------
CPCM SOLVATION MODEL
--------------------
CPCM parameters:
  Epsilon                                         ...      78.4000
  Refrac                                          ...       1.3300
  Rsolv                                           ...       1.3000
  Surface type                                    ... GAUSSIAN VDW
  Epsilon function type                           ...         CPCM
Radii:
 Radius for C  used is    3.8550 Bohr (=   2.0400 Ang.)
 Radius for H  used is    2.4944 Bohr (=   1.3200 Ang.)
 Radius for Cl used is    3.9684 Bohr (=   2.1000 Ang.)
 Radius for N  used is    3.5149 Bohr (=   1.8600 Ang.)
 Radius for O  used is    3.4469 Bohr (=   1.8240 Ang.)
Calculating surface                               ...        done! (  0.0s)
GEPOL surface points                              ...         1456
GEPOL Volume                                      ...    1715.2637
GEPOL Surface-area                                ...     967.1857
Calculating surface distance matrix               ...        done! (  0.1s)
Performing Cholesky decomposition & store         ...        done! (  0.4s)
Overall time for CPCM initialization              ...                 0.5s
--------------
SCF ITERATIONS
--------------
ITER       Energy         Delta-E        Max-DP      RMS-DP      [F,P]     Damp
               ***  Starting incremental Fock matrix formation  ***
  0  -1126.6312871058   0.000000000000 1.00976209  0.00625639  0.4492919 0.7000
  1  -1126.9327982526  -0.301511146818 0.79493221  0.00508424  0.1597821 0.7000
                               ***Turning on DIIS***
  2  -1127.0318344989  -0.099036246279 0.52040055  0.00368711  0.0390529 0.0000
  3  -1127.2118819645  -0.180047465637 0.77175957  0.00483809  0.0914412 0.0000
  4  -1127.2433572316  -0.031475267071 0.15673044  0.00088229  0.0231162 0.0000
  5  -1127.2459889042  -0.002631672654 0.06310594  0.00034629  0.0043087 0.0000
                      *** Initiating the SOSCF procedure ***
                           *** Shutting down DIIS ***
                      *** Re-Reading the Fockian *** 
                      *** Removing any level shift *** 
ITER      Energy       Delta-E        Grad      Rot      Max-DP    RMS-DP
  6  -1127.24611463  -0.0001257306  0.000989  0.000989  0.018261  0.000117
               *** Restarting incremental Fock matrix formation ***
  7  -1127.24609796   0.0000166773  0.000589  0.003959  0.004515  0.000044
  8  -1127.24610428  -0.0000063186  0.000313  0.002262  0.006947  0.000052
  9  -1127.24610799  -0.0000037156  0.000155  0.001147  0.004323  0.000034
 10  -1127.24610861  -0.0000006203  0.000113  0.000333  0.000644  0.000006
 11  -1127.24610862  -0.0000000039  0.000135  0.000396  0.001848  0.000013
 12  -1127.24610880  -0.0000001884  0.000054  0.000107  0.000690  0.000006
 13  -1127.24610877   0.0000000313  0.000046  0.000118  0.000763  0.000007
 14  -1127.24610884  -0.0000000687  0.000003  0.000009  0.003092  0.000024
 15  -1127.24610885  -0.0000000053  0.000005  0.000013  0.000901  0.000006
                  ***Gradient check signals convergence***
              ***Rediagonalizing the Fockian in SOSCF/NRSCF***

               *****************************************************
               *                     SUCCESS                       *
               *           SCF CONVERGED AFTER  16 CYCLES          *
               *****************************************************

Old exchange energy                            =    -22.514572179 Eh
New exchange energy                            =    -22.514574167 Eh
Exchange energy change after final integration =     -0.000001988 Eh
Total energy after final integration           =  -1127.246110826 Eh
Final COS-X integration done in                =     1.591 sec

----------------
TOTAL SCF ENERGY
----------------

Total Energy       :        -1127.24611083 Eh          -30673.92611 eV

Components:
Nuclear Repulsion  :          985.13550845 Eh           26806.90002 eV
Electronic Energy  :        -2112.38161928 Eh          -57480.82613 eV
One Electron Energy:        -3518.69096065 Eh          -95748.44880 eV
Two Electron Energy:         1406.30934137 Eh           38267.62267 eV
Max COSX asymmetry :            0.00000259 Eh               0.00007 eV
CPCM Dielectric    :           -0.10171832 Eh              -2.76790 eV

Virial components:
Potential Energy   :        -2251.18762888 Eh          -61257.92967 eV
Kinetic Energy     :         1123.94151806 Eh           30584.00357 eV
Virial Ratio       :            2.00294018


DFT components:
N(Alpha)           :       57.999885516511 electrons
N(Beta)            :       57.999885516511 electrons
N(Total)           :      115.999771033022 electrons
E(X)               :      -89.579042439457 Eh       
E(C)               :       -4.835533594014 Eh       
E(XC)              :      -94.414576033471 Eh       
DFET-embed. en.    :        0.000000000000 Eh       
CPCM Solvation Model Properties:
Surface-charge          :            0.97061927
Charge-correction       :           -0.00365887 Eh              -0.09956 eV
Free-energy (cav+disp)  :  This term is not implemented in the current solvation scheme

---------------
SCF CONVERGENCE
---------------

  Last Energy change         ...    9.4362e-09  Tolerance :   1.0000e-08
  Last MAX-Density change    ...    2.5535e-15  Tolerance :   1.0000e-07
  Last RMS-Density change    ...    1.7925e-17  Tolerance :   5.0000e-09
  Last Orbital Gradient      ...    9.4810e-07  Tolerance :   1.0000e-05
  Last Orbital Rotation      ...    3.6950e-06  Tolerance :   1.0000e-05

             **** THE GBW FILE WAS UPDATED (/home/rudenko/mop_saddle_orca_4_serv/for_orca/m-clc6h4chno2ch3_oh/orca/freq_D/f_D.gbw) ****
             **** DENSITY /home/rudenko/mop_saddle_orca_4_serv/for_orca/m-clc6h4chno2ch3_oh/orca/freq_D/f_D.scfp WAS UPDATED ****
             **** ENERGY FILE WAS UPDATED (/home/rudenko/mop_saddle_orca_4_serv/for_orca/m-clc6h4chno2ch3_oh/orca/freq_D/f_D.en.tmp) ****
             **** THE GBW FILE WAS UPDATED (/home/rudenko/mop_saddle_orca_4_serv/for_orca/m-clc6h4chno2ch3_oh/orca/freq_D/f_D.gbw) ****
             **** DENSITY /home/rudenko/mop_saddle_orca_4_serv/for_orca/m-clc6h4chno2ch3_oh/orca/freq_D/f_D.scfp WAS UPDATED ****
----------------
ORBITAL ENERGIES
----------------

  NO   OCC          E(Eh)            E(eV) 
   0   2.0000    -101.527448     -2762.7023 
   1   2.0000     -19.161302      -521.4055 
   2   2.0000     -19.160262      -521.3772 
   3   2.0000     -19.066237      -518.8187 
   4   2.0000     -19.016575      -517.4673 
   5   2.0000     -14.544073      -395.7643 
   6   2.0000     -10.236600      -278.5520 
   7   2.0000     -10.216180      -277.9964 
   8   2.0000     -10.192665      -277.3565 
   9   2.0000     -10.184359      -277.1305 
  10   2.0000     -10.183715      -277.1130 
  11   2.0000     -10.180818      -277.0341 
  12   2.0000     -10.174738      -276.8687 
  13   2.0000     -10.163472      -276.5621 
  14   2.0000      -9.459606      -257.4090 
  15   2.0000      -7.220898      -196.4906 
  16   2.0000      -7.212807      -196.2705 
  17   2.0000      -7.212489      -196.2618 
  18   2.0000      -1.230706       -33.4892 
  19   2.0000      -1.056476       -28.7482 
  20   2.0000      -0.945809       -25.7368 
  21   2.0000      -0.895993       -24.3812 
  22   2.0000      -0.863985       -23.5102 
  23   2.0000      -0.852673       -23.2024 
  24   2.0000      -0.817503       -22.2454 
  25   2.0000      -0.751043       -20.4369 
  26   2.0000      -0.734735       -19.9932 
  27   2.0000      -0.695188       -18.9170 
  28   2.0000      -0.631285       -17.1781 
  29   2.0000      -0.606414       -16.5014 
  30   2.0000      -0.579192       -15.7606 
  31   2.0000      -0.544541       -14.8177 
  32   2.0000      -0.536647       -14.6029 
  33   2.0000      -0.520764       -14.1707 
  34   2.0000      -0.502904       -13.6847 
  35   2.0000      -0.476730       -12.9725 
  36   2.0000      -0.473133       -12.8746 
  37   2.0000      -0.456165       -12.4129 
  38   2.0000      -0.437315       -11.9000 
  39   2.0000      -0.428926       -11.6717 
  40   2.0000      -0.413359       -11.2481 
  41   2.0000      -0.400404       -10.8956 
  42   2.0000      -0.394220       -10.7273 
  43   2.0000      -0.377940       -10.2843 
  44   2.0000      -0.372031       -10.1235 
  45   2.0000      -0.358612        -9.7583 
  46   2.0000      -0.354814        -9.6550 
  47   2.0000      -0.336906        -9.1677 
  48   2.0000      -0.325653        -8.8615 
  49   2.0000      -0.323051        -8.7907 
  50   2.0000      -0.317160        -8.6304 
  51   2.0000      -0.309764        -8.4291 
  52   2.0000      -0.301209        -8.1963 
  53   2.0000      -0.271959        -7.4004 
  54   2.0000      -0.262341        -7.1387 
  55   2.0000      -0.251237        -6.8365 
  56   2.0000      -0.221639        -6.0311 
  57   2.0000      -0.219044        -5.9605 
  58   0.0000      -0.071109        -1.9350 
  59   0.0000      -0.027089        -0.7371 
  60   0.0000      -0.020289        -0.5521 
  61   0.0000       0.023992         0.6529 
  62   0.0000       0.041422         1.1272 
  63   0.0000       0.072595         1.9754 
  64   0.0000       0.079494         2.1632 
  65   0.0000       0.085642         2.3304 
  66   0.0000       0.104412         2.8412 
  67   0.0000       0.108799         2.9606 
  68   0.0000       0.114126         3.1055 
  69   0.0000       0.119630         3.2553 
  70   0.0000       0.131115         3.5678 
  71   0.0000       0.133794         3.6407 
  72   0.0000       0.142228         3.8702 
  73   0.0000       0.149203         4.0600 
  74   0.0000       0.170099         4.6286 
  75   0.0000       0.181788         4.9467 
  76   0.0000       0.184453         5.0192 
  77   0.0000       0.200900         5.4668 
  78   0.0000       0.205721         5.5980 
  79   0.0000       0.209643         5.7047 
  80   0.0000       0.215808         5.8724 
  81   0.0000       0.221774         6.0348 
  82   0.0000       0.229228         6.2376 
  83   0.0000       0.237309         6.4575 
  84   0.0000       0.245944         6.6925 
  85   0.0000       0.249929         6.8009 
  86   0.0000       0.260470         7.0878 
  87   0.0000       0.270242         7.3536 
  88   0.0000       0.277014         7.5379 
  89   0.0000       0.280889         7.6434 
  90   0.0000       0.291786         7.9399 
  91   0.0000       0.309313         8.4168 
  92   0.0000       0.312895         8.5143 
  93   0.0000       0.317780         8.6472 
  94   0.0000       0.319376         8.6907 
  95   0.0000       0.329844         8.9755 
  96   0.0000       0.333340         9.0707 
  97   0.0000       0.345470         9.4007 
  98   0.0000       0.355150         9.6641 
  99   0.0000       0.355980         9.6867 
 100   0.0000       0.360885         9.8202 
 101   0.0000       0.372961        10.1488 
 102   0.0000       0.377653        10.2765 
 103   0.0000       0.390399        10.6233 
 104   0.0000       0.393041        10.6952 
 105   0.0000       0.399717        10.8768 
 106   0.0000       0.400937        10.9101 
 107   0.0000       0.412766        11.2319 
 108   0.0000       0.417775        11.3682 
 109   0.0000       0.426520        11.6062 
 110   0.0000       0.432525        11.7696 
 111   0.0000       0.438380        11.9289 
 112   0.0000       0.441839        12.0230 
 113   0.0000       0.450475        12.2580 
 114   0.0000       0.452026        12.3002 
 115   0.0000       0.454152        12.3581 
 116   0.0000       0.467855        12.7310 
 117   0.0000       0.477495        12.9933 
 118   0.0000       0.479238        13.0407 
 119   0.0000       0.487697        13.2709 
 120   0.0000       0.493463        13.4278 
 121   0.0000       0.495598        13.4859 
 122   0.0000       0.507695        13.8151 
 123   0.0000       0.514185        13.9917 
 124   0.0000       0.523329        14.2405 
 125   0.0000       0.527858        14.3637 
 126   0.0000       0.533343        14.5130 
 127   0.0000       0.541530        14.7358 
 128   0.0000       0.549944        14.9647 
 129   0.0000       0.561199        15.2710 
 130   0.0000       0.577233        15.7073 
 131   0.0000       0.583445        15.8764 
 132   0.0000       0.586593        15.9620 
 133   0.0000       0.591158        16.0862 
 134   0.0000       0.605966        16.4892 
 135   0.0000       0.608403        16.5555 
 136   0.0000       0.618517        16.8307 
 137   0.0000       0.632509        17.2115 
 138   0.0000       0.643511        17.5108 
 139   0.0000       0.653840        17.7919 
 140   0.0000       0.660270        17.9669 
 141   0.0000       0.670488        18.2449 
 142   0.0000       0.674680        18.3590 
 143   0.0000       0.688952        18.7473 
 144   0.0000       0.696881        18.9631 
 145   0.0000       0.704306        19.1651 
 146   0.0000       0.718769        19.5587 
 147   0.0000       0.724203        19.7066 
 148   0.0000       0.735367        20.0103 
 149   0.0000       0.748187        20.3592 
 150   0.0000       0.759189        20.6586 
 151   0.0000       0.778451        21.1827 
 152   0.0000       0.791399        21.5351 
 153   0.0000       0.793463        21.5912 
 154   0.0000       0.821985        22.3673 
 155   0.0000       0.827971        22.5302 
 156   0.0000       0.836271        22.7561 
 157   0.0000       0.839768        22.8512 
 158   0.0000       0.861780        23.4502 
 159   0.0000       0.882179        24.0053 
 160   0.0000       0.884900        24.0793 
 161   0.0000       0.891437        24.2572 
 162   0.0000       0.900901        24.5148 
 163   0.0000       0.911340        24.7988 
 164   0.0000       0.939641        25.5689 
 165   0.0000       0.964781        26.2530 
 166   0.0000       0.976801        26.5801 
 167   0.0000       0.987640        26.8750 
 168   0.0000       1.018389        27.7118 
 169   0.0000       1.029964        28.0267 
 170   0.0000       1.042544        28.3691 
 171   0.0000       1.048801        28.5393 
 172   0.0000       1.055045        28.7092 
 173   0.0000       1.066656        29.0252 
 174   0.0000       1.089453        29.6455 
 175   0.0000       1.116877        30.3918 
 176   0.0000       1.132217        30.8092 
 177   0.0000       1.138665        30.9846 
 178   0.0000       1.160544        31.5800 
 179   0.0000       1.188062        32.3288 
 180   0.0000       1.190180        32.3864 
 181   0.0000       1.200824        32.6761 
 182   0.0000       1.219574        33.1863 
 183   0.0000       1.222172        33.2570 
 184   0.0000       1.240783        33.7634 
 185   0.0000       1.247721        33.9522 
 186   0.0000       1.257150        34.2088 
 187   0.0000       1.269758        34.5519 
 188   0.0000       1.277523        34.7632 
 189   0.0000       1.290907        35.1274 
 190   0.0000       1.297632        35.3103 
 191   0.0000       1.304717        35.5032 
 192   0.0000       1.329083        36.1662 
 193   0.0000       1.340855        36.4865 
 194   0.0000       1.366763        37.1915 
 195   0.0000       1.375792        37.4372 
 196   0.0000       1.379307        37.5328 
 197   0.0000       1.395045        37.9611 
 198   0.0000       1.403963        38.2038 
 199   0.0000       1.426117        38.8066 
 200   0.0000       1.437264        39.1099 
 201   0.0000       1.461133        39.7595 
 202   0.0000       1.481492        40.3134 
 203   0.0000       1.483310        40.3629 
 204   0.0000       1.493647        40.6442 
 205   0.0000       1.503812        40.9208 
 206   0.0000       1.510311        41.0977 
 207   0.0000       1.526729        41.5444 
 208   0.0000       1.542464        41.9726 
 209   0.0000       1.551366        42.2148 
 210   0.0000       1.561677        42.4954 
 211   0.0000       1.577904        42.9369 
 212   0.0000       1.581538        43.0358 
 213   0.0000       1.596074        43.4314 
 214   0.0000       1.610758        43.8310 
 215   0.0000       1.621334        44.1188 
 216   0.0000       1.637683        44.5636 
 217   0.0000       1.647456        44.8295 
 218   0.0000       1.651257        44.9330 
 219   0.0000       1.655435        45.0467 
 220   0.0000       1.670080        45.4452 
 221   0.0000       1.674918        45.5768 
 222   0.0000       1.692768        46.0625 
 223   0.0000       1.695363        46.1332 
 224   0.0000       1.707201        46.4553 
 225   0.0000       1.730930        47.1010 
 226   0.0000       1.737766        47.2870 
 227   0.0000       1.746116        47.5142 
 228   0.0000       1.759679        47.8833 
 229   0.0000       1.770381        48.1745 
 230   0.0000       1.783859        48.5413 
 231   0.0000       1.794526        48.8315 
 232   0.0000       1.806572        49.1593 
 233   0.0000       1.818160        49.4747 
 234   0.0000       1.822215        49.5850 
 235   0.0000       1.840988        50.0958 
 236   0.0000       1.845243        50.2116 
 237   0.0000       1.861016        50.6408 
 238   0.0000       1.889934        51.4277 
 239   0.0000       1.902299        51.7642 
 240   0.0000       1.910865        51.9973 
 241   0.0000       1.928679        52.4820 
 242   0.0000       1.954024        53.1717 
 243   0.0000       1.962271        53.3961 
 244   0.0000       1.968173        53.5567 
 245   0.0000       1.979189        53.8565 
 246   0.0000       1.987994        54.0961 
 247   0.0000       1.999463        54.4082 
 248   0.0000       2.008216        54.6463 
 249   0.0000       2.020348        54.9765 
 250   0.0000       2.047645        55.7193 
 251   0.0000       2.053458        55.8774 
 252   0.0000       2.074826        56.4589 
 253   0.0000       2.084487        56.7218 
 254   0.0000       2.088511        56.8313 
 255   0.0000       2.107135        57.3381 
 256   0.0000       2.119581        57.6767 
 257   0.0000       2.128301        57.9140 
 258   0.0000       2.131634        58.0047 
 259   0.0000       2.137019        58.1513 
 260   0.0000       2.150583        58.5203 
 261   0.0000       2.163935        58.8837 
 262   0.0000       2.175411        59.1960 
 263   0.0000       2.190264        59.6001 
 264   0.0000       2.198221        59.8166 
 265   0.0000       2.199322        59.8466 
 266   0.0000       2.208300        60.0909 
 267   0.0000       2.214261        60.2531 
 268   0.0000       2.232876        60.7596 
 269   0.0000       2.237581        60.8877 
 270   0.0000       2.242692        61.0267 
 271   0.0000       2.253548        61.3221 
 272   0.0000       2.254900        61.3589 
 273   0.0000       2.261440        61.5369 
 274   0.0000       2.283044        62.1248 
 275   0.0000       2.287975        62.2590 
 276   0.0000       2.298368        62.5418 
 277   0.0000       2.313514        62.9539 
 278   0.0000       2.330177        63.4073 
 279   0.0000       2.354253        64.0625 
 280   0.0000       2.369687        64.4825 
 281   0.0000       2.381921        64.8154 
 282   0.0000       2.399865        65.3037 
 283   0.0000       2.409362        65.5621 
 284   0.0000       2.435950        66.2856 
 285   0.0000       2.457672        66.8766 
 286   0.0000       2.461157        66.9715 
 287   0.0000       2.480333        67.4933 
 288   0.0000       2.488441        67.7139 
 289   0.0000       2.509194        68.2786 
 290   0.0000       2.520388        68.5832 
 291   0.0000       2.541867        69.1677 
 292   0.0000       2.544628        69.2429 
 293   0.0000       2.572695        70.0066 
 294   0.0000       2.582668        70.2780 
 295   0.0000       2.600763        70.7704 
 296   0.0000       2.609282        71.0022 
 297   0.0000       2.617905        71.2368 
 298   0.0000       2.620086        71.2962 
 299   0.0000       2.643103        71.9225 
 300   0.0000       2.649209        72.0886 
 301   0.0000       2.669202        72.6327 
 302   0.0000       2.673292        72.7440 
 303   0.0000       2.679675        72.9177 
 304   0.0000       2.684626        73.0524 
 305   0.0000       2.696168        73.3665 
 306   0.0000       2.701865        73.5215 
 307   0.0000       2.707207        73.6668 
 308   0.0000       2.717217        73.9392 
 309   0.0000       2.718499        73.9741 
 310   0.0000       2.734031        74.3968 
 311   0.0000       2.755965        74.9936 
 312   0.0000       2.773845        75.4802 
 313   0.0000       2.780960        75.6738 
 314   0.0000       2.794589        76.0446 
 315   0.0000       2.810023        76.4646 
 316   0.0000       2.813850        76.5688 
 317   0.0000       2.824590        76.8610 
 318   0.0000       2.826340        76.9086 
 319   0.0000       2.840828        77.3029 
 320   0.0000       2.858168        77.7747 
 321   0.0000       2.879871        78.3653 
 322   0.0000       2.902533        78.9819 
 323   0.0000       2.906102        79.0791 
 324   0.0000       2.928264        79.6821 
 325   0.0000       2.933407        79.8221 
 326   0.0000       2.955525        80.4239 
 327   0.0000       2.965129        80.6853 
 328   0.0000       2.986156        81.2574 
 329   0.0000       2.995495        81.5116 
 330   0.0000       2.999510        81.6208 
 331   0.0000       3.018465        82.1366 
 332   0.0000       3.039913        82.7202 
 333   0.0000       3.062011        83.3215 
 334   0.0000       3.092569        84.1531 
 335   0.0000       3.099652        84.3458 
 336   0.0000       3.110505        84.6411 
 337   0.0000       3.133610        85.2699 
 338   0.0000       3.140344        85.4531 
 339   0.0000       3.145374        85.5900 
 340   0.0000       3.155692        85.8708 
 341   0.0000       3.163057        86.0712 
 342   0.0000       3.170614        86.2768 
 343   0.0000       3.185771        86.6892 
 344   0.0000       3.204344        87.1946 
 345   0.0000       3.217766        87.5599 
 346   0.0000       3.232962        87.9734 
 347   0.0000       3.234901        88.0261 
 348   0.0000       3.247981        88.3820 
 349   0.0000       3.263539        88.8054 
 350   0.0000       3.290015        89.5259 
 351   0.0000       3.297002        89.7160 
 352   0.0000       3.312160        90.1284 
 353   0.0000       3.317220        90.2661 
 354   0.0000       3.324558        90.4658 
 355   0.0000       3.341435        90.9251 
 356   0.0000       3.345730        91.0419 
 357   0.0000       3.360824        91.4527 
 358   0.0000       3.383259        92.0632 
 359   0.0000       3.401024        92.5466 
 360   0.0000       3.410498        92.8044 
 361   0.0000       3.411625        92.8350 
 362   0.0000       3.433075        93.4187 
 363   0.0000       3.451756        93.9271 
 364   0.0000       3.464568        94.2757 
 365   0.0000       3.469953        94.4222 
 366   0.0000       3.497503        95.1719 
 367   0.0000       3.504285        95.3564 
 368   0.0000       3.536061        96.2211 
 369   0.0000       3.543237        96.4164 
 370   0.0000       3.552533        96.6693 
 371   0.0000       3.575792        97.3023 
 372   0.0000       3.603446        98.0547 
 373   0.0000       3.615771        98.3901 
 374   0.0000       3.645267        99.1928 
 375   0.0000       3.663033        99.6762 
 376   0.0000       3.682551       100.2073 
 377   0.0000       3.705112       100.8212 
 378   0.0000       3.728576       101.4597 
 379   0.0000       3.743558       101.8674 
 380   0.0000       3.753149       102.1284 
 381   0.0000       3.780655       102.8768 
 382   0.0000       3.785103       102.9979 
 383   0.0000       3.802825       103.4801 
 384   0.0000       3.849307       104.7450 
 385   0.0000       3.872833       105.3851 
 386   0.0000       3.898770       106.0909 
 387   0.0000       3.917960       106.6131 
 388   0.0000       3.938130       107.1620 
 389   0.0000       3.957372       107.6856 
 390   0.0000       3.980110       108.3043 
 391   0.0000       4.003237       108.9336 
 392   0.0000       4.025466       109.5385 
 393   0.0000       4.046166       110.1018 
 394   0.0000       4.050737       110.2262 
 395   0.0000       4.082050       111.0782 
 396   0.0000       4.092782       111.3703 
 397   0.0000       4.109880       111.8355 
 398   0.0000       4.124134       112.2234 
 399   0.0000       4.157066       113.1195 
 400   0.0000       4.187018       113.9345 
 401   0.0000       4.201819       114.3373 
 402   0.0000       4.216820       114.7455 
 403   0.0000       4.236487       115.2807 
 404   0.0000       4.241906       115.4281 
 405   0.0000       4.251531       115.6901 
 406   0.0000       4.285889       116.6250 
 407   0.0000       4.308494       117.2401 
 408   0.0000       4.320139       117.5570 
 409   0.0000       4.334096       117.9368 
 410   0.0000       4.373639       119.0128 
 411   0.0000       4.414708       120.1303 
 412   0.0000       4.472911       121.7141 
 413   0.0000       4.534963       123.4026 
 414   0.0000       4.545872       123.6995 
 415   0.0000       4.570767       124.3769 
 416   0.0000       4.602806       125.2487 
 417   0.0000       4.627781       125.9283 
 418   0.0000       4.664294       126.9219 
 419   0.0000       4.672937       127.1571 
 420   0.0000       4.705615       128.0463 
 421   0.0000       4.725668       128.5920 
 422   0.0000       4.743255       129.0705 
 423   0.0000       4.765654       129.6800 
 424   0.0000       4.821988       131.2130 
 425   0.0000       4.834403       131.5508 
 426   0.0000       4.880276       132.7991 
 427   0.0000       4.902405       133.4012 
 428   0.0000       4.937425       134.3542 
 429   0.0000       4.989855       135.7809 
 430   0.0000       5.031342       136.9098 
 431   0.0000       5.096288       138.6770 
 432   0.0000       5.106518       138.9554 
 433   0.0000       5.125356       139.4680 
 434   0.0000       5.131842       139.6445 
 435   0.0000       5.148905       140.1088 
 436   0.0000       5.158278       140.3639 
 437   0.0000       5.182707       141.0286 
 438   0.0000       5.199572       141.4876 
 439   0.0000       5.210423       141.7828 
 440   0.0000       5.221229       142.0769 
 441   0.0000       5.229798       142.3100 
 442   0.0000       5.248388       142.8159 
 443   0.0000       5.269563       143.3921 
 444   0.0000       5.296002       144.1115 
 445   0.0000       5.341844       145.3590 
 446   0.0000       5.358542       145.8134 
 447   0.0000       5.379604       146.3865 
 448   0.0000       5.412803       147.2898 
 449   0.0000       5.415553       147.3647 
 450   0.0000       5.433997       147.8666 
 451   0.0000       5.443595       148.1278 
 452   0.0000       5.480392       149.1290 
 453   0.0000       5.500940       149.6882 
 454   0.0000       5.517942       150.1508 
 455   0.0000       5.547777       150.9627 
 456   0.0000       5.597724       152.3218 
 457   0.0000       5.627573       153.1341 
 458   0.0000       5.647760       153.6834 
 459   0.0000       5.740271       156.2007 
 460   0.0000       5.955483       162.0569 
 461   0.0000       6.082944       165.5253 
 462   0.0000       6.225766       169.4117 
 463   0.0000       6.249073       170.0459 
 464   0.0000       6.297509       171.3639 
 465   0.0000       6.323447       172.0697 
 466   0.0000       6.336398       172.4222 
 467   0.0000       6.360638       173.0818 
 468   0.0000       6.374362       173.4552 
 469   0.0000       6.381795       173.6575 
 470   0.0000       6.416934       174.6136 
 471   0.0000       6.425857       174.8564 
 472   0.0000       6.435290       175.1131 
 473   0.0000       6.490663       176.6199 
 474   0.0000       6.508677       177.1101 
 475   0.0000       6.561974       178.5604 
 476   0.0000       6.675882       181.6600 
 477   0.0000       6.846305       186.2974 
 478   0.0000       6.853571       186.4952 
 479   0.0000       6.874664       187.0691 
 480   0.0000       6.926384       188.4765 
 481   0.0000       7.042587       191.6385 
 482   0.0000       7.091363       192.9658 
 483   0.0000       7.101739       193.2482 
 484   0.0000       7.157139       194.7557 
 485   0.0000       7.260037       197.5556 
 486   0.0000       7.318581       199.1487 
 487   0.0000       7.393736       201.1938 
 488   0.0000       7.462600       203.0677 
 489   0.0000      10.707885       291.3764 
 490   0.0000      10.786328       293.5109 
 491   0.0000      11.324005       308.1418 
 492   0.0000      21.994950       598.5130 
 493   0.0000      22.394366       609.3817 
 494   0.0000      22.577345       614.3608 
 495   0.0000      22.629494       615.7798 
 496   0.0000      22.732461       618.5817 
 497   0.0000      22.778311       619.8294 
 498   0.0000      22.851213       621.8131 
 499   0.0000      23.199276       631.2844 
 500   0.0000      25.840109       703.1451 
 501   0.0000      32.466370       883.4548 
 502   0.0000      43.458693      1182.5712 
 503   0.0000      43.573679      1185.7001 
 504   0.0000      44.003997      1197.4096 
 505   0.0000      44.067680      1199.1425 

                    ********************************
                    * MULLIKEN POPULATION ANALYSIS *
                    ********************************

-----------------------
MULLIKEN ATOMIC CHARGES
-----------------------
   0 C :   -0.113292
   1 C :   -0.161272
   2 C :    0.125562
   3 C :   -0.320005
   4 C :    0.222195
   5 C :   -0.216418
   6 H :    0.147616
   7 H :    0.101825
   8 H :    0.148710
   9 Cl:   -0.142989
  10 H :    0.148865
  11 C :    0.131418
  12 C :   -0.390947
  13 H :    0.130263
  14 H :    0.135804
  15 H :    0.134341
  16 N :    0.413616
  17 O :   -0.358844
  18 O :   -0.362687
  19 H :    0.061914
  20 O :   -0.814683
  21 H :    0.319474
  22 H :    0.349003
  23 H :    0.280338
  24 O :   -0.969808
Sum of atomic charges:   -1.0000000

--------------------------------
MULLIKEN REDUCED ORBITAL CHARGES
--------------------------------
  0 C s       :     3.212466  s :     3.212466
      pz      :     0.951778  p :     2.811601
      px      :     0.913865
      py      :     0.945959
      dz2     :     0.007360  d :     0.081917
      dxz     :     0.015822
      dyz     :     0.011270
      dx2y2   :     0.020978
      dxy     :     0.026487
      f0      :     0.001095  f :     0.007308
      f+1     :     0.000989
      f-1     :     0.000566
      f+2     :     0.000914
      f-2     :     0.000545
      f+3     :     0.001239
      f-3     :     0.001962
  1 C s       :     3.274625  s :     3.274625
      pz      :     0.959716  p :     2.795325
      px      :     0.954670
      py      :     0.880939
      dz2     :     0.004621  d :     0.083965
      dxz     :     0.006432
      dyz     :     0.021725
      dx2y2   :     0.031724
      dxy     :     0.019464
      f0      :     0.001285  f :     0.007356
      f+1     :     0.000604
      f-1     :     0.000585
      f+2     :     0.000515
      f-2     :     0.001027
      f+3     :     0.001203
      f-3     :     0.002136
  2 C s       :     3.210100  s :     3.210100
      pz      :     0.918092  p :     2.530290
      px      :     0.824880
      py      :     0.787318
      dz2     :     0.011316  d :     0.123882
      dxz     :     0.022524
      dyz     :     0.020584
      dx2y2   :     0.040736
      dxy     :     0.028722
      f0      :     0.001331  f :     0.010166
      f+1     :     0.001091
      f-1     :     0.000721
      f+2     :     0.001071
      f-2     :     0.001140
      f+3     :     0.001528
      f-3     :     0.003285
  3 C s       :     3.352851  s :     3.352851
      pz      :     0.970807  p :     2.875984
      px      :     0.953466
      py      :     0.951711
      dz2     :     0.007992  d :     0.083623
      dxz     :     0.014585
      dyz     :     0.012293
      dx2y2   :     0.017388
      dxy     :     0.031366
      f0      :     0.001156  f :     0.007546
      f+1     :     0.001022
      f-1     :     0.000588
      f+2     :     0.000901
      f-2     :     0.000618
      f+3     :     0.001329
      f-3     :     0.001934
  4 C s       :     3.062896  s :     3.062896
      pz      :     0.984429  p :     2.554819
      px      :     0.768190
      py      :     0.802201
      dz2     :     0.009803  d :     0.149542
      dxz     :     0.024222
      dyz     :     0.027504
      dx2y2   :     0.048426
      dxy     :     0.039587
      f0      :     0.001617  f :     0.010547
      f+1     :     0.001130
      f-1     :     0.000621
      f+2     :     0.001121
      f-2     :     0.001230
      f+3     :     0.001518
      f-3     :     0.003311
  5 C s       :     3.274467  s :     3.274467
      pz      :     0.971469  p :     2.852667
      px      :     0.940674
      py      :     0.940524
      dz2     :     0.007397  d :     0.081867
      dxz     :     0.015999
      dyz     :     0.010905
      dx2y2   :     0.017043
      dxy     :     0.030523
      f0      :     0.001156  f :     0.007418
      f+1     :     0.000998
      f-1     :     0.000570
      f+2     :     0.000777
      f-2     :     0.000715
      f+3     :     0.001279
      f-3     :     0.001922
  6 H s       :     0.830063  s :     0.830063
      pz      :     0.004704  p :     0.022322
      px      :     0.006506
      py      :     0.011112
  7 H s       :     0.874607  s :     0.874607
      pz      :     0.005259  p :     0.023567
      px      :     0.014609
      py      :     0.003699
  8 H s       :     0.828852  s :     0.828852
      pz      :     0.004771  p :     0.022438
      px      :     0.006716
      py      :     0.010951
  9 Cls       :     5.880439  s :     5.880439
      pz      :     3.890864  p :    11.196625
      px      :     3.324143
      py      :     3.981618
      dz2     :     0.008375  d :     0.060551
      dxz     :     0.019908
      dyz     :     0.000979
      dx2y2   :     0.021670
      dxy     :     0.009619
      f0      :     0.000566  f :     0.005374
      f+1     :     0.001007
      f-1     :     0.000043
      f+2     :     0.001061
      f-2     :     0.000178
      f+3     :     0.001628
      f-3     :     0.000891
 10 H s       :     0.828727  s :     0.828727
      pz      :     0.004791  p :     0.022408
      px      :     0.005710
      py      :     0.011908
 11 C s       :     3.088468  s :     3.088468
      pz      :     0.828183  p :     2.630335
      px      :     0.957779
      py      :     0.844372
      dz2     :     0.027479  d :     0.140189
      dxz     :     0.029490
      dyz     :     0.037397
      dx2y2   :     0.023977
      dxy     :     0.021845
      f0      :     0.001619  f :     0.009591
      f+1     :     0.000974
      f-1     :     0.001702
      f+2     :     0.001284
      f-2     :     0.001956
      f+3     :     0.000952
      f-3     :     0.001104
 12 C s       :     3.316259  s :     3.316259
      pz      :     0.922848  p :     3.023855
      px      :     1.081598
      py      :     1.019410
      dz2     :     0.009941  d :     0.046982
      dxz     :     0.013675
      dyz     :     0.009211
      dx2y2   :     0.004896
      dxy     :     0.009259
      f0      :     0.000676  f :     0.003851
      f+1     :     0.000412
      f-1     :     0.000940
      f+2     :     0.000348
      f-2     :     0.000857
      f+3     :     0.000484
      f-3     :     0.000133
 13 H s       :     0.847838  s :     0.847838
      pz      :     0.004404  p :     0.021899
      px      :     0.007009
      py      :     0.010486
 14 H s       :     0.842809  s :     0.842809
      pz      :     0.005355  p :     0.021387
      px      :     0.011024
      py      :     0.005007
 15 H s       :     0.843839  s :     0.843839
      pz      :     0.008942  p :     0.021820
      px      :     0.006060
      py      :     0.006818
 16 N s       :     3.326096  s :     3.326096
      pz      :     1.043209  p :     3.009197
      px      :     1.056239
      py      :     0.909749
      dz2     :     0.046122  d :     0.236913
      dxz     :     0.020110
      dyz     :     0.076201
      dx2y2   :     0.037231
      dxy     :     0.057250
      f0      :     0.002845  f :     0.014177
      f+1     :     0.001460
      f-1     :     0.001705
      f+2     :     0.003168
      f-2     :     0.001145
      f+3     :     0.002360
      f-3     :     0.001494
 17 O s       :     3.873321  s :     3.873321
      pz      :     1.771217  p :     4.440914
      px      :     1.514750
      py      :     1.154947
      dz2     :     0.005408  d :     0.041343
      dxz     :     0.000369
      dyz     :     0.009453
      dx2y2   :     0.014541
      dxy     :     0.011571
      f0      :     0.000340  f :     0.003266
      f+1     :     0.000080
      f-1     :     0.000639
      f+2     :     0.000464
      f-2     :     0.000038
      f+3     :     0.000835
      f-3     :     0.000871
 18 O s       :     3.875896  s :     3.875896
      pz      :     1.361121  p :     4.442355
      px      :     1.393597
      py      :     1.687638
      dz2     :     0.010445  d :     0.041181
      dxz     :     0.009991
      dyz     :     0.010890
      dx2y2   :     0.004570
      dxy     :     0.005286
      f0      :     0.000482  f :     0.003255
      f+1     :     0.000446
      f-1     :     0.000771
      f+2     :     0.000506
      f-2     :     0.000724
      f+3     :     0.000145
      f-3     :     0.000181
 19 H s       :     0.901103  s :     0.901103
      pz      :     0.005173  p :     0.036983
      px      :     0.027367
      py      :     0.004443
 20 O s       :     3.790714  s :     3.790714
      pz      :     1.470797  p :     5.005407
      px      :     1.620934
      py      :     1.913676
      dz2     :     0.001559  d :     0.017476
      dxz     :     0.008619
      dyz     :     0.001205
      dx2y2   :     0.003921
      dxy     :     0.002172
      f0      :     0.000112  f :     0.001086
      f+1     :     0.000191
      f-1     :     0.000210
      f+2     :     0.000277
      f-2     :     0.000135
      f+3     :     0.000104
      f-3     :     0.000058
 21 H s       :     0.633724  s :     0.633724
      pz      :     0.015076  p :     0.046802
      px      :     0.016173
      py      :     0.015552
 22 H s       :     0.583646  s :     0.583646
      pz      :     0.038086  p :     0.067351
      px      :     0.014135
      py      :     0.015130
 23 H s       :     0.670440  s :     0.670440
      pz      :     0.016579  p :     0.049222
      px      :     0.016925
      py      :     0.015717
 24 O s       :     3.869698  s :     3.869698
      pz      :     1.489429  p :     5.087140
      px      :     1.722825
      py      :     1.874887
      dz2     :     0.002251  d :     0.012095
      dxz     :     0.004831
      dyz     :     0.002739
      dx2y2   :     0.000822
      dxy     :     0.001453
      f0      :     0.000072  f :     0.000874
      f+1     :     0.000334
      f-1     :     0.000172
      f+2     :     0.000060
      f-2     :     0.000189
      f+3     :     0.000015
      f-3     :     0.000032


                     *******************************
                     * LOEWDIN POPULATION ANALYSIS *
                     *******************************

----------------------
LOEWDIN ATOMIC CHARGES
----------------------
   0 C :   -0.128662
   1 C :   -0.104552
   2 C :   -0.133270
   3 C :   -0.107867
   4 C :   -0.414734
   5 C :   -0.143417
   6 H :    0.153688
   7 H :    0.147823
   8 H :    0.158706
   9 Cl:    0.354740
  10 H :    0.153349
  11 C :   -0.223360
  12 C :   -0.274061
  13 H :    0.124310
  14 H :    0.127909
  15 H :    0.135209
  16 N :   -0.030259
  17 O :   -0.060077
  18 O :   -0.061958
  19 H :    0.174382
  20 O :   -0.465523
  21 H :    0.133306
  22 H :    0.113039
  23 H :    0.091948
  24 O :   -0.720668

-------------------------------
LOEWDIN REDUCED ORBITAL CHARGES
-------------------------------
  0 C s       :     2.765407  s :     2.765407
      pz      :     0.885320  p :     2.933546
      px      :     1.031773
      py      :     1.016453
      dz2     :     0.032075  d :     0.386321
      dxz     :     0.058438
      dyz     :     0.038496
      dx2y2   :     0.110556
      dxy     :     0.146756
      f0      :     0.003177  f :     0.043387
      f+1     :     0.004337
      f-1     :     0.003470
      f+2     :     0.006458
      f-2     :     0.003735
      f+3     :     0.008155
      f-3     :     0.014057
  1 C s       :     2.758924  s :     2.758924
      pz      :     0.883884  p :     2.923907
      px      :     0.993853
      py      :     1.046170
      dz2     :     0.025208  d :     0.378718
      dxz     :     0.021538
      dyz     :     0.075493
      dx2y2   :     0.153564
      dxy     :     0.102916
      f0      :     0.003430  f :     0.043002
      f+1     :     0.002288
      f-1     :     0.005004
      f+2     :     0.002251
      f-2     :     0.007429
      f+3     :     0.008009
      f-3     :     0.014591
  2 C s       :     2.707420  s :     2.707420
      pz      :     0.848856  p :     2.847940
      px      :     1.016930
      py      :     0.982154
      dz2     :     0.044233  d :     0.519575
      dxz     :     0.076653
      dyz     :     0.070230
      dx2y2   :     0.161078
      dxy     :     0.167381
      f0      :     0.004314  f :     0.058335
      f+1     :     0.004794
      f-1     :     0.004503
      f+2     :     0.006905
      f-2     :     0.007446
      f+3     :     0.009406
      f-3     :     0.020968
  3 C s       :     2.758397  s :     2.758397
      pz      :     0.898401  p :     2.928626
      px      :     1.024796
      py      :     1.005430
      dz2     :     0.033222  d :     0.377309
      dxz     :     0.054998
      dyz     :     0.040615
      dx2y2   :     0.104425
      dxy     :     0.144049
      f0      :     0.003458  f :     0.043535
      f+1     :     0.004337
      f-1     :     0.003713
      f+2     :     0.006706
      f-2     :     0.003962
      f+3     :     0.008481
      f-3     :     0.012878
  4 C s       :     2.779757  s :     2.779757
      pz      :     0.925248  p :     2.963540
      px      :     0.928021
      py      :     1.110271
      dz2     :     0.047947  d :     0.608285
      dxz     :     0.089519
      dyz     :     0.090934
      dx2y2   :     0.214613
      dxy     :     0.165272
      f0      :     0.004414  f :     0.063153
      f+1     :     0.005194
      f-1     :     0.005188
      f+2     :     0.006737
      f-2     :     0.008517
      f+3     :     0.010834
      f-3     :     0.022270
  5 C s       :     2.767682  s :     2.767682
      pz      :     0.901330  p :     2.951479
      px      :     1.048720
      py      :     1.001430
      dz2     :     0.032091  d :     0.380549
      dxz     :     0.060282
      dyz     :     0.036042
      dx2y2   :     0.111464
      dxy     :     0.140670
      f0      :     0.003428  f :     0.043708
      f+1     :     0.004439
      f-1     :     0.003567
      f+2     :     0.005695
      f-2     :     0.004870
      f+3     :     0.008340
      f-3     :     0.013368
  6 H s       :     0.787093  s :     0.787093
      pz      :     0.013185  p :     0.059219
      px      :     0.017574
      py      :     0.028459
  7 H s       :     0.789899  s :     0.789899
      pz      :     0.014811  p :     0.062278
      px      :     0.036719
      py      :     0.010748
  8 H s       :     0.780681  s :     0.780681
      pz      :     0.013882  p :     0.060613
      px      :     0.018096
      py      :     0.028634
  9 Cls       :     5.557942  s :     5.557942
      pz      :     3.819557  p :    10.978800
      px      :     3.298567
      py      :     3.860676
      dz2     :     0.013012  d :     0.097569
      dxz     :     0.031043
      dyz     :     0.001600
      dx2y2   :     0.032733
      dxy     :     0.019181
[...]
     46      -0.322507   0.438280   0.192925   0.000100   0.000229   0.003925
     47      -0.377114   0.529169   0.237889   0.000144   0.000163   0.004821
     48      -0.000220   0.000380   0.000064  -0.000040   0.000036  -0.000215
     49      -0.000812  -0.000434  -0.000722   0.000035   0.000022   0.000179
     50      -0.000710   0.000656   0.000447   0.000039  -0.000007  -0.000106
     51      -0.000073   0.000014  -0.000251   0.000003  -0.000011   0.000016
     52       0.000358   0.000206   0.000314  -0.000009  -0.000039   0.000004
     53      -0.000068  -0.000050  -0.000427   0.000001  -0.000019   0.000035
     54       0.000120  -0.000062   0.000005  -0.000006   0.000007   0.000107
     55       0.000077   0.000137   0.000157  -0.000011  -0.000018  -0.000066
     56       0.000234  -0.000039  -0.000083  -0.000009  -0.000006   0.000080
     57       0.004357   0.003116  -0.001558  -0.001357   0.000858  -0.000212
     58       0.000950   0.001221   0.000192   0.000363  -0.000159   0.000645
     59      -0.001090  -0.001920   0.001802   0.000420  -0.000280   0.000142
     60       0.000055  -0.000088   0.000008  -0.000057   0.000052  -0.000003
     61       0.000045  -0.000030   0.000004   0.000018  -0.000026   0.000007
     62      -0.000105   0.000040   0.000020  -0.000061   0.000067  -0.000001
     63      -0.000759   0.000895  -0.000103   0.000226  -0.000188   0.000038
     64      -0.000276   0.000204  -0.000116   0.000082  -0.000076   0.000018
     65       0.000090   0.000092  -0.000180  -0.000263   0.000220  -0.000032
     66       0.000492   0.000005  -0.000281   0.000655  -0.000633   0.000059
     67      -0.000589   0.000168  -0.000061  -0.000465   0.000453  -0.000029
     68       0.001505  -0.000448  -0.000106   0.001614  -0.001586   0.000139
     69      -0.000202   0.000209  -0.000038  -0.000195   0.000244   0.000071
     70      -0.000004  -0.000102  -0.000016   0.000521  -0.000490   0.000049
     71      -0.000012  -0.000108   0.000062   0.000415  -0.000292  -0.000069
     72      -0.000104  -0.000040   0.000005   0.000161  -0.000098  -0.000001
     73      -0.000007  -0.000012   0.000014   0.000023  -0.000038   0.000009
     74      -0.000008   0.000040  -0.000017  -0.000167   0.000126  -0.000005
                 72         73         74    
      0       0.019790  -0.000012  -0.000005
      1       0.027605  -0.000008  -0.000002
      2      -0.004531  -0.000000  -0.000003
      3       0.008775   0.000112  -0.000023
      4      -0.001902  -0.000007   0.000006
      5      -0.002326  -0.000026   0.000001
      6      -0.000122  -0.000011   0.000001
      7      -0.000587  -0.000012   0.000004
      8       0.000020   0.000017   0.000001
      9      -0.002278  -0.000006   0.000001
     10      -0.004623   0.000016   0.000001
     11       0.000520   0.000003  -0.000000
     12      -0.002771   0.000003  -0.000002
     13      -0.002436   0.000007   0.000000
     14       0.000676   0.000001   0.000000
     15      -0.037100  -0.000005  -0.000002
     16       0.071534  -0.000007   0.000000
     17       0.010713   0.000005   0.000000
     18      -0.196027  -0.000020  -0.000001
     19      -0.312629  -0.000006   0.000011
     20       0.044200   0.000044   0.000006
     21      -0.090106  -0.000935   0.000390
     22       0.005901  -0.000063  -0.000271
     23       0.023702   0.000060  -0.000120
     24       0.029925  -0.000060  -0.000012
     25       0.047586  -0.000088  -0.000013
     26      -0.007041   0.000055   0.000011
     27       0.000175  -0.000002  -0.000001
     28       0.000017  -0.000003  -0.000001
     29      -0.000041   0.000001   0.000004
     30       0.413669   0.000034  -0.000016
     31      -0.810275  -0.000056   0.000017
     32      -0.119915   0.000028   0.000014
     33       0.000012   0.000196   0.000010
     34       0.000013   0.000041   0.000018
     35       0.000024  -0.000062  -0.000017
     36      -0.000046   0.000028  -0.000025
     37      -0.000035   0.000042  -0.000033
     38       0.000025  -0.000007   0.000012
     39      -0.000218  -0.000144  -0.000250
     40       0.000299   0.000046   0.000314
     41      -0.000038   0.000119  -0.000010
     42       0.000851  -0.000078   0.000080
     43       0.000251  -0.000025   0.000075
     44      -0.000248   0.000117   0.000153
     45      -0.000116  -0.000132  -0.001475
     46      -0.000045  -0.000112  -0.000159
     47      -0.000027  -0.000087  -0.000460
     48      -0.000041  -0.000020  -0.000008
     49       0.000017  -0.000043   0.000001
     50      -0.000054  -0.000044   0.000009
     51       0.000009  -0.000009   0.000002
     52       0.000016   0.000044   0.000000
     53       0.000014  -0.000008  -0.000003
     54       0.000016   0.000019  -0.000002
     55      -0.000004  -0.000014   0.000004
     56       0.000021   0.000019  -0.000003
     57      -0.000040  -0.000861   0.000224
     58       0.000052  -0.000046  -0.000009
     59       0.000069   0.000540  -0.000060
     60      -0.000016  -0.000341  -0.046076
     61       0.000011  -0.000106  -0.010614
     62      -0.000019   0.000248   0.039759
     63       0.000048   0.006176   0.760505
     64       0.000021   0.001447   0.164653
     65      -0.000055  -0.005827  -0.624402
     66       0.000156  -0.004946  -0.027360
     67      -0.000116   0.003273   0.001996
     68       0.000413   0.000964  -0.000406
     69      -0.000095   0.485538  -0.004482
     70       0.000135  -0.317231   0.003331
     71       0.000061  -0.812139   0.006314
     72      -0.000001  -0.030352   0.000264
     73       0.000019   0.019780  -0.000091
     74      -0.000016   0.051213  -0.000765


-----------
IR SPECTRUM
-----------

 Mode   freq       eps      Int      T**2         TX        TY        TZ
       cm**-1   L/(mol*cm) km/mol    a.u.
----------------------------------------------------------------------------
  9:     26.89   0.001921    9.71  0.022299  ( 0.018109  0.129698 -0.071760)
 10:     37.16   0.000350    1.77  0.002940  ( 0.007239  0.050483 -0.018410)
 11:     53.87   0.002829   14.30  0.016392  (-0.049935  0.070201  0.094710)
 12:     57.59   0.001727    8.73  0.009357  ( 0.040360  0.086746 -0.014246)
 13:     89.52   0.000622    3.14  0.002167  ( 0.000392 -0.044042 -0.015081)
 14:    123.36   0.016651   84.15  0.042121  ( 0.117369  0.167232 -0.019472)
 15:    146.46   0.014905   75.32  0.031758  (-0.177959 -0.004449 -0.008309)
 16:    147.40   0.005292   26.74  0.011204  (-0.101879 -0.028653 -0.001873)
 17:    195.25   0.000156    0.79  0.000249  ( 0.004516  0.015117 -0.000206)
 18:    234.15   0.000180    0.91  0.000240  (-0.003254  0.006185 -0.013809)
 19:    261.84   0.001119    5.66  0.001334  ( 0.022640 -0.028631  0.001357)
 20:    311.68   0.000871    4.40  0.000872  ( 0.029203 -0.003321 -0.002928)
 21:    318.70   0.008951   45.23  0.008764  ( 0.061568 -0.028403  0.064553)
 22:    324.16   0.014669   74.13  0.014122  ( 0.032406 -0.034615  0.108966)
 23:    374.52   0.004009   20.26  0.003341  (-0.028433  0.006834 -0.049857)
 24:    386.24   0.040280  203.56  0.032545  (-0.080007  0.059876 -0.150194)
 25:    408.78   0.005455   27.57  0.004164  (-0.061533  0.002276  0.019311)
 26:    449.39   0.000863    4.36  0.000599  ( 0.014691 -0.003278  0.019310)
 27:    478.87   0.003450   17.44  0.002248  ( 0.023541  0.000141 -0.041161)
 28:    550.93   0.005022   25.38  0.002845  (-0.049347 -0.008649 -0.018295)
 29:    605.29   0.003385   17.11  0.001745  (-0.033328  0.025177  0.000853)
 30:    619.21   0.002923   14.77  0.001473  ( 0.000458  0.009473  0.037194)
 31:    625.20   0.010113   51.11  0.005048  ( 0.015194  0.029627 -0.062764)
 32:    697.93   0.007413   37.46  0.003315  (-0.047368  0.021835  0.024373)
 33:    715.40   0.006851   34.62  0.002989  (-0.024937  0.009223 -0.047766)
 34:    761.05   0.006973   35.24  0.002859  ( 0.016742 -0.000898  0.050776)
 35:    812.21   0.006938   35.06  0.002666  ( 0.003458  0.000373  0.051512)
 36:    839.15   0.009216   46.57  0.003427  ( 0.057980  0.006884  0.004263)
 37:    880.68   0.008659   43.76  0.003068  (-0.016347 -0.030481 -0.043265)
 38:    909.74   0.001614    8.15  0.000554  ( 0.011458 -0.013619  0.015387)
 39:    917.73   0.003186   16.10  0.001083  ( 0.002714 -0.011455 -0.030737)
 40:    946.19   0.000076    0.38  0.000025  (-0.003540  0.003527  0.000050)
 41:   1016.53   0.000627    3.17  0.000193  ( 0.002399 -0.010596 -0.008631)
 42:   1017.06   0.000635    3.21  0.000195  (-0.009439  0.009865  0.002906)
 43:   1025.90   0.001802    9.11  0.000548  ( 0.018280  0.014583  0.001153)
 44:   1062.36   0.020181  101.99  0.005928  ( 0.008827  0.070627  0.029360)
 45:   1091.15   0.008403   42.46  0.002403  (-0.033627 -0.034279  0.009864)
 46:   1101.85   0.004474   22.61  0.001267  ( 0.034871  0.003672 -0.006128)
 47:   1119.16   0.005208   26.32  0.001452  (-0.030082  0.018162  0.014748)
 48:   1134.92   0.001000    5.05  0.000275  (-0.011746 -0.011680  0.000739)
 49:   1147.93   0.006024   30.44  0.001638  (-0.039825  0.000793  0.007135)
 50:   1187.85   0.000014    0.07  0.000004  (-0.000025  0.001799  0.000745)
 51:   1279.64   0.015794   79.82  0.003852  ( 0.047292 -0.040181  0.000725)
 52:   1314.50   0.005131   25.93  0.001218  ( 0.030833 -0.014758  0.007044)
 53:   1342.41   0.000359    1.81  0.000083  ( 0.008618 -0.002399  0.001844)
 54:   1377.10   0.053296  269.34  0.012077  ( 0.056235  0.066079  0.067444)
 55:   1411.75   0.018317   92.57  0.004049  ( 0.029334  0.017740  0.053607)
 56:   1454.40   0.006385   32.27  0.001370  ( 0.036503 -0.003498 -0.005033)
 57:   1476.43   0.000582    2.94  0.000123  (-0.006361 -0.003971 -0.008176)
 58:   1480.58   0.004962   25.08  0.001046  ( 0.028023 -0.007426  0.014335)
 59:   1510.11   0.009125   46.11  0.001886  ( 0.040548 -0.013654 -0.007425)
 60:   1534.92   0.136279  688.70  0.027707  ( 0.041169 -0.146062  0.068395)
 61:   1607.53   0.009951   50.29  0.001932  ( 0.043216 -0.000280 -0.007999)
 62:   1637.13   0.004530   22.90  0.000864  ( 0.018984 -0.022302 -0.002408)
 63:   1676.99   0.015046   76.04  0.002800  (-0.052174  0.008578  0.002048)
 64:   1995.40   0.155032  783.47  0.024246  ( 0.148771  0.015720  0.043194)
 65:   2256.05   0.599011  3027.16  0.082857  ( 0.106434 -0.090705  0.251598)
 66:   3048.31   0.003311   16.73  0.000339  (-0.002615 -0.007338  0.016681)
 67:   3113.95   0.004167   21.06  0.000418  (-0.017538 -0.009899 -0.003470)
 68:   3135.83   0.004531   22.90  0.000451  ( 0.012798 -0.016233 -0.004862)
 69:   3177.35   0.001065    5.38  0.000105  (-0.009829 -0.002011  0.001990)
 70:   3188.80   0.001314    6.64  0.000129  (-0.001584 -0.011217  0.000514)
 71:   3192.76   0.000019    0.10  0.000002  ( 0.000548  0.001178 -0.000406)
 72:   3204.76   0.000728    3.68  0.000071  (-0.000398  0.008412 -0.000009)
 73:   3785.77   0.000046    0.23  0.000004  (-0.000357  0.001461  0.001224)
 74:   3829.83   0.005029   25.41  0.000410  ( 0.011062  0.004652 -0.016302)

* The epsilon (eps) is given for a Dirac delta lineshape.
** The dipole moment derivative (T) already includes vibrational overlap.

The first frequency considered to be a vibration is 9
The total number of vibrations considered is 66


--------------------------
THERMOCHEMISTRY AT 298.15K
--------------------------

Temperature         ... 298.15 K
Pressure            ... 1.00 atm
Total Mass          ... 221.62 AMU

Throughout the following assumptions are being made:
  (1) The electronic state is orbitally nondegenerate
  (2) There are no thermally accessible electronically excited states
  (3) Hindered rotations indicated by low frequency modes are not
      treated as such but are treated as vibrations and this may
      cause some error
  (4) All equations used are the standard statistical mechanics
      equations for an ideal gas
  (5) All vibrations are strictly harmonic

freq.      26.89  E(vib)   ...       0.55 
freq.      37.16  E(vib)   ...       0.54 
freq.      53.87  E(vib)   ...       0.52 
freq.      57.59  E(vib)   ...       0.51 
freq.      89.52  E(vib)   ...       0.47 
freq.     123.36  E(vib)   ...       0.43 
freq.     146.46  E(vib)   ...       0.41 
freq.     147.40  E(vib)   ...       0.41 
freq.     195.25  E(vib)   ...       0.36 
freq.     234.15  E(vib)   ...       0.32 
freq.     261.84  E(vib)   ...       0.29 
freq.     311.68  E(vib)   ...       0.25 
freq.     318.70  E(vib)   ...       0.25 
freq.     324.16  E(vib)   ...       0.25 
freq.     374.52  E(vib)   ...       0.21 
freq.     386.24  E(vib)   ...       0.20 
freq.     408.78  E(vib)   ...       0.19 
freq.     449.39  E(vib)   ...       0.17 
freq.     478.87  E(vib)   ...       0.15 
freq.     550.93  E(vib)   ...       0.12 
freq.     605.29  E(vib)   ...       0.10 
freq.     619.21  E(vib)   ...       0.09 
freq.     625.20  E(vib)   ...       0.09 
freq.     697.93  E(vib)   ...       0.07 
freq.     715.40  E(vib)   ...       0.07 
freq.     761.05  E(vib)   ...       0.06 
freq.     812.21  E(vib)   ...       0.05 
freq.     839.15  E(vib)   ...       0.04 
freq.     880.68  E(vib)   ...       0.04 
freq.     909.74  E(vib)   ...       0.03 
freq.     917.73  E(vib)   ...       0.03 
freq.     946.19  E(vib)   ...       0.03 
freq.    1016.53  E(vib)   ...       0.02 
freq.    1017.06  E(vib)   ...       0.02 
freq.    1025.90  E(vib)   ...       0.02 
freq.    1062.36  E(vib)   ...       0.02 
freq.    1091.15  E(vib)   ...       0.02 
freq.    1101.85  E(vib)   ...       0.02 
freq.    1119.16  E(vib)   ...       0.01 
freq.    1134.92  E(vib)   ...       0.01 
freq.    1147.93  E(vib)   ...       0.01 
freq.    1187.85  E(vib)   ...       0.01 
freq.    1279.64  E(vib)   ...       0.01 
freq.    1314.50  E(vib)   ...       0.01 
freq.    1342.41  E(vib)   ...       0.01 
freq.    1377.10  E(vib)   ...       0.01 
freq.    1411.75  E(vib)   ...       0.00 
freq.    1454.40  E(vib)   ...       0.00 
freq.    1476.43  E(vib)   ...       0.00 
freq.    1480.58  E(vib)   ...       0.00 
freq.    1510.11  E(vib)   ...       0.00 
freq.    1534.92  E(vib)   ...       0.00 
freq.    1607.53  E(vib)   ...       0.00 
freq.    1637.13  E(vib)   ...       0.00 
freq.    1676.99  E(vib)   ...       0.00 
freq.    1995.40  E(vib)   ...       0.00 
freq.    2256.05  E(vib)   ...       0.00 
freq.    3048.31  E(vib)   ...       0.00 
freq.    3113.95  E(vib)   ...       0.00 
freq.    3135.83  E(vib)   ...       0.00 
freq.    3177.35  E(vib)   ...       0.00 
freq.    3188.80  E(vib)   ...       0.00 
freq.    3192.76  E(vib)   ...       0.00 
freq.    3204.76  E(vib)   ...       0.00 
freq.    3785.77  E(vib)   ...       0.00 
freq.    3829.83  E(vib)   ...       0.00 

------------
INNER ENERGY
------------

The inner energy is: U= E(el) + E(ZPE) + E(vib) + E(rot) + E(trans)
    E(el)   - is the total energy from the electronic structure calculation
              = E(kin-el) + E(nuc-el) + E(el-el) + E(nuc-nuc)
    E(ZPE)  - the the zero temperature vibrational energy from the frequency calculation
    E(vib)  - the the finite temperature correction to E(ZPE) due to population
              of excited vibrational states
    E(rot)  - is the rotational thermal energy
    E(trans)- is the translational thermal energy

Summary of contributions to the inner energy U:
Electronic energy                ...  -1127.29305450 Eh
Zero point energy                ...      0.17825185 Eh     111.85 kcal/mol
Thermal vibrational correction   ...      0.01198915 Eh       7.52 kcal/mol
Thermal rotational correction    ...      0.00141627 Eh       0.89 kcal/mol
Thermal translational correction ...      0.00141627 Eh       0.89 kcal/mol
-----------------------------------------------------------------------
Total thermal energy                  -1127.09998095 Eh


Summary of corrections to the electronic energy:
(perhaps to be used in another calculation)
Total thermal correction                  0.01482170 Eh       9.30 kcal/mol
Non-thermal (ZPE) correction              0.17825185 Eh     111.85 kcal/mol
-----------------------------------------------------------------------
Total correction                          0.19307355 Eh     121.16 kcal/mol


--------
ENTHALPY
--------

The enthalpy is H = U + kB*T
                kB is Boltzmann's constant
Total free energy                 ...  -1127.09998095 Eh 
Thermal Enthalpy correction       ...      0.00094421 Eh       0.59 kcal/mol
-----------------------------------------------------------------------
Total Enthalpy                    ...  -1127.09903674 Eh


Note: Only C1 symmetry has been detected, increase convergence thresholds 
      if your molecule has a higher symmetry. Symmetry factor of 1.0 is   
      used for the rotational entropy correction. 
 

Note: Rotational entropy computed according to Herzberg 
Infrared and Raman Spectra, Chapter V,1, Van Nostrand Reinhold, 1945 
Point Group:  C1, Symmetry Number:   1  
Rotational constants in cm-1:     0.026156     0.010183     0.008673 

Vibrational entropy computed according to the QRRHO of S. Grimme
Chem.Eur.J. 2012 18 9955


-------
ENTROPY
-------

The entropy contributions are T*S = T*(S(el)+S(vib)+S(rot)+S(trans))
     S(el)   - electronic entropy
     S(vib)  - vibrational entropy
     S(rot)  - rotational entropy
     S(trans)- translational entropy
The entropies will be listed as multiplied by the temperature to get
units of energy

Electronic entropy                ...      0.00000000 Eh      0.00 kcal/mol
Vibrational entropy               ...      0.02148851 Eh     13.48 kcal/mol
Rotational entropy                ...      0.01563771 Eh      9.81 kcal/mol
Translational entropy             ...      0.01999833 Eh     12.55 kcal/mol
-----------------------------------------------------------------------
Final entropy term                ...      0.05712455 Eh     35.85 kcal/mol

In case the symmetry of your molecule has not been determined correctly
or in case you have a reason to use a different symmetry number we print 
out the resulting rotational entropy values for sn=1,12 :
 --------------------------------------------------------
|  sn= 1 | S(rot)=       0.01563771 Eh      9.81 kcal/mol|
|  sn= 2 | S(rot)=       0.01498325 Eh      9.40 kcal/mol|
|  sn= 3 | S(rot)=       0.01460042 Eh      9.16 kcal/mol|
|  sn= 4 | S(rot)=       0.01432880 Eh      8.99 kcal/mol|
|  sn= 5 | S(rot)=       0.01411811 Eh      8.86 kcal/mol|
|  sn= 6 | S(rot)=       0.01394596 Eh      8.75 kcal/mol|
|  sn= 7 | S(rot)=       0.01380042 Eh      8.66 kcal/mol|
|  sn= 8 | S(rot)=       0.01367434 Eh      8.58 kcal/mol|
|  sn= 9 | S(rot)=       0.01356313 Eh      8.51 kcal/mol|
|  sn=10 | S(rot)=       0.01346365 Eh      8.45 kcal/mol|
|  sn=11 | S(rot)=       0.01337366 Eh      8.39 kcal/mol|
|  sn=12 | S(rot)=       0.01329151 Eh      8.34 kcal/mol|
 --------------------------------------------------------


-------------------
GIBBS FREE ENERGY
-------------------

The Gibbs free energy is G = H - T*S

Total enthalpy                    ...  -1127.09903674 Eh 
Total entropy correction          ...     -0.05712455 Eh    -35.85 kcal/mol
-----------------------------------------------------------------------
Final Gibbs free energy         ...  -1127.15616129 Eh

For completeness - the Gibbs free energy minus the electronic energy
G-E(el)                           ...      0.13689321 Eh     85.90 kcal/mol



Timings for individual modules:

Sum of individual times         ...     1429.157 sec (=  23.819 min)
GTO integral calculation        ...        9.270 sec (=   0.155 min)   0.6 %
SCF iterations                  ...       94.156 sec (=   1.569 min)   6.6 %
SCF Gradient evaluation         ...       20.959 sec (=   0.349 min)   1.5 %
Numerical frequency calculation ...     1304.771 sec (=  21.746 min)  91.3 %
                             ****ORCA TERMINATED NORMALLY****
TOTAL RUN TIME: 0 days 0 hours 22 minutes 51 seconds 119 msec
