
                                 *****************
                                 * O   R   C   A *
                                 *****************

                                            #,                                       
                                            ###                                      
                                            ####                                     
                                            #####                                    
                                            ######                                   
                                           ########,                                 
                                     ,,################,,,,,                         
                               ,,#################################,,                 
                          ,,##########################################,,             
                       ,#########################################, ''#####,          
                    ,#############################################,,   '####,        
                  ,##################################################,,,,####,       
                ,###########''''           ''''###############################       
              ,#####''   ,,,,##########,,,,          '''####'''          '####       
            ,##' ,,,,###########################,,,                        '##       
           ' ,,###''''                  '''############,,,                           
         ,,##''                                '''############,,,,        ,,,,,,###''
      ,#''                                            '''#######################'''  
     '                                                          ''''####''''         
             ,#######,   #######,   ,#######,      ##                                
            ,#'     '#,  ##    ##  ,#'     '#,    #''#        ######   ,####,        
            ##       ##  ##   ,#'  ##            #'  '#       #        #'  '#        
            ##       ##  #######   ##           ,######,      #####,   #    #        
            '#,     ,#'  ##    ##  '#,     ,#' ,#      #,         ##   #,  ,#        
             '#######'   ##     ##  '#######'  #'      '#     #####' # '####'        



                  #######################################################
                  #                        -***-                        #
                  #          Department of theory and spectroscopy      #
                  #    Directorship and core code : Frank Neese         #
                  #        Max Planck Institute fuer Kohlenforschung    #
                  #                Kaiser Wilhelm Platz 1               #
                  #                 D-45470 Muelheim/Ruhr               #
                  #                      Germany                        #
                  #                                                     #
                  #                  All rights reserved                #
                  #                        -***-                        #
                  #######################################################


                         Program Version 5.0.4 -  RELEASE  -


 With contributions from (in alphabetic order):
   Daniel Aravena         : Magnetic Suceptibility
   Michael Atanasov       : Ab Initio Ligand Field Theory (pilot matlab implementation)
   Alexander A. Auer      : GIAO ZORA, VPT2 properties, NMR spectrum
   Ute Becker             : Parallelization
   Giovanni Bistoni       : ED, misc. LED, open-shell LED, HFLD
   Martin Brehm           : Molecular dynamics
   Dmytro Bykov           : SCF Hessian
   Vijay G. Chilkuri      : MRCI spin determinant printing, contributions to CSF-ICE
   Dipayan Datta          : RHF DLPNO-CCSD density
   Achintya Kumar Dutta   : EOM-CC, STEOM-CC
   Dmitry Ganyushin       : Spin-Orbit,Spin-Spin,Magnetic field MRCI
   Miquel Garcia          : C-PCM and meta-GGA Hessian, CC/C-PCM, Gaussian charge scheme
   Yang Guo               : DLPNO-NEVPT2, F12-NEVPT2, CIM, IAO-localization
   Andreas Hansen         : Spin unrestricted coupled pair/coupled cluster methods
   Benjamin Helmich-Paris : MC-RPA, TRAH-SCF, COSX integrals
   Lee Huntington         : MR-EOM, pCC
   Robert Izsak           : Overlap fitted RIJCOSX, COSX-SCS-MP3, EOM
   Marcus Kettner         : VPT2
   Christian Kollmar      : KDIIS, OOCD, Brueckner-CCSD(T), CCSD density, CASPT2, CASPT2-K
   Simone Kossmann        : Meta GGA functionals, TD-DFT gradient, OOMP2, MP2 Hessian
   Martin Krupicka        : Initial AUTO-CI
   Lucas Lang             : DCDCAS
   Marvin Lechner         : AUTO-CI (C++ implementation), FIC-MRCC
   Dagmar Lenk            : GEPOL surface, SMD
   Dimitrios Liakos       : Extrapolation schemes; Compound Job, initial MDCI parallelization
   Dimitrios Manganas     : Further ROCIS development; embedding schemes
   Dimitrios Pantazis     : SARC Basis sets
   Anastasios Papadopoulos: AUTO-CI, single reference methods and gradients
   Taras Petrenko         : DFT Hessian,TD-DFT gradient, ASA, ECA, R-Raman, ABS, FL, XAS/XES, NRVS
   Peter Pinski           : DLPNO-MP2, DLPNO-MP2 Gradient
   Christoph Reimann      : Effective Core Potentials
   Marius Retegan         : Local ZFS, SOC
   Christoph Riplinger    : Optimizer, TS searches, QM/MM, DLPNO-CCSD(T), (RO)-DLPNO pert. Triples
   Tobias Risthaus        : Range-separated hybrids, TD-DFT gradient, RPA, STAB
   Michael Roemelt        : Original ROCIS implementation
   Masaaki Saitow         : Open-shell DLPNO-CCSD energy and density
   Barbara Sandhoefer     : DKH picture change effects
   Avijit Sen             : IP-ROCIS
   Kantharuban Sivalingam : CASSCF convergence, NEVPT2, FIC-MRCI
   Bernardo de Souza      : ESD, SOC TD-DFT
   Georgi Stoychev        : AutoAux, RI-MP2 NMR, DLPNO-MP2 response
   Willem Van den Heuvel  : Paramagnetic NMR
   Boris Wezisla          : Elementary symmetry handling
   Frank Wennmohs         : Technical directorship


 We gratefully acknowledge several colleagues who have allowed us to
 interface, adapt or use parts of their codes:
   Stefan Grimme, W. Hujo, H. Kruse, P. Pracht,  : VdW corrections, initial TS optimization,
                  C. Bannwarth, S. Ehlert          DFT functionals, gCP, sTDA/sTD-DF
   Ed Valeev, F. Pavosevic, A. Kumar             : LibInt (2-el integral package), F12 methods
   Garnet Chan, S. Sharma, J. Yang, R. Olivares  : DMRG
   Ulf Ekstrom                                   : XCFun DFT Library
   Mihaly Kallay                                 : mrcc  (arbitrary order and MRCC methods)
   Jiri Pittner, Ondrej Demel                    : Mk-CCSD
   Frank Weinhold                                : gennbo (NPA and NBO analysis)
   Christopher J. Cramer and Donald G. Truhlar   : smd solvation model
   Lars Goerigk                                  : TD-DFT with DH, B97 family of functionals
   V. Asgeirsson, H. Jonsson                     : NEB implementation
   FAccTs GmbH                                   : IRC, NEB, NEB-TS, DLPNO-Multilevel, CI-OPT
                                                   MM, QMMM, 2- and 3-layer-ONIOM, Crystal-QMMM,
                                                   LR-CPCM, SF, NACMEs, symmetry and pop. for TD-DFT,
                                                   nearIR, NL-DFT gradient (VV10), updates on ESD,
                                                   ML-optimized integration grids
   S Lehtola, MJT Oliveira, MAL Marques          : LibXC Library
   Liviu Ungur et al                             : ANISO software


 Your calculation uses the libint2 library for the computation of 2-el integrals
 For citations please refer to: http://libint.valeyev.net

 Your ORCA version has been built with support for libXC version: 5.1.0
 For citations please refer to: https://tddft.org/programs/libxc/

 This ORCA versions uses:
   CBLAS   interface :  Fast vector & matrix operations
   LAPACKE interface :  Fast linear algebra routines
   SCALAPACK package :  Parallel linear algebra routines
   Shared memory     :  Shared parallel matrices
   BLAS/LAPACK       :  OpenBLAS 0.3.15  USE64BITINT DYNAMIC_ARCH NO_AFFINITY Prescott SINGLE_THREADED
        Core in use  :  Prescott
   Copyright (c) 2011-2014, The OpenBLAS Project


Your calculation utilizes the atom-pairwise dispersion correction
with the Becke-Johnson damping scheme (D3BJ)
Cite in your paper:
S.Grimme, S.Ehrlich, L.Goerigk, J Comput Chem, (2011), 32, 1456–1465 
S.Grimme, J.Antony, S.Ehrlich and H.Krieg, J.Chem.Phys., 132, (2010), 154104 
   

================================================================================

----- Orbital basis set information -----
Your calculation utilizes the basis: def2-TZVP
   F. Weigend and R. Ahlrichs, Phys. Chem. Chem. Phys. 7, 3297 (2005).

----- AuxJ basis set information -----
Your calculation utilizes the auxiliary basis: def2/J
   F. Weigend, Phys. Chem. Chem. Phys. 8, 1057 (2006).

================================================================================
                                        WARNINGS
                       Please study these warnings very carefully!
================================================================================


WARNING: Geometry Optimization
  ===> : Switching off AutoStart
         For restart on a previous wavefunction, please use MOREAD

INFO   : the flag for use of the SHARK integral package has been found!

================================================================================
                                       INPUT FILE
================================================================================
NAME = /home/rudenko/mop_saddle_orca_4_serv/for_orca/p-o2nc6h4chno2ch3_oh/orca/orca_end/end.inp
|  1> !  opt B3LYP def2-TZVP CPCM D3 
|  2> %pal nprocs 102 end
|  3> %cpcm epsilon 78.4 end 
|  4> *xyz -1 1 
|  5> C   0.11175832 1.08718009 0.93417962
|  6> C   0.24293951 1.32294199 -0.42266506
|  7> C   0.17506409 0.26973435 -1.35761678
|  8> C   0.02220332 -1.04733242 -0.86775228
|  9> C   -0.10948162 -1.29830062 0.48412144
| 10> C   -0.08028398 -0.22614694 1.39190241
| 11> H   0.15551304 1.9172039 1.64859207
| 12> H   0.40346087 2.3479365 -0.7669491
| 13> H   -0.01314582 -1.88463015 -1.56697483
| 14> C   0.2467326 0.48405769 -2.77956527
| 15> H   2.24644911 1.25564327 -2.92751848
| 16> C   0.63776806 -0.64533444 -3.67671897
| 17> H   0.96681657 -0.30380525 -4.67049986
| 18> H   -0.20243896 -1.33548897 -3.84606453
| 19> H   1.46828699 -1.23382166 -3.25918048
| 20> N   -0.14421173 1.64092332 -3.36082237
| 21> O   -0.15375724 1.76847218 -4.60934693
| 22> O   -0.50537527 2.63346471 -2.68674929
| 23> O   5.27864752 2.83647514 -3.03075641
| 24> H   6.00058933 2.23261582 -2.83170762
| 25> H   -0.24622217 -2.32250148 0.84724683
| 26> N   -0.24939549 -0.47425743 2.78636538
| 27> O   -0.37643981 -1.62796617 3.18852407
| 28> O   -0.27219602 0.46933002 3.5727237
| 29> H   3.37091739 0.52658175 -2.18533791
| 30> H   4.48619923 2.28340503 -2.98839786
| 31> O   3.20203785 1.13067803 -2.92127008
| 32> *
| 33> 
| 34>                          ****END OF INPUT****
================================================================================

                       *****************************
                       * Geometry Optimization Run *
                       *****************************

Geometry optimization settings:
Update method            Update   .... BFGS
Choice of coordinates    CoordSys .... Z-matrix Internals
Initial Hessian          InHess   .... Almoef's Model

Convergence Tolerances:
Energy Change            TolE     ....  5.0000e-06 Eh
Max. Gradient            TolMAXG  ....  3.0000e-04 Eh/bohr
RMS Gradient             TolRMSG  ....  1.0000e-04 Eh/bohr
Max. Displacement        TolMAXD  ....  4.0000e-03 bohr
RMS Displacement         TolRMSD  ....  2.0000e-03 bohr
Strict Convergence                ....  False
------------------------------------------------------------------------------
                        ORCA OPTIMIZATION COORDINATE SETUP
------------------------------------------------------------------------------

The optimization will be done in new redundant internal coordinates
Making redundant internal coordinates   ...  (new redundants) done
Evaluating the initial hessian          ...  (Almloef) done
Evaluating the coordinates              ...  done
Calculating the B-matrix                .... done
Calculating the G-matrix                .... done
Diagonalizing the G-matrix              .... done
The first mode is                       ....  199
The number of degrees of freedom        ....   75

    -----------------------------------------------------------------
                    Redundant Internal Coordinates


    -----------------------------------------------------------------
         Definition                    Initial Value    Approx d2E/dq
    -----------------------------------------------------------------
      1. B(C   1,C   0)                  1.3834         0.640110   
      2. B(C   2,C   1)                  1.4100         0.580622   
      3. B(C   3,C   2)                  1.4135         0.573108   
      4. B(C   4,C   3)                  1.3813         0.645175   
      5. B(C   5,C   0)                  1.4040         0.593473   
      6. B(C   5,C   4)                  1.4051         0.590984   
      7. B(H   6,C   0)                  1.0960         0.352236   
      8. B(H   7,C   1)                  1.0931         0.355996   
      9. B(H   8,C   3)                  1.0914         0.358207   
     10. B(C   9,C   2)                  1.4398         0.520349   
     11. B(H  10,C   2)                  2.7798         0.000725   
     12. B(H  10,C   9)                  2.1485         0.007373   
     13. B(C  11,C   9)                  1.4944         0.425724   
     14. B(C  11,H  10)                  2.6006         0.001401   
     15. B(H  12,C  11)                  1.1011         0.345657   
     16. B(H  12,H  10)                  2.6660         0.000211   
     17. B(H  13,C  11)                  1.1004         0.346568   
     18. B(H  14,H  10)                  2.6293         0.000241   
     19. B(H  14,C  11)                  1.1002         0.346870   
     20. B(N  15,H  10)                  2.4600         0.002103   
     21. B(N  15,C   9)                  1.3524         0.642443   
     22. B(O  16,N  15)                  1.2551         0.822815   
     23. B(O  17,N  15)                  1.2530         0.829131   
     24. B(H  19,O  18)                  0.9620         0.516128   
     25. B(H  20,C   4)                  1.0952         0.353238   
     26. B(N  21,C   5)                  1.4264         0.489513   
     27. B(O  22,N  21)                  1.2284         0.907544   
     28. B(O  23,N  21)                  1.2285         0.907109   
     29. B(H  25,O  18)                  0.9673         0.506211   
     30. B(H  25,H  24)                  2.2305         0.001044   
     31. B(O  26,H  24)                  0.9670         0.506794   
     32. B(O  26,H  10)                  0.9637         0.512851   
     33. B(O  26,H  25)                  1.7269         0.031070   
     34. A(C   5,C   0,H   6)          120.0900         0.349007   
     35. A(C   1,C   0,H   6)          120.4287         0.353497   
     36. A(C   1,C   0,C   5)          119.4812         0.433145   
     37. A(C   0,C   1,C   2)          121.2321         0.431444   
     38. A(C   0,C   1,H   7)          118.8575         0.354134   
     39. A(C   2,C   1,H   7)          119.9103         0.348344   
     40. A(C   3,C   2,H  10)          127.3568         0.152610   
     41. A(C   1,C   2,C   9)          122.7720         0.415760   
     42. A(C   3,C   2,C   9)          119.1008         0.414798   
     43. A(C   1,C   2,H  10)           94.2259         0.152798   
     44. A(C   1,C   2,C   3)          118.1261         0.422981   
     45. A(C   9,C   2,H  10)           49.6360         0.151235   
     46. A(C   2,C   3,C   4)          121.2514         0.431046   
     47. A(C   4,C   3,H   8)          118.9823         0.354980   
     48. A(C   2,C   3,H   8)          119.7551         0.347944   
     49. A(C   3,C   4,C   5)          119.4509         0.433432   
     50. A(C   3,C   4,H  20)          120.4182         0.354140   
     51. A(C   5,C   4,H  20)          120.1278         0.348927   
     52. A(C   0,C   5,C   4)          120.3955         0.426981   
     53. A(C   4,C   5,N  21)          119.7610         0.409903   
     54. A(C   0,C   5,N  21)          119.8433         0.410208   
     55. A(C   2,C   9,C  11)          119.5656         0.393597   
     56. A(C   2,C   9,N  15)          122.5073         0.420578   
     57. A(H  10,C   9,N  15)           86.1156         0.198427   
     58. A(H  10,C   9,C  11)           89.2278         0.189523   
     59. A(C   2,C   9,H  10)           99.6598         0.194195   
     60. A(C  11,C   9,N  15)          117.6508         0.405852   
     61. A(H  12,H  10,H  14)           38.8875         0.093580   
     62. A(C  11,H  10,H  14)           24.2800         0.097792   
     63. A(C   9,H  10,H  14)           52.6407         0.101803   
     64. A(C   2,H  10,H  14)           60.9801         0.096574   
     65. A(H  14,H  10,O  26)           99.8753         0.122053   
     66. A(C  11,H  10,H  12)           24.0960         0.097528   
     67. A(C   2,H  10,H  12)           78.7027         0.096347   
     68. A(H  12,H  10,O  26)          113.8484         0.121060   
     69. A(C   2,H  10,C  11)           56.1164         0.103104   
     70. A(C  11,H  10,O  26)          121.3618         0.150546   
     71. A(C  11,H  10,N  15)           57.4917         0.106738   
     72. A(C   9,H  10,H  12)           52.2805         0.101418   
     73. A(C   2,H  10,C   9)           30.7042         0.109539   
     74. A(C   9,H  10,O  26)          151.1463         0.178627   
     75. A(C   2,H  10,O  26)          133.5669         0.142025   
     76. A(H  12,H  10,N  15)           60.6586         0.098240   
     77. A(C   9,H  10,N  15)           33.2647         0.114831   
     78. A(C   2,H  10,N  15)           55.3098         0.104282   
     79. A(N  15,H  10,O  26)          170.0804         0.155687   
     80. A(H  14,H  10,N  15)           80.7031         0.098526   
     81. A(C   9,H  10,C  11)           35.0721         0.112840   
     82. A(H  10,C  11,H  14)           79.3214         0.145997   
     83. A(H  10,C  11,H  13)          167.1878         0.145986   
     84. A(H  10,C  11,H  12)           81.2821         0.145952   
     85. A(C   9,C  11,H  10)           55.7002         0.158029   
     86. A(H  13,C  11,H  14)          107.4162         0.287409   
     87. A(H  12,C  11,H  14)          106.4295         0.287291   
     88. A(C   9,C  11,H  14)          111.9582         0.329338   
     89. A(H  12,C  11,H  13)          106.4869         0.287252   
     90. A(C   9,C  11,H  13)          111.5044         0.329290   
     91. A(C   9,C  11,H  12)          112.6805         0.329147   
     92. A(H  10,H  12,C  11)           74.6219         0.118667   
     93. A(H  10,H  14,C  11)           76.3986         0.119610   
     94. A(C   9,N  15,H  10)           60.6197         0.170420   
     95. A(O  16,N  15,O  17)          116.9029         0.469010   
     96. A(C   9,N  15,O  17)          121.9860         0.451353   
     97. A(C   9,N  15,O  16)          121.1101         0.450726   
     98. A(H  10,N  15,O  17)          108.0248         0.174536   
     99. A(H  10,N  15,O  16)          101.4512         0.174388   
    100. A(H  19,O  18,H  25)          104.2904         0.320039   
    101. A(C   5,N  21,O  22)          119.7147         0.436768   
    102. A(O  22,N  21,O  23)          120.6576         0.485519   
    103. A(C   5,N  21,O  23)          119.6270         0.436731   
    104. A(H  25,H  24,O  26)           47.2550         0.134924   
    105. A(H  24,H  25,O  26)           24.2806         0.113412   
    106. A(O  18,H  25,O  26)          172.9998         0.211310   
    107. A(O  18,H  25,H  24)          151.1330         0.134912   
    108. A(H  24,O  26,H  25)          108.4644         0.211342   
    109. A(H  10,O  26,H  25)          130.5796         0.211671   
    110. A(H  10,O  26,H  24)          105.0172         0.319767   
    111. D(C   2,C   1,C   0,H   6)   -179.3166         0.028469   
    112. D(H   7,C   1,C   0,H   6)      0.7769         0.028469   
    113. D(C   2,C   1,C   0,C   5)      0.5952         0.028469   
    114. D(H   7,C   1,C   0,C   5)   -179.3113         0.028469   
    115. D(H  10,C   2,C   1,C   0)   -139.3316         0.025153   
    116. D(C   9,C   2,C   1,C   0)    177.1182         0.025153   
    117. D(H  10,C   2,C   1,H   7)     40.5740         0.025153   
    118. D(C   3,C   2,C   1,H   7)    177.4098         0.025153   
    119. D(C   9,C   2,C   1,H   7)     -2.9762         0.025153   
    120. D(C   3,C   2,C   1,C   0)     -2.4957         0.025153   
    121. D(C   4,C   3,C   2,C   9)   -177.1683         0.024474   
    122. D(H   8,C   3,C   2,C   9)      1.5989         0.024474   
    123. D(C   4,C   3,C   2,C   1)      2.4602         0.024474   
    124. D(C   4,C   3,C   2,H  10)    123.3351         0.024474   
    125. D(H   8,C   3,C   2,C   1)   -178.7726         0.024474   
    126. D(H   8,C   3,C   2,H  10)    -57.8977         0.024474   
    127. D(C   5,C   4,C   3,H   8)   -179.2989         0.028952   
    128. D(H  20,C   4,C   3,H   8)      0.0594         0.028952   
    129. D(H  20,C   4,C   3,C   2)    178.8359         0.028952   
    130. D(C   5,C   4,C   3,C   2)     -0.5223         0.028952   
    131. D(N  21,C   5,C   4,H  20)     -0.9353         0.024039   
    132. D(C   4,C   5,C   0,C   1)      1.4211         0.024253   
    133. D(C   0,C   5,C   4,H  20)    179.1841         0.024039   
    134. D(N  21,C   5,C   0,C   1)   -178.4594         0.024253   
    135. D(N  21,C   5,C   0,H   6)      1.4528         0.024253   
    136. D(C   4,C   5,C   0,H   6)   -178.6668         0.024253   
    137. D(N  21,C   5,C   4,C   3)    178.4248         0.024039   
    138. D(C   0,C   5,C   4,C   3)     -1.4557         0.024039   
    139. D(C  11,C   9,C   2,C   3)    -21.3581         0.021489   
    140. D(N  15,C   9,C   2,C   3)    152.4589         0.021489   
    141. D(C  11,C   9,C   2,H  10)     94.6368         0.021489   
    142. D(C  11,C   9,C   2,C   1)    159.0315         0.021489   
    143. D(N  15,C   9,C   2,H  10)    -91.5461         0.021489   
    144. D(N  15,C   9,C   2,C   1)    -27.1515         0.021489   
    145. D(H  10,C   9,C   2,C   3)   -115.9950         0.021489   
    146. D(H  10,C   9,C   2,C   1)     64.3947         0.021489   
    147. D(H  12,H  10,C   9,N  15)    -92.8455         0.001538   
    148. D(C  11,H  10,C   9,N  15)   -117.7819         0.001538   
    149. D(H  12,H  10,C   9,C  11)     24.9364         0.001538   
    150. D(C   2,H  10,C   9,N  15)    122.3327         0.001538   
    151. D(C   2,H  10,C   9,C  11)   -119.8854         0.001538   
    152. D(O  26,H  10,C   9,N  15)   -162.6906         0.001538   
    153. D(O  26,H  10,C   9,C   2)     74.9767         0.001538   
    154. D(N  15,H  10,C   2,C   9)     34.3093         0.001500   
    155. D(N  15,H  10,C   2,C   3)    133.1781         0.001500   
    156. D(N  15,H  10,C   2,C   1)    -96.1981         0.001500   
    157. D(H  14,H  10,C   2,C   9)    -64.8576         0.001500   
    158. D(H  14,H  10,C   2,C   3)     34.0112         0.001500   
    159. D(H  14,H  10,C   2,C   1)    164.6351         0.001500   
    160. D(C   9,H  10,C   2,C   1)   -130.5074         0.001500   
    161. D(C  11,H  10,C   2,C   9)    -36.8780         0.001500   
    162. D(C  11,H  10,C   2,C   3)     61.9908         0.001500   
    163. D(C  11,H  10,C   2,C   1)   -167.3854         0.001500   
    164. D(O  26,H  10,C   9,C  11)    -44.9087         0.001538   
    165. D(H  12,H  10,C   2,C   9)    -27.6925         0.001500   
    166. D(C   9,H  10,C   2,C   3)     98.8688         0.001500   
    167. D(O  26,H  10,C   2,C   3)    -41.0965         0.001500   
    168. D(C  11,H  10,C   9,C   2)    119.8854         0.001538   
    169. D(O  26,H  10,C   2,C   1)     89.5273         0.001500   
    170. D(H  12,H  10,C   9,C   2)    144.8218         0.001538   
    171. D(O  26,H  10,C   2,C   9)   -139.9653         0.001500   
    172. D(H  12,H  10,C   2,C   3)     71.1763         0.001500   
    173. D(N  15,H  10,C   9,C  11)    117.7819         0.001538   
    174. D(N  15,H  10,C   9,C   2)   -122.3327         0.001538   
    175. D(H  14,H  10,C   9,N  15)   -142.4887         0.001538   
    176. D(H  14,H  10,C   9,C  11)    -24.7068         0.001538   
    177. D(H  14,H  10,C   9,C   2)     95.1786         0.001538   
    178. D(H  12,H  10,C   2,C   1)   -158.1998         0.001500   
    179. D(H  14,C  11,H  10,N  15)   -161.2346         0.001502   
    180. D(H  14,C  11,H  10,H  12)    108.6689         0.001502   
    181. D(H  14,C  11,H  10,C   9)   -126.1039         0.001502   
    182. D(H  14,C  11,H  10,C   2)    -93.8770         0.001502   
    183. D(H  14,C  11,H  10,O  26)     30.3818         0.001502   
    184. D(H  13,C  11,H  10,H  14)    122.9813         0.001502   
    185. D(H  13,C  11,H  10,H  12)   -128.3498         0.001502   
    186. D(H  13,C  11,H  10,C   9)     -3.1226         0.001502   
    187. D(H  13,C  11,H  10,O  26)    153.3630         0.001502   
    188. D(H  12,C  11,H  10,N  15)     90.0965         0.001502   
    189. D(H  12,C  11,H  10,H  14)   -108.6689         0.001502   
    190. D(H  12,C  11,H  10,C   2)    157.4540         0.001502   
    191. D(H  12,C  11,H  10,O  26)    -78.2872         0.001502   
    192. D(C   9,C  11,H  10,N  15)    -35.1307         0.001502   
    193. D(C   9,C  11,H  10,H  14)    126.1039         0.001502   
    194. D(C   9,C  11,H  10,H  12)   -125.2272         0.001502   
    195. D(C   9,C  11,H  10,C   2)     32.2268         0.001502   
    196. D(H  12,C  11,H  10,C   9)    125.2272         0.001502   
    197. D(C   9,C  11,H  10,O  26)    156.4856         0.001502   
    198. D(H  10,C  11,C   9,N  15)     85.2075         0.015223   
    199. D(H  10,C  11,C   9,C   2)   -100.6779         0.015223   
    200. D(H  13,C  11,H  10,C   2)     29.1043         0.001502   
    201. D(H  14,C  11,C   9,H  10)     58.8770         0.015223   
    202. D(H  14,C  11,C   9,N  15)    144.0845         0.015223   
    203. D(H  14,C  11,C   9,C   2)    -41.8010         0.015223   
    204. D(H  13,C  11,H  10,N  15)    -38.2533         0.001502   
    205. D(H  13,C  11,C   9,H  10)    179.2561         0.015223   
    206. D(H  13,C  11,C   9,N  15)    -95.5364         0.015223   
    207. D(H  13,C  11,C   9,C   2)     78.5782         0.015223   
    208. D(H  12,C  11,C   9,H  10)    -61.0575         0.015223   
    209. D(H  12,C  11,C   9,N  15)     24.1500         0.015223   
    210. D(H  12,C  11,C   9,C   2)   -161.7355         0.015223   
    211. D(H  10,H  12,C  11,H  14)    -76.0744         0.119940   
    212. D(H  10,H  12,C  11,H  13)    169.5507         0.119940   
    213. D(H  10,H  12,C  11,C   9)     47.0018         0.119940   
    214. D(C  11,H  12,H  10,N  15)    -75.3338         0.001501   
    215. D(C  11,H  12,H  10,H  14)     38.3543         0.001501   
    216. D(C  11,H  12,H  10,C   9)    -36.3978         0.001501   
    217. D(C  11,H  12,H  10,C   2)    -18.9412         0.001501   
    218. D(C  11,H  12,H  10,O  26)    113.9117         0.001501   
    219. D(H  10,H  14,C  11,H  13)   -168.7578         0.120963   
    220. D(H  10,H  14,C  11,H  12)     77.5017         0.120963   
    221. D(H  10,H  14,C  11,C   9)    -46.0259         0.120963   
    222. D(C  11,H  14,H  10,N  15)     15.9561         0.001501   
    223. D(C  11,H  14,H  10,H  12)    -38.0321         0.001501   
    224. D(C  11,H  14,H  10,C   9)     35.7380         0.001501   
    225. D(C  11,H  14,H  10,C   2)     71.2965         0.001501   
    226. D(C  11,H  14,H  10,O  26)   -154.0006         0.001501   
    227. D(C   9,N  15,H  10,C   2)    -31.6489         0.001504   
    228. D(C   9,N  15,H  10,O  26)    123.5415         0.001504   
    229. D(H  10,N  15,C   9,C  11)    -87.0867         0.039338   
    230. D(H  10,N  15,C   9,C   2)     98.9841         0.039338   
    231. D(O  17,N  15,C   9,H  10)    -93.8441         0.039338   
    232. D(O  17,N  15,C   9,C  11)    179.0691         0.039338   
    233. D(O  17,N  15,C   9,C   2)      5.1400         0.039338   
    234. D(O  16,N  15,C   9,H  10)     85.7758         0.039338   
    235. D(O  16,N  15,C   9,C  11)     -1.3109         0.039338   
    236. D(C   9,N  15,H  10,C  11)     37.0725         0.001504   
    237. D(O  16,N  15,C   9,C   2)   -175.2401         0.039338   
    238. D(O  17,N  15,H  10,H  14)    146.5029         0.001504   
    239. D(O  17,N  15,H  10,H  12)   -177.8669         0.001504   
    240. D(O  17,N  15,H  10,C   9)    117.1336         0.001504   
    241. D(O  17,N  15,H  10,C   2)     85.4847         0.001504   
    242. D(O  17,N  15,H  10,O  26)   -119.3249         0.001504   
    243. D(O  16,N  15,H  10,H  14)    -90.0332         0.001504   
    244. D(O  16,N  15,H  10,H  12)    -54.4030         0.001504   
    245. D(O  16,N  15,H  10,C  11)    -82.3301         0.001504   
    246. D(O  16,N  15,H  10,C   9)   -119.4026         0.001504   
    247. D(O  16,N  15,H  10,C   2)   -151.0515         0.001504   
    248. D(O  17,N  15,H  10,C  11)    154.2060         0.001504   
    249. D(O  16,N  15,H  10,O  26)      4.1389         0.001504   
    250. D(C   9,N  15,H  10,H  14)     29.3694         0.001504   
    251. D(C   9,N  15,H  10,H  12)     64.9996         0.001504   
    252. D(O  23,N  21,C   5,C   4)   -177.3590         0.018921   
    253. D(O  23,N  21,C   5,C   0)      2.5222         0.018921   
    254. D(O  22,N  21,C   5,C   4)      2.3321         0.018921   
    255. D(O  22,N  21,C   5,C   0)   -177.7867         0.018921   
    256. D(O  18,H  25,H  24,O  26)   -168.1199         0.001510   
    257. D(O  26,H  25,O  18,H  19)    -15.1584         0.322671   
    258. D(H  24,H  25,O  18,H  19)     28.8366         0.322671   
    259. D(H  24,O  26,H  25,O  18)     54.6361         0.002086   
    260. D(H  10,O  26,H  25,H  24)    130.2149         0.002086   
    261. D(H  10,O  26,H  25,O  18)   -175.1490         0.002086   
    262. D(H  10,O  26,H  24,H  25)   -143.0953         0.323631   
    263. D(H  25,O  26,H  10,N  15)     76.9609         0.494677   
    264. D(H  25,O  26,H  10,H  14)    169.4564         0.494677   
    265. D(H  25,O  26,H  10,H  12)    131.3519         0.494677   
    266. D(H  25,O  26,H  10,C  11)    157.2699         0.494677   
    267. D(H  25,O  26,H  10,C   9)   -174.3663         0.494677   
    268. D(H  25,O  26,H  10,C   2)   -131.4744         0.494677   
    269. D(H  24,O  26,H  10,N  15)   -151.6233         0.494677   
    270. D(H  24,O  26,H  10,H  14)    -59.1278         0.494677   
    271. D(H  24,O  26,H  10,H  12)    -97.2323         0.494677   
    272. D(H  24,O  26,H  10,C  11)    -71.3143         0.494677   
    273. D(H  24,O  26,H  10,C   9)    -42.9505         0.494677   
    274. D(H  24,O  26,H  10,C   2)     -0.0586         0.494677   
    -----------------------------------------------------------------

Number of atoms                         .... 27
Number of degrees of freedom            .... 274

         *************************************************************
         *                GEOMETRY OPTIMIZATION CYCLE   1            *
         *************************************************************
---------------------------------
CARTESIAN COORDINATES (ANGSTROEM)
---------------------------------
  C      0.111758    1.087180    0.934180
  C      0.242940    1.322942   -0.422665
  C      0.175064    0.269734   -1.357617
  C      0.022203   -1.047332   -0.867752
  C     -0.109482   -1.298301    0.484121
  C     -0.080284   -0.226147    1.391902
  H      0.155513    1.917204    1.648592
  H      0.403461    2.347936   -0.766949
  H     -0.013146   -1.884630   -1.566975
  C      0.246733    0.484058   -2.779565
  H      2.246449    1.255643   -2.927518
  C      0.637768   -0.645334   -3.676719
  H      0.966817   -0.303805   -4.670500
  H     -0.202439   -1.335489   -3.846065
  H      1.468287   -1.233822   -3.259180
  N     -0.144212    1.640923   -3.360822
  O     -0.153757    1.768472   -4.609347
  O     -0.505375    2.633465   -2.686749
  O      5.278648    2.836475   -3.030756
  H      6.000589    2.232616   -2.831708
  H     -0.246222   -2.322501    0.847247
  N     -0.249395   -0.474257    2.786365
  O     -0.376440   -1.627966    3.188524
  O     -0.272196    0.469330    3.572724
  H      3.370917    0.526582   -2.185338
  H      4.486199    2.283405   -2.988398
  O      3.202038    1.130678   -2.921270

----------------------------
CARTESIAN COORDINATES (A.U.)
----------------------------
  NO LB      ZA    FRAG     MASS         X           Y           Z
   0 C     6.0000    0    12.011    0.211193    2.054473    1.765344
   1 C     6.0000    0    12.011    0.459089    2.499998   -0.798721
   2 C     6.0000    0    12.011    0.330823    0.509724   -2.565524
   3 C     6.0000    0    12.011    0.041958   -1.979171   -1.639814
   4 C     6.0000    0    12.011   -0.206890   -2.453433    0.914857
   5 C     6.0000    0    12.011   -0.151715   -0.427356    2.630314
   6 H     1.0000    0     1.008    0.293877    3.622990    3.115388
   7 H     1.0000    0     1.008    0.762431    4.436957   -1.449324
   8 H     1.0000    0     1.008   -0.024842   -3.561435   -2.961153
   9 C     6.0000    0    12.011    0.466257    0.914736   -5.252617
  10 H     1.0000    0     1.008    4.245174    2.372822   -5.532208
  11 C     6.0000    0    12.011    1.205207   -1.219505   -6.947992
  12 H     1.0000    0     1.008    1.827019   -0.574109   -8.825966
  13 H     1.0000    0     1.008   -0.382554   -2.523708   -7.268009
  14 H     1.0000    0     1.008    2.774660   -2.331585   -6.158959
  15 N     7.0000    0    14.007   -0.272521    3.100896   -6.351034
  16 O     8.0000    0    15.999   -0.290559    3.341928   -8.710403
  17 O     8.0000    0    15.999   -0.955021    4.976527   -5.077220
  18 O     8.0000    0    15.999    9.975198    5.360161   -5.727300
  19 H     1.0000    0     1.008   11.339470    4.219032   -5.351152
  20 H     1.0000    0     1.008   -0.465292   -4.388892    1.601064
  21 N     7.0000    0    14.007   -0.471289   -0.896217    5.265467
  22 O     8.0000    0    15.999   -0.711368   -3.076410    6.025437
  23 O     8.0000    0    15.999   -0.514376    0.886905    6.751469
  24 H     1.0000    0     1.008    6.370111    0.995095   -4.129690
  25 H     1.0000    0     1.008    8.477688    4.315010   -5.647254
  26 O     8.0000    0    15.999    6.050975    2.136672   -5.520400

--------------------------------
INTERNAL COORDINATES (ANGSTROEM)
--------------------------------
 C      0   0   0     0.000000000000     0.00000000     0.00000000
 C      1   0   0     1.383408711750     0.00000000     0.00000000
 C      2   1   0     1.409960327217   121.23214002     0.00000000
 C      3   2   1     1.413505755207   118.12607674   357.50428609
 C      4   3   2     1.381263376645   121.25140948     2.46023786
 C      1   2   3     1.404000813819   119.48121966     0.59524801
 H      1   2   3     1.096010560809   120.42870486   180.68338582
 H      2   1   3     1.093120465797   118.85745526   180.09348086
 H      4   3   2     1.091434480301   119.75507918   181.22743657
 C      3   2   1     1.439794560904   122.77197379   177.11823729
 H     10   3   2     2.148511247348    99.65978705    64.39468782
 C     10   3   2     1.494429682423   119.56556578   159.03152673
 H     12  10   3     1.101142845813   112.68052601   198.26452240
 H     12  10   3     1.100426749233   111.50442898    78.57816128
 H     12  10   3     1.100189661751   111.95818446   318.19903058
 N     10   3   2     1.352418341836   122.50733768   332.84853977
 O     16  10   3     1.255059124253   121.11012556   184.75992384
 O     16  10   3     1.252977266621   121.98595498     5.14000536
 O     11  10   3     3.421098459414   173.19970813   281.82042208
 H     19  11  10     0.962011681934   111.64444157   147.23939536
 H      5   4   3     1.095237612804   120.41820007   178.83590847
 N      6   1   2     1.426423672253   119.84334725   181.54060916
 O     22   6   1     1.228379309472   119.71467915   182.21329330
 O     22   6   1     1.228509889011   119.62699456     2.52221882
 H     11  10   3     1.531924153200   118.61449432    46.73460620
 H     19  11  25     0.967292657709     7.41306768    26.97757053
 O     11  10   3     0.963745398809   151.14631252    74.97669867

---------------------------
INTERNAL COORDINATES (A.U.)
---------------------------
 C      0   0   0     0.000000000000     0.00000000     0.00000000
 C      1   0   0     2.614263596488     0.00000000     0.00000000
 C      2   1   0     2.664438878134   121.23214002     0.00000000
 C      3   2   1     2.671138766063   118.12607674   357.50428609
 C      4   3   2     2.610209500674   121.25140948     2.46023786
 C      1   2   3     2.653177029920   119.48121966     0.59524801
 H      1   2   3     2.071159799814   120.42870486   180.68338582
 H      2   1   3     2.065698311742   118.85745526   180.09348086
 H      4   3   2     2.062512260888   119.75507918   181.22743657
 C      3   2   1     2.720817409217   122.77197379   177.11823729
 H     10   3   2     4.060097853137    99.65978705    64.39468782
 C     10   3   2     2.824062826182   119.56556578   159.03152673
 H     12  10   3     2.080858412913   112.68052601   198.26452240
 H     12  10   3     2.079505186492   111.50442898    78.57816128
 H     12  10   3     2.079057156080   111.95818446   318.19903058
 N     10   3   2     2.555700284562   122.50733768   332.84853977
 O     16  10   3     2.371718026718   121.11012556   184.75992384
 O     16  10   3     2.367783885943   121.98595498     5.14000536
 O     11  10   3     6.464939165472   173.19970813   281.82042208
 H     19  11  10     1.817938616488   111.64444157   147.23939536
 H      5   4   3     2.069699139770   120.41820007   178.83590847
 N      6   1   2     2.695550091500   119.84334725   181.54060916
 O     22   6   1     2.321300483478   119.71467915   182.21329330
 O     22   6   1     2.321547243046   119.62699456     2.52221882
 H     11  10   3     2.894917107487   118.61449432    46.73460620
 H     19  11  25     1.827918214423     7.41306768    26.97757053
 O     11  10   3     1.821214866576   151.14631252    74.97669867

---------------------
BASIS SET INFORMATION
---------------------
There are 4 groups of distinct atoms

 Group   1 Type C   : 11s6p2d1f contracted to 5s3p2d1f pattern {62111/411/11/1}
 Group   2 Type H   : 5s1p contracted to 3s1p pattern {311/1}
 Group   3 Type N   : 11s6p2d1f contracted to 5s3p2d1f pattern {62111/411/11/1}
 Group   4 Type O   : 11s6p2d1f contracted to 5s3p2d1f pattern {62111/411/11/1}

Atom   0C    basis set group =>   1
Atom   1C    basis set group =>   1
Atom   2C    basis set group =>   1
Atom   3C    basis set group =>   1
Atom   4C    basis set group =>   1
Atom   5C    basis set group =>   1
Atom   6H    basis set group =>   2
Atom   7H    basis set group =>   2
Atom   8H    basis set group =>   2
Atom   9C    basis set group =>   1
Atom  10H    basis set group =>   2
Atom  11C    basis set group =>   1
Atom  12H    basis set group =>   2
Atom  13H    basis set group =>   2
Atom  14H    basis set group =>   2
Atom  15N    basis set group =>   3
Atom  16O    basis set group =>   4
Atom  17O    basis set group =>   4
Atom  18O    basis set group =>   4
Atom  19H    basis set group =>   2
Atom  20H    basis set group =>   2
Atom  21N    basis set group =>   3
Atom  22O    basis set group =>   4
Atom  23O    basis set group =>   4
Atom  24H    basis set group =>   2
Atom  25H    basis set group =>   2
Atom  26O    basis set group =>   4
---------------------------------
AUXILIARY/J BASIS SET INFORMATION
---------------------------------
There are 4 groups of distinct atoms

 Group   1 Type C   : 12s5p4d2f1g contracted to 6s4p3d1f1g pattern {711111/2111/211/2/1}
 Group   2 Type H   : 5s2p1d contracted to 3s1p1d pattern {311/2/1}
 Group   3 Type N   : 12s5p4d2f1g contracted to 6s4p3d1f1g pattern {711111/2111/211/2/1}
 Group   4 Type O   : 12s5p4d2f1g contracted to 6s4p3d1f1g pattern {711111/2111/211/2/1}

Atom   0C    basis set group =>   1
Atom   1C    basis set group =>   1
Atom   2C    basis set group =>   1
Atom   3C    basis set group =>   1
Atom   4C    basis set group =>   1
Atom   5C    basis set group =>   1
Atom   6H    basis set group =>   2
Atom   7H    basis set group =>   2
Atom   8H    basis set group =>   2
Atom   9C    basis set group =>   1
Atom  10H    basis set group =>   2
Atom  11C    basis set group =>   1
Atom  12H    basis set group =>   2
Atom  13H    basis set group =>   2
Atom  14H    basis set group =>   2
Atom  15N    basis set group =>   3
Atom  16O    basis set group =>   4
Atom  17O    basis set group =>   4
Atom  18O    basis set group =>   4
Atom  19H    basis set group =>   2
Atom  20H    basis set group =>   2
Atom  21N    basis set group =>   3
Atom  22O    basis set group =>   4
Atom  23O    basis set group =>   4
Atom  24H    basis set group =>   2
Atom  25H    basis set group =>   2
Atom  26O    basis set group =>   4


           ************************************************************
           *        Program running with 102 parallel MPI-processes   *
           *              working on a common directory               *
           ************************************************************
------------------------------------------------------------------------------
                           ORCA GTO INTEGRAL CALCULATION
                           -- RI-GTO INTEGRALS CHOSEN --
------------------------------------------------------------------------------
------------------------------------------------------------------------------
                   ___                                                        
                  /   \      - P O W E R E D   B Y -                         
                 /     \                                                     
                 |  |  |   _    _      __       _____    __    __             
                 |  |  |  | |  | |    /  \     |  _  \  |  |  /  |          
                  \  \/   | |  | |   /    \    | | | |  |  | /  /          
                 / \  \   | |__| |  /  /\  \   | |_| |  |  |/  /          
                |  |  |   |  __  | /  /__\  \  |    /   |      \           
                |  |  |   | |  | | |   __   |  |    \   |  |\   \          
                \     /   | |  | | |  |  |  |  | |\  \  |  | \   \       
                 \___/    |_|  |_| |__|  |__|  |_| \__\ |__|  \__/        
                                                                              
                      - O R C A' S   B I G   F R I E N D -                    
                                      &                                       
                       - I N T E G R A L  F E E D E R -                       
                                                                              
 v1 FN, 2020, v2 2021                                                         
------------------------------------------------------------------------------


Reading SHARK input file /home/rudenko/mop_saddle_orca_4_serv/for_orca/p-o2nc6h4chno2ch3_oh/orca/orca_end/end.SHARKINP.tmp ... ok
----------------------
SHARK INTEGRAL PACKAGE
----------------------

Number of atoms                             ...     27
Number of basis functions                   ...    562
Number of shells                            ...    220
Maximum angular momentum                    ...      3
Integral batch strategy                     ... SHARK/LIBINT Hybrid
RI-J (if used) integral strategy            ... SPLIT-RIJ (Revised 2003 algorithm where possible)
Printlevel                                  ...      1
Contraction scheme used                     ... SEGMENTED contraction
Coulomb Range Separation                    ... NOT USED
Exchange Range Separation                   ... NOT USED
Finite Nucleus Model                        ... NOT USED
Auxiliary Coulomb fitting basis             ... AVAILABLE
   # of basis functions in Aux-J            ...    905
   # of shells in Aux-J                     ...    295
   Maximum angular momentum in Aux-J        ...      4
Auxiliary J/K fitting basis                 ... NOT available
Auxiliary Correlation fitting basis         ... NOT available
Auxiliary 'external' fitting basis          ... NOT available
Integral threshold                          ...     2.500000e-11
Primitive cut-off                           ...     2.500000e-12
Primitive pair pre-selection threshold      ...     2.500000e-12

Calculating pre-screening integrals         ... done (  0.1 sec) Dimension = 220
Organizing shell pair data                  ... done (  0.5 sec)
Shell pair information
Total number of shell pairs                 ...     24310
Shell pairs after pre-screening             ...     17567
Total number of primitive shell pairs       ...     75076
Primitive shell pairs kept                  ...     37080
          la=0 lb=0:   4533 shell pairs
          la=1 lb=0:   5041 shell pairs
          la=1 lb=1:   1421 shell pairs
          la=2 lb=0:   2505 shell pairs
          la=2 lb=1:   1407 shell pairs
          la=2 lb=2:    364 shell pairs
          la=3 lb=0:   1192 shell pairs
          la=3 lb=1:    681 shell pairs
          la=3 lb=2:    336 shell pairs
          la=3 lb=3:     87 shell pairs

Calculating one electron integrals          ... done (  0.1 sec)
Calculating RI/J V-Matrix + Cholesky decomp.... done (  0.1 sec)
Calculating Nuclear repulsion               ... done (  0.0 sec) ENN=   1092.072391858977 Eh

SHARK setup successfully completed in   1.2 seconds

Maximum memory used throughout the entire GTOINT-calculation: 29.9 MB


           ************************************************************
           *        Program running with 102 parallel MPI-processes   *
           *              working on a common directory               *
           ************************************************************
-------------------------------------------------------------------------------
                                 ORCA SCF
-------------------------------------------------------------------------------

------------
SCF SETTINGS
------------
Hamiltonian:
 Density Functional     Method          .... DFT(GTOs)
 Exchange Functional    Exchange        .... B88
   X-Alpha parameter    XAlpha          ....  0.666667
   Becke's b parameter  XBeta           ....  0.004200
 Correlation Functional Correlation     .... LYP
 LDA part of GGA corr.  LDAOpt          .... VWN-5
 Gradients option       PostSCFGGA      .... off
 Hybrid DFT is turned on
   Fraction HF Exchange ScalHFX         ....  0.200000
   Scaling of DF-GGA-X  ScalDFX         ....  0.720000
   Scaling of DF-GGA-C  ScalDFC         ....  0.810000
   Scaling of DF-LDA-C  ScalLDAC        ....  1.000000
   Perturbative correction              ....  0.000000
   Density functional embedding theory  .... OFF
   NL short-range parameter             ....  4.800000
 RI-approximation to the Coulomb term is turned on
   Number of AuxJ basis functions       .... 905
   RIJ-COSX (HFX calculated with COS-X)).... on


General Settings:
 Integral files         IntName         .... /home/rudenko/mop_saddle_orca_4_serv/for_orca/p-o2nc6h4chno2ch3_oh/orca/orca_end/end
 Hartree-Fock type      HFTyp           .... RHF
 Total Charge           Charge          ....   -1
 Multiplicity           Mult            ....    1
 Number of Electrons    NEL             ....  122
 Basis Dimension        Dim             ....  562
 Nuclear Repulsion      ENuc            ....   1092.0723918590 Eh

Convergence Acceleration:
 DIIS                   CNVDIIS         .... on
   Start iteration      DIISMaxIt       ....    12
   Startup error        DIISStart       ....  0.200000
   # of expansion vecs  DIISMaxEq       ....     5
   Bias factor          DIISBfac        ....   1.050
   Max. coefficient     DIISMaxC        ....  10.000
 Trust-Rad. Augm. Hess. CNVTRAH         .... auto
   Auto Start mean grad. ratio tolernc. ....  1.125000
   Auto Start start iteration           ....    20
   Auto Start num. interpolation iter.  ....    10
   Max. Number of Micro iterations      ....    16
   Max. Number of Macro iterations      .... Maxiter - #DIIS iter
   Number of Davidson start vectors     ....     2
   Converg. threshold I  (grad. norm)   ....   1.000e-05
   Converg. threshold II (energy diff.) ....   1.000e-08
   Grad. Scal. Fac. for Micro threshold ....   0.100
   Minimum threshold for Micro iter.    ....   0.010
   NR start threshold (gradient norm)   ....   0.001
   Initial trust radius                 ....   0.400
   Minimum AH scaling param. (alpha)    ....   1.000
   Maximum AH scaling param. (alpha)    .... 1000.000
   Orbital update algorithm             .... Taylor
   White noise on init. David. guess    .... on
   Maximum white noise                  ....   0.010
   Quad. conv. algorithm                .... NR
 SOSCF                  CNVSOSCF        .... on
   Start iteration      SOSCFMaxIt      ....   150
   Startup grad/error   SOSCFStart      ....  0.003300
 Level Shifting         CNVShift        .... on
   Level shift para.    LevelShift      ....    0.2500
   Turn off err/grad.   ShiftErr        ....    0.0010
 Zerner damping         CNVZerner       .... off
 Static damping         CNVDamp         .... on
   Fraction old density DampFac         ....    0.7000
   Max. Damping (<1)    DampMax         ....    0.9800
   Min. Damping (>=0)   DampMin         ....    0.0000
   Turn off err/grad.   DampErr         ....    0.1000
 Fernandez-Rico         CNVRico         .... off

SCF Procedure:
 Maximum # iterations   MaxIter         ....   125
 SCF integral mode      SCFMode         .... Direct
   Integral package                     .... SHARK and LIBINT hybrid scheme
 Reset frequency        DirectResetFreq ....    20
 Integral Threshold     Thresh          ....  2.500e-11 Eh
 Primitive CutOff       TCut            ....  2.500e-12 Eh

Convergence Tolerance:
 Convergence Check Mode ConvCheckMode   .... Total+1el-Energy
 Convergence forced     ConvForced      .... 0
 Energy Change          TolE            ....  1.000e-08 Eh
 1-El. energy change                    ....  1.000e-05 Eh
 Orbital Gradient       TolG            ....  1.000e-05
 Orbital Rotation angle TolX            ....  1.000e-05
 DIIS Error             TolErr          ....  5.000e-07


Diagonalization of the overlap matrix:
Smallest eigenvalue                        ... 7.673e-06
Time for diagonalization                   ...    0.175 sec
Threshold for overlap eigenvalues          ... 1.000e-08
Number of eigenvalues below threshold      ... 0
Time for construction of square roots      ...    0.235 sec
Total time needed                          ...    0.414 sec

Time for model grid setup =    0.208 sec

------------------------------
INITIAL GUESS: MODEL POTENTIAL
------------------------------
Loading Hartree-Fock densities                     ... done
Calculating cut-offs                               ... done
Initializing the effective Hamiltonian             ... done
Setting up the integral package (SHARK)            ... done
Starting the Coulomb interaction                   ... done (   0.1 sec)
Reading the grid                                   ... done
Mapping shells                                     ... done
Starting the XC term evaluation                    ... done (   0.1 sec)
  promolecular density results
     # of electrons  =    120.992230979
     EX              =   -106.717213194
     EC              =     -4.220914044
     EX+EC           =   -110.938127237
Transforming the Hamiltonian                       ... done (   0.2 sec)
Diagonalizing the Hamiltonian                      ... done (   0.2 sec)
Back transforming the eigenvectors                 ... done (   0.1 sec)
Now organizing SCF variables                       ... done
                      ------------------
                      INITIAL GUESS DONE (   0.9 sec)
                      ------------------
-------------------
DFT GRID GENERATION
-------------------

General Integration Accuracy     IntAcc      ... 4.388
Radial Grid Type                 RadialGrid  ... OptM3 with GC (2021)
Angular Grid (max. ang.)         AngularGrid ... 4 (Lebedev-302)
Angular grid pruning method      GridPruning ... 4 (adaptive)
Weight generation scheme         WeightScheme... Becke
Basis function cutoff            BFCut       ... 1.0000e-11
Integration weight cutoff        WCut        ... 1.0000e-14
Angular grids for H and He will be reduced by one unit
Partially contracted basis set               ... off
Rotationally invariant grid construction     ... off

Total number of grid points                  ...   131671
Total number of batches                      ...     2071
Average number of points per batch           ...       63
Average number of grid points per atom       ...     4877
Time for grid setup =    1.079 sec

--------------------
COSX GRID GENERATION
--------------------

GRIDX 1
-------
General Integration Accuracy     IntAcc      ... 3.816
Radial Grid Type                 RadialGrid  ... OptM3 with GC (2021)
Angular Grid (max. ang.)         AngularGrid ... 1 (Lebedev-50)
Angular grid pruning method      GridPruning ... 4 (adaptive)
Weight generation scheme         WeightScheme... Becke
Basis function cutoff            BFCut       ... 1.0000e-11
Integration weight cutoff        WCut        ... 1.0000e-14
Angular grids for H and He will be reduced by one unit
Partially contracted basis set               ... on
Rotationally invariant grid construction     ... off

Total number of grid points                  ...    16726
Total number of batches                      ...      272
Average number of points per batch           ...       61
Average number of grid points per atom       ...      619
UseSFitting                                  ... on

GRIDX 2
-------
General Integration Accuracy     IntAcc      ... 4.020
Radial Grid Type                 RadialGrid  ... OptM3 with GC (2021)
Angular Grid (max. ang.)         AngularGrid ... 2 (Lebedev-110)
Angular grid pruning method      GridPruning ... 4 (adaptive)
Weight generation scheme         WeightScheme... Becke
Basis function cutoff            BFCut       ... 1.0000e-11
Integration weight cutoff        WCut        ... 1.0000e-14
Angular grids for H and He will be reduced by one unit
Partially contracted basis set               ... on
Rotationally invariant grid construction     ... off

Total number of grid points                  ...    36847
Total number of batches                      ...      592
Average number of points per batch           ...       62
Average number of grid points per atom       ...     1365
UseSFitting                                  ... on

GRIDX 3
-------
General Integration Accuracy     IntAcc      ... 4.338
Radial Grid Type                 RadialGrid  ... OptM3 with GC (2021)
Angular Grid (max. ang.)         AngularGrid ... 3 (Lebedev-194)
Angular grid pruning method      GridPruning ... 4 (adaptive)
Weight generation scheme         WeightScheme... Becke
Basis function cutoff            BFCut       ... 1.0000e-11
Integration weight cutoff        WCut        ... 1.0000e-14
Angular grids for H and He will be reduced by one unit
Partially contracted basis set               ... on
Rotationally invariant grid construction     ... off

Total number of grid points                  ...    80927
Total number of batches                      ...     1279
Average number of points per batch           ...       63
Average number of grid points per atom       ...     2997
UseSFitting                                  ... on

Time for X-Grid setup             =    1.655 sec


--------------------
CPCM SOLVATION MODEL
--------------------
CPCM parameters:
  Epsilon                                         ...      78.4000
  Refrac                                          ...       1.3300
  Rsolv                                           ...       1.3000
  Surface type                                    ... GAUSSIAN VDW
  Epsilon function type                           ...         CPCM
Radii:
 Radius for C  used is    3.8550 Bohr (=   2.0400 Ang.)
 Radius for H  used is    2.4944 Bohr (=   1.3200 Ang.)
 Radius for N  used is    3.5149 Bohr (=   1.8600 Ang.)
 Radius for O  used is    3.4469 Bohr (=   1.8240 Ang.)
Calculating surface                               ...        done! (  0.0s)
GEPOL surface points                              ...         1532
GEPOL Volume                                      ...    1784.6272
GEPOL Surface-area                                ...    1003.6596
Calculating surface distance matrix               ...        done! (  0.1s)
Performing Cholesky decomposition & store         ...        done! (  0.5s)
Overall time for CPCM initialization              ...                 0.6s
--------------
SCF ITERATIONS
--------------
ITER       Energy         Delta-E        Max-DP      RMS-DP      [F,P]     Damp
               ***  Starting incremental Fock matrix formation  ***
  0   -871.5667010558   0.000000000000 0.22942063  0.00154392  0.3563797 0.7000
  1   -871.8799554246  -0.313254368817 0.23214911  0.00136562  0.1444038 0.7000
                               ***Turning on DIIS***
  2   -871.9874999125  -0.107544487917 0.37373151  0.00213111  0.0406486 0.0000
  3   -872.1791980483  -0.191698135756 0.17561480  0.00107190  0.0858106 0.0000
  4   -872.2112627212  -0.032064672949 0.06742371  0.00041809  0.0176158 0.0000
  5   -872.2136719562  -0.002409234995 0.02126294  0.00013909  0.0037596 0.0000
                      *** Initiating the SOSCF procedure ***
                           *** Shutting down DIIS ***
                      *** Re-Reading the Fockian *** 
                      *** Removing any level shift *** 
ITER      Energy       Delta-E        Grad      Rot      Max-DP    RMS-DP
  6   -872.21375997  -0.0000880109  0.000273  0.000273  0.005511  0.000041
               *** Restarting incremental Fock matrix formation ***
  7   -872.21375326   0.0000067116  0.000167  0.000805  0.004213  0.000031
  8   -872.21375378  -0.0000005281  0.000256  0.000264  0.000802  0.000007
  9   -872.21375573  -0.0000019419  0.000035  0.000106  0.000578  0.000006
 10   -872.21375570   0.0000000263  0.000044  0.000057  0.000187  0.000001
 11   -872.21375576  -0.0000000591  0.000009  0.000029  0.000240  0.000002
 12   -872.21375576  -0.0000000021  0.000010  0.000014  0.000078  0.000001
 13   -872.21375576  -0.0000000035  0.000005  0.000014  0.000156  0.000002
 14   -872.21375576   0.0000000050  0.000006  0.000006  0.000091  0.000001
                  ***Gradient check signals convergence***
              ***Rediagonalizing the Fockian in SOSCF/NRSCF***

               *****************************************************
               *                     SUCCESS                       *
               *           SCF CONVERGED AFTER  15 CYCLES          *
               *****************************************************

Old exchange energy                            =    -21.611929281 Eh
New exchange energy                            =    -21.611938353 Eh
Exchange energy change after final integration =     -0.000009071 Eh
Total energy after final integration           =   -872.213764845 Eh
Final COS-X integration done in                =     1.938 sec

----------------
TOTAL SCF ENERGY
----------------

Total Energy       :         -872.21376484 Eh          -23734.14316 eV

Components:
Nuclear Repulsion  :         1092.07239186 Eh           29716.80056 eV
Electronic Energy  :        -1964.28615670 Eh          -53450.94372 eV
One Electron Energy:        -3376.82209237 Eh          -91888.00063 eV
Two Electron Energy:         1412.53593566 Eh           38437.05691 eV
Max COSX asymmetry :            0.00000188 Eh               0.00005 eV
CPCM Dielectric    :           -0.09763831 Eh              -2.65687 eV

Virial components:
Potential Energy   :        -1741.12833678 Eh          -47378.51072 eV
Kinetic Energy     :          868.91457194 Eh           23644.36756 eV
Virial Ratio       :            2.00379691


DFT components:
N(Alpha)           :       60.999961423197 electrons
N(Beta)            :       60.999961423197 electrons
N(Total)           :      121.999922846394 electrons
E(X)               :      -86.134825665847 Eh       
E(C)               :       -5.006631349249 Eh       
E(XC)              :      -91.141457015096 Eh       
DFET-embed. en.    :        0.000000000000 Eh       
CPCM Solvation Model Properties:
Surface-charge          :            0.97306559
Charge-correction       :           -0.00269410 Eh              -0.07331 eV
Free-energy (cav+disp)  :  This term is not implemented in the current solvation scheme

---------------
SCF CONVERGENCE
---------------

  Last Energy change         ...   -1.4567e-08  Tolerance :   1.0000e-08
  Last MAX-Density change    ...    1.8874e-15  Tolerance :   1.0000e-07
  Last RMS-Density change    ...    1.6153e-17  Tolerance :   5.0000e-09
  Last Orbital Gradient      ...    7.9692e-07  Tolerance :   1.0000e-05
  Last Orbital Rotation      ...    3.3404e-06  Tolerance :   1.0000e-05

             **** THE GBW FILE WAS UPDATED (/home/rudenko/mop_saddle_orca_4_serv/for_orca/p-o2nc6h4chno2ch3_oh/orca/orca_end/end.gbw) ****
             **** DENSITY /home/rudenko/mop_saddle_orca_4_serv/for_orca/p-o2nc6h4chno2ch3_oh/orca/orca_end/end.scfp WAS UPDATED ****
             **** ENERGY FILE WAS UPDATED (/home/rudenko/mop_saddle_orca_4_serv/for_orca/p-o2nc6h4chno2ch3_oh/orca/orca_end/end.en.tmp) ****
             **** THE GBW FILE WAS UPDATED (/home/rudenko/mop_saddle_orca_4_serv/for_orca/p-o2nc6h4chno2ch3_oh/orca/orca_end/end.gbw) ****
             **** DENSITY /home/rudenko/mop_saddle_orca_4_serv/for_orca/p-o2nc6h4chno2ch3_oh/orca/orca_end/end.scfp WAS UPDATED ****
----------------
ORBITAL ENERGIES
----------------

  NO   OCC          E(Eh)            E(eV) 
   0   2.0000     -19.146487      -521.0024 
   1   2.0000     -19.146441      -521.0011 
   2   2.0000     -19.133086      -520.6377 
   3   2.0000     -19.098949      -519.7088 
   4   2.0000     -19.095293      -519.6093 
   5   2.0000     -19.093505      -519.5607 
   6   2.0000     -14.542289      -395.7158 
   7   2.0000     -14.493161      -394.3790 
   8   2.0000     -10.221059      -278.1291 
   9   2.0000     -10.198596      -277.5179 
  10   2.0000     -10.192070      -277.3403 
  11   2.0000     -10.190890      -277.3082 
  12   2.0000     -10.188565      -277.2450 
  13   2.0000     -10.179159      -276.9890 
  14   2.0000     -10.173825      -276.8438 
  15   2.0000     -10.158805      -276.4351 
  16   2.0000      -1.225204       -33.3395 
  17   2.0000      -1.169715       -31.8296 
  18   2.0000      -1.043068       -28.3833 
  19   2.0000      -1.021189       -27.7880 
  20   2.0000      -0.986942       -26.8561 
  21   2.0000      -0.982541       -26.7363 
  22   2.0000      -0.881768       -23.9941 
  23   2.0000      -0.838317       -22.8118 
  24   2.0000      -0.788999       -21.4697 
  25   2.0000      -0.757167       -20.6036 
  26   2.0000      -0.702467       -19.1151 
  27   2.0000      -0.691389       -18.8137 
  28   2.0000      -0.613947       -16.7063 
  29   2.0000      -0.595017       -16.1912 
  30   2.0000      -0.556314       -15.1381 
  31   2.0000      -0.544388       -14.8135 
  32   2.0000      -0.539896       -14.6913 
  33   2.0000      -0.533747       -14.5240 
  34   2.0000      -0.519233       -14.1290 
  35   2.0000      -0.514386       -13.9972 
  36   2.0000      -0.510732       -13.8977 
  37   2.0000      -0.494207       -13.4481 
  38   2.0000      -0.481237       -13.0951 
  39   2.0000      -0.457134       -12.4392 
  40   2.0000      -0.446499       -12.1499 
  41   2.0000      -0.428983       -11.6732 
  42   2.0000      -0.426800       -11.6138 
  43   2.0000      -0.416326       -11.3288 
  44   2.0000      -0.400938       -10.9101 
  45   2.0000      -0.384274       -10.4566 
  46   2.0000      -0.379586       -10.3291 
  47   2.0000      -0.366227        -9.9655 
  48   2.0000      -0.362605        -9.8670 
  49   2.0000      -0.350485        -9.5372 
  50   2.0000      -0.325642        -8.8612 
  51   2.0000      -0.318503        -8.6669 
  52   2.0000      -0.313771        -8.5381 
  53   2.0000      -0.298479        -8.1220 
  54   2.0000      -0.289156        -7.8683 
  55   2.0000      -0.286555        -7.7976 
  56   2.0000      -0.285493        -7.7687 
  57   2.0000      -0.271356        -7.3840 
  58   2.0000      -0.266678        -7.2567 
  59   2.0000      -0.239814        -6.5257 
  60   2.0000      -0.191941        -5.2230 
  61   0.0000      -0.092851        -2.5266 
  62   0.0000      -0.019201        -0.5225 
  63   0.0000      -0.015061        -0.4098 
  64   0.0000       0.023261         0.6330 
  65   0.0000       0.042377         1.1531 
  66   0.0000       0.059031         1.6063 
  67   0.0000       0.071967         1.9583 
  68   0.0000       0.080764         2.1977 
  69   0.0000       0.090141         2.4529 
  70   0.0000       0.104725         2.8497 
  71   0.0000       0.110685         3.0119 
  72   0.0000       0.119826         3.2606 
  73   0.0000       0.133604         3.6355 
  74   0.0000       0.139675         3.8008 
  75   0.0000       0.146654         3.9907 
  76   0.0000       0.159610         4.3432 
  77   0.0000       0.165487         4.5031 
  78   0.0000       0.175691         4.7808 
  79   0.0000       0.189084         5.1452 
  80   0.0000       0.198657         5.4057 
  81   0.0000       0.207425         5.6443 
  82   0.0000       0.208298         5.6681 
  83   0.0000       0.217093         5.9074 
  84   0.0000       0.224690         6.1141 
  85   0.0000       0.232716         6.3325 
  86   0.0000       0.236193         6.4271 
  87   0.0000       0.238434         6.4881 
  88   0.0000       0.238964         6.5025 
  89   0.0000       0.252882         6.8813 
  90   0.0000       0.260239         7.0815 
  91   0.0000       0.269005         7.3200 
  92   0.0000       0.274591         7.4720 
  93   0.0000       0.292281         7.9534 
  94   0.0000       0.303238         8.2515 
  95   0.0000       0.307454         8.3663 
  96   0.0000       0.313624         8.5341 
  97   0.0000       0.320387         8.7182 
  98   0.0000       0.331772         9.0280 
  99   0.0000       0.334796         9.1103 
 100   0.0000       0.339463         9.2373 
 101   0.0000       0.355633         9.6773 
 102   0.0000       0.360197         9.8015 
 103   0.0000       0.368372        10.0239 
 104   0.0000       0.372288        10.1305 
 105   0.0000       0.376150        10.2356 
 106   0.0000       0.378961        10.3121 
 107   0.0000       0.385154        10.4806 
 108   0.0000       0.392837        10.6897 
 109   0.0000       0.393989        10.7210 
 110   0.0000       0.401440        10.9237 
 111   0.0000       0.408162        11.1066 
 112   0.0000       0.412953        11.2370 
 113   0.0000       0.418044        11.3756 
 114   0.0000       0.425604        11.5813 
 115   0.0000       0.435660        11.8549 
 116   0.0000       0.436434        11.8760 
 117   0.0000       0.444331        12.0909 
 118   0.0000       0.455208        12.3868 
 119   0.0000       0.460226        12.5234 
 120   0.0000       0.466771        12.7015 
 121   0.0000       0.468907        12.7596 
 122   0.0000       0.477544        12.9946 
 123   0.0000       0.481222        13.0947 
 124   0.0000       0.483323        13.1519 
 125   0.0000       0.492047        13.3893 
 126   0.0000       0.504433        13.7263 
 127   0.0000       0.508847        13.8464 
 128   0.0000       0.514879        14.0106 
 129   0.0000       0.521956        14.2032 
 130   0.0000       0.528056        14.3691 
 131   0.0000       0.536586        14.6013 
 132   0.0000       0.537329        14.6215 
 133   0.0000       0.544540        14.8177 
 134   0.0000       0.555024        15.1030 
 135   0.0000       0.565778        15.3956 
 136   0.0000       0.577438        15.7129 
 137   0.0000       0.583058        15.8658 
 138   0.0000       0.591864        16.1054 
 139   0.0000       0.596023        16.2186 
 140   0.0000       0.600070        16.3287 
 141   0.0000       0.610453        16.6113 
 142   0.0000       0.620515        16.8851 
 143   0.0000       0.623753        16.9732 
 144   0.0000       0.641324        17.4513 
 145   0.0000       0.648552        17.6480 
 146   0.0000       0.650615        17.7041 
 147   0.0000       0.656110        17.8537 
 148   0.0000       0.662692        18.0328 
 149   0.0000       0.672487        18.2993 
 150   0.0000       0.679293        18.4845 
 151   0.0000       0.683490        18.5987 
 152   0.0000       0.698421        19.0050 
 153   0.0000       0.711438        19.3592 
 154   0.0000       0.728441        19.8219 
 155   0.0000       0.729605        19.8536 
 156   0.0000       0.742271        20.1982 
 157   0.0000       0.751939        20.4613 
 158   0.0000       0.767726        20.8909 
 159   0.0000       0.775547        21.1037 
 160   0.0000       0.783946        21.3323 
 161   0.0000       0.798744        21.7349 
 162   0.0000       0.812047        22.0969 
 163   0.0000       0.817163        22.2361 
 164   0.0000       0.831042        22.6138 
 165   0.0000       0.853427        23.2229 
 166   0.0000       0.874187        23.7878 
 167   0.0000       0.875650        23.8277 
 168   0.0000       0.886628        24.1264 
 169   0.0000       0.896094        24.3839 
 170   0.0000       0.898149        24.4399 
 171   0.0000       0.916917        24.9506 
 172   0.0000       0.922658        25.1068 
 173   0.0000       0.961603        26.1665 
 174   0.0000       0.963907        26.2292 
 175   0.0000       0.982079        26.7237 
 176   0.0000       0.997948        27.1556 
 177   0.0000       1.009326        27.4652 
 178   0.0000       1.016737        27.6668 
 179   0.0000       1.031746        28.0752 
 180   0.0000       1.041593        28.3432 
 181   0.0000       1.056345        28.7446 
 182   0.0000       1.068916        29.0867 
 183   0.0000       1.074443        29.2371 
 184   0.0000       1.084876        29.5210 
 185   0.0000       1.092610        29.7314 
 186   0.0000       1.100731        29.9524 
 187   0.0000       1.121515        30.5180 
 188   0.0000       1.137662        30.9574 
 189   0.0000       1.154104        31.4048 
 190   0.0000       1.172613        31.9084 
 191   0.0000       1.186093        32.2752 
 192   0.0000       1.199200        32.6319 
 193   0.0000       1.208920        32.8964 
 194   0.0000       1.223201        33.2850 
 195   0.0000       1.236516        33.6473 
 196   0.0000       1.244381        33.8613 
 197   0.0000       1.266631        34.4668 
 198   0.0000       1.272794        34.6345 
 199   0.0000       1.281935        34.8832 
 200   0.0000       1.286793        35.0154 
 201   0.0000       1.289967        35.1018 
 202   0.0000       1.303880        35.4804 
 203   0.0000       1.314085        35.7581 
 204   0.0000       1.322989        36.0004 
 205   0.0000       1.346187        36.6316 
 206   0.0000       1.362461        37.0744 
 207   0.0000       1.377335        37.4792 
 208   0.0000       1.381507        37.5927 
 209   0.0000       1.393470        37.9182 
 210   0.0000       1.407762        38.3072 
 211   0.0000       1.427536        38.8452 
 212   0.0000       1.438682        39.1485 
 213   0.0000       1.440156        39.1886 
 214   0.0000       1.466848        39.9150 
 215   0.0000       1.492094        40.6019 
 216   0.0000       1.496880        40.7322 
 217   0.0000       1.509669        41.0802 
 218   0.0000       1.528073        41.5810 
 219   0.0000       1.535450        41.7817 
 220   0.0000       1.537665        41.8420 
 221   0.0000       1.542863        41.9834 
 222   0.0000       1.557222        42.3742 
 223   0.0000       1.565002        42.5859 
 224   0.0000       1.577689        42.9311 
 225   0.0000       1.581869        43.0448 
 226   0.0000       1.595427        43.4138 
 227   0.0000       1.597238        43.4630 
 228   0.0000       1.615085        43.9487 
 229   0.0000       1.623095        44.1667 
 230   0.0000       1.629280        44.3350 
 231   0.0000       1.642330        44.6901 
 232   0.0000       1.648876        44.8682 
 233   0.0000       1.670838        45.4658 
 234   0.0000       1.681120        45.7456 
 235   0.0000       1.685234        45.8576 
 236   0.0000       1.695408        46.1344 
 237   0.0000       1.705661        46.4134 
 238   0.0000       1.730345        47.0851 
 239   0.0000       1.746374        47.5213 
 240   0.0000       1.756630        47.8003 
 241   0.0000       1.771266        48.1986 
 242   0.0000       1.776276        48.3349 
 243   0.0000       1.786751        48.6200 
 244   0.0000       1.800590        48.9966 
 245   0.0000       1.802547        49.0498 
 246   0.0000       1.820969        49.5511 
 247   0.0000       1.832628        49.8683 
 248   0.0000       1.842459        50.1359 
 249   0.0000       1.850545        50.3559 
 250   0.0000       1.868669        50.8491 
 251   0.0000       1.879046        51.1314 
 252   0.0000       1.895309        51.5740 
 253   0.0000       1.911444        52.0130 
 254   0.0000       1.920303        52.2541 
 255   0.0000       1.954688        53.1898 
 256   0.0000       1.959290        53.3150 
 257   0.0000       1.970148        53.6104 
 258   0.0000       1.977356        53.8066 
 259   0.0000       2.000935        54.4482 
 260   0.0000       2.012020        54.7499 
 261   0.0000       2.025129        55.1066 
 262   0.0000       2.030090        55.2415 
 263   0.0000       2.035854        55.3984 
 264   0.0000       2.047405        55.7127 
 265   0.0000       2.054244        55.8988 
 266   0.0000       2.061212        56.0884 
 267   0.0000       2.074411        56.4476 
 268   0.0000       2.083478        56.6943 
 269   0.0000       2.089373        56.8547 
 270   0.0000       2.098104        57.0923 
 271   0.0000       2.107743        57.3546 
 272   0.0000       2.121822        57.7377 
 273   0.0000       2.124323        57.8058 
 274   0.0000       2.136500        58.1371 
 275   0.0000       2.147451        58.4351 
 276   0.0000       2.162889        58.8552 
 277   0.0000       2.164438        58.8973 
 278   0.0000       2.171349        59.0854 
 279   0.0000       2.190428        59.6046 
 280   0.0000       2.211518        60.1785 
 281   0.0000       2.218416        60.3662 
 282   0.0000       2.236583        60.8605 
 283   0.0000       2.267155        61.6924 
 284   0.0000       2.270166        61.7744 
 285   0.0000       2.281623        62.0861 
 286   0.0000       2.289345        62.2962 
 287   0.0000       2.297809        62.5266 
 288   0.0000       2.306887        62.7736 
 289   0.0000       2.326447        63.3059 
 290   0.0000       2.340348        63.6841 
 291   0.0000       2.360158        64.2232 
 292   0.0000       2.377437        64.6933 
 293   0.0000       2.386742        64.9466 
 294   0.0000       2.400199        65.3127 
 295   0.0000       2.409460        65.5648 
 296   0.0000       2.434125        66.2359 
 297   0.0000       2.446404        66.5700 
 298   0.0000       2.459082        66.9150 
 299   0.0000       2.474912        67.3458 
 300   0.0000       2.487170        67.6793 
 301   0.0000       2.495489        67.9057 
 302   0.0000       2.510996        68.3277 
 303   0.0000       2.519618        68.5623 
 304   0.0000       2.549499        69.3754 
 305   0.0000       2.565595        69.8134 
 306   0.0000       2.583429        70.2987 
 307   0.0000       2.593767        70.5800 
 308   0.0000       2.601948        70.8026 
 309   0.0000       2.612759        71.0968 
 310   0.0000       2.615215        71.1636 
 311   0.0000       2.621468        71.3338 
 312   0.0000       2.638387        71.7942 
 313   0.0000       2.641380        71.8756 
 314   0.0000       2.645186        71.9792 
 315   0.0000       2.657966        72.3269 
 316   0.0000       2.668173        72.6047 
 317   0.0000       2.691632        73.2430 
 318   0.0000       2.693836        73.3030 
 319   0.0000       2.706082        73.6362 
 320   0.0000       2.714413        73.8629 
 321   0.0000       2.719468        74.0005 
 322   0.0000       2.736218        74.4563 
 323   0.0000       2.739068        74.5338 
 324   0.0000       2.746694        74.7414 
 325   0.0000       2.753504        74.9266 
 326   0.0000       2.771731        75.4226 
 327   0.0000       2.777828        75.5885 
 328   0.0000       2.786647        75.8285 
 329   0.0000       2.794888        76.0528 
 330   0.0000       2.803537        76.2881 
 331   0.0000       2.820793        76.7577 
 332   0.0000       2.831043        77.0366 
 333   0.0000       2.839038        77.2541 
 334   0.0000       2.855718        77.7080 
 335   0.0000       2.860771        77.8455 
 336   0.0000       2.875564        78.2481 
 337   0.0000       2.895194        78.7822 
 338   0.0000       2.905076        79.0511 
 339   0.0000       2.909617        79.1747 
 340   0.0000       2.928732        79.6949 
 341   0.0000       2.946525        80.1790 
 342   0.0000       2.954788        80.4039 
 343   0.0000       2.970295        80.8258 
 344   0.0000       2.979983        81.0895 
 345   0.0000       3.010160        81.9106 
 346   0.0000       3.022055        82.2343 
 347   0.0000       3.035676        82.6049 
 348   0.0000       3.040662        82.7406 
 349   0.0000       3.055632        83.1480 
 350   0.0000       3.074822        83.6702 
 351   0.0000       3.094213        84.1978 
 352   0.0000       3.096283        84.2541 
 353   0.0000       3.100890        84.3795 
 354   0.0000       3.108423        84.5845 
 355   0.0000       3.119355        84.8820 
 356   0.0000       3.130185        85.1767 
 357   0.0000       3.142161        85.5026 
 358   0.0000       3.147068        85.6361 
 359   0.0000       3.160916        86.0129 
 360   0.0000       3.169916        86.2578 
 361   0.0000       3.180507        86.5460 
 362   0.0000       3.199593        87.0653 
 363   0.0000       3.206226        87.2458 
 364   0.0000       3.224990        87.7564 
 365   0.0000       3.232720        87.9668 
 366   0.0000       3.241283        88.1998 
 367   0.0000       3.249453        88.4221 
 368   0.0000       3.262607        88.7800 
 369   0.0000       3.265953        88.8711 
 370   0.0000       3.283151        89.3391 
 371   0.0000       3.286124        89.4200 
 372   0.0000       3.304233        89.9128 
 373   0.0000       3.312834        90.1468 
 374   0.0000       3.323781        90.4447 
 375   0.0000       3.335953        90.7759 
 376   0.0000       3.350804        91.1800 
 377   0.0000       3.378294        91.9281 
 378   0.0000       3.387091        92.1674 
[...]
    44. A(C   9,C   2,H  10)           59.55 -0.000049    0.83     60.38   
    45. A(C   2,C   3,C   4)          122.48  0.000192   -0.05    122.42   
    46. A(C   4,C   3,H   8)          117.68 -0.000103   -0.09    117.58   
    47. A(C   2,C   3,H   8)          119.83 -0.000090    0.15    119.97   
    48. A(C   3,C   4,C   5)          119.75  0.000087   -0.04    119.71   
    49. A(C   3,C   4,H  20)          120.31 -0.000136   -0.02    120.29   
    50. A(C   5,C   4,H  20)          119.95  0.000048    0.05    120.00   
    51. A(C   0,C   5,C   4)          119.84 -0.000135    0.08    119.92   
    52. A(C   4,C   5,N  21)          119.92 -0.000337   -0.00    119.92   
    53. A(C   0,C   5,N  21)          120.24  0.000472   -0.08    120.16   
    54. A(C   2,C   9,C  11)          121.85 -0.000049   -0.18    121.67   
    55. A(C   2,C   9,N  15)          122.83  0.000023    0.06    122.89   
    56. A(H  10,C   9,N  15)           94.23  0.000006    1.70     95.93   
    57. A(H  10,C   9,C  11)           93.67  0.000043   -0.70     92.97   
    58. A(C   2,C   9,H  10)           87.01  0.000068   -0.87     86.14   
    59. A(C  11,C   9,N  15)          115.11  0.000015    0.12    115.23   
    60. A(H  12,H  10,H  14)           36.56  0.000054    0.03     36.59   
    61. A(C  11,H  10,H  14)           22.26  0.000060    0.11     22.37   
    62. A(C   9,H  10,H  14)           48.12  0.000037    0.41     48.53   
    63. A(C   2,H  10,H  14)           59.33 -0.000033    0.41     59.73   
    64. A(H  14,H  10,O  26)          130.47 -0.000065    1.02    131.49   
    65. A(C  11,H  10,H  12)           22.64 -0.000005   -0.03     22.61   
    66. A(C   2,H  10,H  12)           78.42 -0.000040   -0.08     78.34   
    67. A(H  12,H  10,O  26)          129.26 -0.000019    1.33    130.59   
    68. A(C   2,H  10,C  11)           56.88 -0.000036    0.03     56.91   
    69. A(C  11,H  10,O  26)          145.71 -0.000027    1.28    147.00   
    70. A(C  11,H  10,N  15)           52.39  0.000006   -0.35     52.04   
    71. A(C   9,H  10,H  12)           49.13 -0.000014   -0.15     48.98   
    72. A(C   2,H  10,C   9)           33.44 -0.000019    0.04     33.48   
    73. A(C   9,H  10,O  26)          178.33 -0.000034    1.34    179.67   
    74. A(C   2,H  10,O  26)          147.61  0.000038   -0.20    147.41   
    75. A(H  12,H  10,N  15)           56.20 -0.000002   -0.41     55.78   
    76. A(C   9,H  10,N  15)           30.26  0.000006   -0.64     29.63   
    77. A(C   2,H  10,N  15)           55.21 -0.000004   -0.50     54.70   
    78. A(N  15,H  10,O  26)          150.21  0.000004   -0.07    150.14   
    79. A(H  14,H  10,N  15)           73.38  0.000060   -0.20     73.18   
    80. A(C   9,H  10,C  11)           32.63 -0.000006    0.09     32.72   
    81. A(H  10,C  11,H  14)           82.39  0.000034   -1.07     81.32   
    82. A(H  10,C  11,H  13)          166.46  0.000596    0.61    167.07   
    83. A(H  10,C  11,H  12)           77.81  0.000015    0.55     78.36   
    84. A(C   9,C  11,H  10)           53.70 -0.000037    0.62     54.32   
    85. A(H  13,C  11,H  14)          107.61 -0.000462    0.11    107.73   
    86. A(H  12,C  11,H  14)          108.09  0.000052   -0.23    107.86   
    87. A(C   9,C  11,H  14)          111.06 -0.000010    0.27    111.33   
    88. A(H  12,C  11,H  13)          106.70 -0.000210   -0.24    106.46   
    89. A(C   9,C  11,H  13)          113.17  0.000619   -0.01    113.17   
    90. A(C   9,C  11,H  12)          109.98 -0.000022    0.07    110.04   
    91. A(H  10,H  12,C  11)           79.55 -0.000010   -0.52     79.03   
    92. A(H  10,H  14,C  11)           75.35 -0.000094    0.96     76.31   
    93. A(C   9,N  15,H  10)           55.51 -0.000012   -1.06     54.45   
    94. A(O  16,N  15,O  17)          118.61 -0.000162    0.02    118.63   
    95. A(C   9,N  15,O  17)          122.47  0.000116    0.05    122.51   
    96. A(C   9,N  15,O  16)          118.92  0.000046   -0.07    118.85   
    97. A(H  10,N  15,O  17)          104.12  0.000144    0.42    104.54   
    98. A(H  10,N  15,O  16)          110.20 -0.000032    0.57    110.77   
    99. A(H  19,O  18,H  25)          104.81  0.000796    0.08    104.89   
   100. A(C   5,N  21,O  22)          118.97 -0.000036    0.00    118.97   
   101. A(O  22,N  21,O  23)          122.15  0.000246    0.04    122.19   
   102. A(C   5,N  21,O  23)          118.89 -0.000211   -0.03    118.85   
   103. L(O  18,H  25,O  26,H  19, 2) 176.04 -0.000035    1.09    177.12   
   104. L(O  18,H  25,O  26,H  19, 1) 178.39 -0.000065    0.35    178.74   
   105. A(H  24,O  26,H  25)          110.32  0.000204   -0.81    109.52   
   106. A(H  10,O  26,H  25)           98.68 -0.000337    0.58     99.26   
   107. A(H  10,O  26,H  24)          104.63  0.000191   -0.08    104.55   
   108. D(H   7,C   1,C   0,H   6)     -0.01  0.000007   -0.04     -0.05   
   109. D(C   2,C   1,C   0,H   6)    178.73  0.000031   -0.01    178.73   
   110. D(C   2,C   1,C   0,C   5)     -1.01 -0.000015    0.02     -0.99   
   111. D(H   7,C   1,C   0,C   5)   -179.75 -0.000038   -0.01   -179.77   
   112. D(H  10,C   2,C   1,C   0)   -119.23  0.000047    0.95   -118.28   
   113. D(C   3,C   2,C   1,C   0)      1.53  0.000099   -0.38      1.16   
   114. D(H  10,C   2,C   1,H   7)     59.51  0.000066    0.99     60.50   
   115. D(C   9,C   2,C   1,H   7)      1.93  0.000061   -0.44      1.49   
   116. D(C   9,C   2,C   1,C   0)   -176.82  0.000042   -0.48   -177.29   
   117. D(C   3,C   2,C   1,H   7)   -179.72  0.000118   -0.34   -180.06   
   118. D(C   4,C   3,C   2,H  10)    110.54 -0.000080    0.09    110.62   
   119. D(H   8,C   3,C   2,H  10)    -71.06 -0.000095    0.14    -70.92   
   120. D(C   4,C   3,C   2,C   1)     -0.92 -0.000118    0.43     -0.49   
   121. D(H   8,C   3,C   2,C   9)     -4.05 -0.000082    0.57     -3.48   
   122. D(C   4,C   3,C   2,C   9)    177.54 -0.000067    0.52    178.07   
   123. D(H   8,C   3,C   2,C   1)    177.48 -0.000133    0.48    177.97   
   124. D(H  20,C   4,C   3,H   8)      0.82  0.000060   -0.19      0.63   
   125. D(C   5,C   4,C   3,H   8)   -178.65  0.000069   -0.19   -178.84   
   126. D(H  20,C   4,C   3,C   2)    179.26  0.000046   -0.13    179.13   
   127. D(C   5,C   4,C   3,C   2)     -0.21  0.000055   -0.13     -0.34   
   128. D(N  21,C   5,C   4,H  20)      1.13  0.000008   -0.17      0.95   
   129. D(C   0,C   5,C   4,C   3)      0.81  0.000037   -0.25      0.56   
   130. D(N  21,C   5,C   0,H   6)      0.26 -0.000063    0.26      0.52   
   131. D(N  21,C   5,C   0,C   1)   -180.00 -0.000017    0.23   -179.77   
   132. D(C   4,C   5,C   0,C   1)     -0.21 -0.000058    0.30      0.10   
   133. D(C   4,C   5,C   0,H   6)   -179.95 -0.000104    0.33   -179.62   
   134. D(C   0,C   5,C   4,H  20)   -178.67  0.000047   -0.24   -178.91   
   135. D(N  21,C   5,C   4,C   3)   -179.40 -0.000002   -0.17   -179.58   
   136. D(C  11,C   9,C   2,H  10)     92.47  0.000094   -1.36     91.11   
   137. D(N  15,C   9,C   2,C   3)    164.84 -0.000028   -0.13    164.71   
   138. D(C  11,C   9,C   2,C   3)     -9.59  0.000116   -0.04     -9.62   
   139. D(C  11,C   9,C   2,C   1)    168.72  0.000168    0.06    168.78   
   140. D(N  15,C   9,C   2,H  10)    -93.11 -0.000050   -1.44    -94.55   
   141. D(N  15,C   9,C   2,C   1)    -16.86  0.000024   -0.02    -16.88   
   142. D(H  10,C   9,C   2,C   3)   -102.05  0.000022    1.32   -100.73   
   143. D(H  10,C   9,C   2,C   1)     76.25  0.000074    1.42     77.67   
   144. D(H  12,H  10,C   9,N  15)    -91.33 -0.000014    0.05    -91.28   
   145. D(C  11,H  10,C   9,N  15)   -115.54 -0.000021   -0.29   -115.83   
   146. D(H  12,H  10,C   9,C  11)     24.21  0.000006    0.34     24.56   
   147. D(C   2,H  10,C   9,N  15)    122.72  0.000027   -0.05    122.66   
   148. D(C   2,H  10,C   9,C  11)   -121.74  0.000048    0.24   -121.50   
   149. D(O  26,H  10,C   9,N  15)   -107.59 -0.000043    2.06   -105.53   
   150. D(O  26,H  10,C   9,C   2)    129.70 -0.000069    2.11    131.80   
   151. D(N  15,H  10,C   2,C   9)     31.09 -0.000003   -0.43     30.66   
   152. D(N  15,H  10,C   2,C   3)    141.67  0.000159    0.41    142.07   
   153. D(N  15,H  10,C   2,C   1)    -95.99 -0.000007    0.27    -95.72   
   154. D(H  14,H  10,C   2,C   9)    -59.32 -0.000109   -0.19    -59.51   
   155. D(H  14,H  10,C   2,C   3)     51.26  0.000052    0.64     51.90   
   156. D(H  14,H  10,C   2,C   1)    173.60 -0.000114    0.51    174.11   
   157. D(C  11,H  10,C   2,C   9)    -33.20 -0.000028   -0.17    -33.37   
   158. D(C  11,H  10,C   2,C   3)     77.39  0.000134    0.66     78.05   
   159. D(C  11,H  10,C   2,C   1)   -160.27 -0.000032    0.53   -159.74   
   160. D(C   9,H  10,C   2,C   3)    110.58  0.000161    0.83    111.41   
   161. D(O  26,H  10,C   9,C  11)      7.95 -0.000022    2.35     10.30   
   162. D(C   9,H  10,C   2,C   1)   -127.08 -0.000004    0.70   -126.38   
   163. D(O  26,H  10,C   2,C   3)    -67.01  0.000215   -2.08    -69.10   
   164. D(H  12,H  10,C   2,C   9)    -25.60 -0.000027    0.12    -25.48   
   165. D(C  11,H  10,C   9,C   2)    121.74 -0.000048   -0.24    121.50   
   166. D(O  26,H  10,C   2,C   9)   -177.59  0.000054   -2.92   -180.51   
   167. D(H  12,H  10,C   9,C   2)    145.95 -0.000041    0.10    146.06   
   168. D(O  26,H  10,C   2,C   1)     55.33  0.000050   -2.22     53.11   
   169. D(H  12,H  10,C   2,C   3)     84.98  0.000134    0.95     85.93   
   170. D(N  15,H  10,C   9,C  11)    115.54  0.000021    0.29    115.83   
   171. D(N  15,H  10,C   9,C   2)   -122.72 -0.000027    0.05   -122.66   
   172. D(H  14,H  10,C   9,N  15)   -140.73 -0.000082    0.11   -140.62   
   173. D(H  14,H  10,C   9,C  11)    -25.19 -0.000061    0.40    -24.78   
   174. D(H  14,H  10,C   9,C   2)     96.56 -0.000108    0.16     96.72   
   175. D(H  12,H  10,C   2,C   1)   -152.68 -0.000032    0.82   -151.86   
   176. D(H  14,C  11,H  10,N  15)   -158.26  0.000026   -0.43   -158.69   
   177. D(H  14,C  11,H  10,H  12)    110.45  0.000041   -0.14    110.30   
   178. D(H  14,C  11,H  10,C   9)   -123.23  0.000023   -1.11   -124.34   
   179. D(H  14,C  11,H  10,C   2)    -89.20  0.000039   -0.99    -90.18   
   180. D(H  14,C  11,H  10,O  26)     57.18  0.000030   -0.51     56.67   
   181. D(H  13,C  11,H  10,H  14)    138.52  0.000020   -2.24    136.28   
   182. D(H  13,C  11,H  10,H  12)   -111.04  0.000061   -2.38   -113.42   
   183. D(H  13,C  11,H  10,C   9)     15.29  0.000043   -3.35     11.94   
   184. D(H  13,C  11,H  10,O  26)   -164.30  0.000050   -2.75   -167.05   
   185. D(H  12,C  11,H  10,N  15)     91.30 -0.000015   -0.29     91.01   
   186. D(H  12,C  11,H  10,H  14)   -110.45 -0.000041    0.14   -110.30   
   187. D(H  12,C  11,H  10,C   2)    160.35 -0.000002   -0.84    159.51   
   188. D(H  12,C  11,H  10,O  26)    -53.26 -0.000011   -0.37    -53.63   
   189. D(C   9,C  11,H  10,N  15)    -35.03  0.000003    0.68    -34.35   
   190. D(C   9,C  11,H  10,H  14)    123.23 -0.000023    1.11    124.34   
   191. D(C   9,C  11,H  10,H  12)   -126.32  0.000018    0.97   -125.36   
   192. D(C   9,C  11,H  10,C   2)     34.03  0.000016    0.13     34.16   
   193. D(H  12,C  11,H  10,C   9)    126.32 -0.000018   -0.97    125.36   
   194. D(C   9,C  11,H  10,O  26)   -179.59  0.000007    0.60   -178.99   
   195. D(H  10,C  11,C   9,C   2)    -88.76 -0.000104    1.48    -87.28   
   196. D(H  14,C  11,C   9,N  15)    159.10  0.000060    0.14    159.24   
   197. D(H  13,C  11,H  10,C   2)     49.32  0.000059   -3.22     46.09   
   198. D(H  14,C  11,C   9,H  10)     62.68  0.000030   -1.42     61.26   
   199. D(H  14,C  11,C   9,C   2)    -26.08 -0.000074    0.06    -26.02   
   200. D(H  13,C  11,C   9,H  10)   -176.15 -0.000138   -1.08   -177.23   
   201. D(H  13,C  11,H  10,N  15)    -19.74  0.000046   -2.67    -22.41   
   202. D(H  10,C  11,C   9,N  15)     96.41  0.000029    1.56     97.97   
   203. D(H  13,C  11,C   9,N  15)    -79.74 -0.000109    0.48    -79.26   
   204. D(H  13,C  11,C   9,C   2)     95.09 -0.000242    0.40     95.49   
   205. D(H  12,C  11,C   9,H  10)    -56.92 -0.000013   -1.35    -58.27   
   206. D(H  12,C  11,C   9,N  15)     39.49  0.000016    0.21     39.70   
   207. D(H  12,C  11,C   9,C   2)   -145.68 -0.000117    0.13   -145.55   
   208. D(H  10,H  12,C  11,H  14)    -77.70 -0.000027    0.88    -76.82   
   209. D(H  10,H  12,C  11,H  13)    166.81  0.000589    0.98    167.79   
   210. D(H  10,H  12,C  11,C   9)     43.70 -0.000021    1.10     44.80   
   211. D(C  11,H  12,H  10,N  15)    -72.39 -0.000019   -0.07    -72.46   
   212. D(C  11,H  12,H  10,H  14)     36.57  0.000044    0.21     36.78   
   213. D(C  11,H  12,H  10,C   9)    -35.06 -0.000011   -0.69    -35.75   
   214. D(C  11,H  12,H  10,C   2)    -16.70  0.000003   -0.71    -17.42   
   215. D(C  11,H  12,H  10,O  26)    144.33 -0.000024    0.29    144.62   
   216. D(H  10,H  14,C  11,H  13)   -170.64 -0.000436   -0.09   -170.72   
   217. D(H  10,H  14,C  11,H  12)     74.47  0.000017    0.25     74.72   
   218. D(H  10,H  14,C  11,C   9)    -46.25  0.000016    0.16    -46.10   
   219. D(C  11,H  14,H  10,N  15)     17.83  0.000017   -0.41     17.43   
   220. D(C  11,H  14,H  10,H  12)    -37.26  0.000075    0.05    -37.22   
   221. D(C  11,H  14,H  10,C   9)     37.28 -0.000021   -0.73     36.55   
   222. D(C  11,H  14,H  10,C   2)     76.82 -0.000019   -0.91     75.90   
   223. D(C  11,H  14,H  10,O  26)   -141.52  0.000003   -1.03   -142.54   
   224. D(C   9,N  15,H  10,C   2)    -34.38  0.000030   -0.30    -34.68   
   225. D(C   9,N  15,H  10,O  26)    176.79 -0.000065    2.30    179.08   
   226. D(H  10,N  15,C   9,C  11)    -96.06 -0.000053   -0.05    -96.11   
   227. D(H  10,N  15,C   9,C   2)     89.17  0.000086    0.05     89.22   
   228. D(O  17,N  15,C   9,H  10)    -85.05 -0.000107    0.22    -84.83   
   229. D(O  17,N  15,C   9,C  11)    178.89 -0.000160    0.17    179.06   
   230. D(O  17,N  15,C   9,C   2)      4.12 -0.000021    0.27      4.39   
   231. D(O  16,N  15,C   9,H  10)     95.68 -0.000077    0.31     95.99   
   232. D(O  16,N  15,C   9,C  11)     -0.38 -0.000130    0.26     -0.11   
   233. D(C   9,N  15,H  10,C  11)     37.89 -0.000019    0.21     38.10   
   234. D(O  16,N  15,C   9,C   2)   -175.15  0.000009    0.36   -174.79   
   235. D(O  17,N  15,H  10,H  14)    149.38  0.000001    0.28    149.66   
   236. D(O  17,N  15,H  10,H  12)   -174.61  0.000025    0.28   -174.33   
   237. D(O  17,N  15,H  10,C   9)    119.92  0.000049   -0.04    119.87   
   238. D(O  17,N  15,H  10,C   2)     85.54  0.000078   -0.35     85.19   
   239. D(O  17,N  15,H  10,O  26)    -63.30 -0.000017    2.25    -61.04   
   240. D(O  16,N  15,H  10,H  14)    -82.40 -0.000122    0.95    -81.45   
   241. D(O  16,N  15,H  10,H  12)    -46.39 -0.000098    0.95    -45.44   
   242. D(O  16,N  15,H  10,C  11)    -73.98 -0.000093    0.84    -73.14   
   243. D(O  16,N  15,H  10,C   9)   -111.86 -0.000074    0.63   -111.24   
   244. D(O  16,N  15,H  10,C   2)   -146.24 -0.000044    0.32   -145.92   
   245. D(O  17,N  15,H  10,C  11)    157.80  0.000030    0.17    157.97   
   246. D(O  16,N  15,H  10,O  26)     64.92 -0.000139    2.93     67.85   
   247. D(C   9,N  15,H  10,H  14)     29.46 -0.000048    0.32     29.79   
   248. D(C   9,N  15,H  10,H  12)     65.47 -0.000024    0.33     65.80   
   249. D(O  23,N  21,C   5,C   4)   -179.01  0.000041   -0.06   -179.07   
   250. D(O  23,N  21,C   5,C   0)      0.78  0.000000    0.01      0.79   
   251. D(O  22,N  21,C   5,C   4)      1.14  0.000052    0.03      1.17   
   252. D(O  22,N  21,C   5,C   0)   -179.07  0.000011    0.10   -178.97   
   253. D(H  10,O  26,O  18,H  19)     44.03  0.000046   -3.89     40.15   
   254. D(H  25,O  26,H  10,N  15)     63.97 -0.000139   -0.71     63.26   
   255. D(H  25,O  26,H  10,H  14)   -158.88 -0.000129    1.32   -157.56   
   256. D(H  25,O  26,H  10,H  12)    152.90 -0.000172    0.67    153.58   
   257. D(H  25,O  26,H  10,C  11)    176.38 -0.000180    1.07    177.46   
   258. D(H  25,O  26,H  10,C   9)    168.77 -0.000153   -0.79    167.99   
   259. D(H  25,O  26,H  10,C   2)    -63.55 -0.000268    3.82    -59.73   
   260. D(H  24,O  26,H  10,N  15)    177.73  0.000014   -1.32    176.42   
   261. D(H  24,O  26,H  10,H  14)    -45.11  0.000024    0.72    -44.40   
   262. D(H  24,O  26,H  10,H  12)    -93.33 -0.000019    0.07    -93.27   
   263. D(H  24,O  26,H  10,C  11)    -69.85 -0.000027    0.47    -69.39   
   264. D(H  24,O  26,H  10,C   9)    -77.46  0.000000   -1.39    -78.86   
   265. D(H  24,O  26,O  18,H  19)    -64.89 -0.000060   -4.12    -69.02   
   266. D(H  24,O  26,H  10,C   2)     50.21 -0.000115    3.21     53.43   
    ----------------------------------------------------------------------------




    ----------------------------------------------------------------------------
                                  WARNING !!!
       The optimization did not converge but reached the maximum number of
       optimization cycles.
       Please check your results very carefully.
    ----------------------------------------------------------------------------



                            ***************************************
                            *     ORCA property calculations      *
                            ***************************************

                                    ---------------------
                                    Active property flags
                                    ---------------------
   (+) Dipole Moment


------------------------------------------------------------------------------
                       ORCA ELECTRIC PROPERTIES CALCULATION
------------------------------------------------------------------------------

Dipole Moment Calculation                       ... on
Quadrupole Moment Calculation                   ... off
Polarizability Calculation                      ... off
GBWName                                         ... /home/rudenko/mop_saddle_orca_4_serv/for_orca/p-o2nc6h4chno2ch3_oh/orca/orca_end/end.gbw
Electron density                                ... /home/rudenko/mop_saddle_orca_4_serv/for_orca/p-o2nc6h4chno2ch3_oh/orca/orca_end/end.scfp
The origin for moment calculation is the CENTER OF MASS  = ( 1.580973,  1.202375 -1.837248)

-------------
DIPOLE MOMENT
-------------
                                X             Y             Z
Electronic contribution:     -5.90629       1.47034      10.80186
Nuclear contribution   :      5.28189      -4.30432      -9.75720
                        -----------------------------------------
Total Dipole Moment    :     -0.62439      -2.83398       1.04466
                        -----------------------------------------
Magnitude (a.u.)       :      3.08426
Magnitude (Debye)      :      7.83956



--------------------
Rotational spectrum 
--------------------
 
Rotational constants in cm-1:     0.025404     0.009119     0.008145 
Rotational constants in MHz :   761.599593   273.366259   244.177299 

 Dipole components along the rotational axes: 
x,y,z [a.u.] :     1.735275    -2.047709    -1.519325 
x,y,z [Debye]:     4.410718    -5.204863    -3.861817 

 

Timings for individual modules:

Sum of individual times         ...     4591.101 sec (=  76.518 min)
GTO integral calculation        ...      406.951 sec (=   6.783 min)   8.9 %
SCF iterations                  ...     3219.439 sec (=  53.657 min)  70.1 %
SCF Gradient evaluation         ...      956.300 sec (=  15.938 min)  20.8 %
Geometry relaxation             ...        8.411 sec (=   0.140 min)   0.2 %
                             ****ORCA TERMINATED NORMALLY****
TOTAL RUN TIME: 0 days 1 hours 21 minutes 41 seconds 63 msec
