 *******************************************************************************
 **                                                                           **
 **                              MOPAC v22.0.6                                **
 **                                                                           **
 *******************************************************************************
 **          Digital Object Identifier (DOI): 10.5281/zenodo.6511958          **
 **    Visit the DOI location for information on how to cite this program.    **
 *******************************************************************************

                              PM7 CALCULATION RESULTS

 *******************************************************************************
 *  CALCULATION DONE:                                Tue Mar 26 11:40:17 2024  *
 *  PM7        - The PM7 Hamiltonian to be used
 *  SINGLET    - SPIN STATE DEFINED AS A SINGLET
 *
 *
 *
 *                 CHARGE ON SYSTEM = 0
 *
 *
 *
 *  EPS=78.4   - USE ANDREAS KLAMT'S COSMO IMPLICIT SOLVATION MODEL
 *  T=         - A TIME OF 14.0 DAYS REQUESTED
 *  DUMP=N     - RESTART FILE WRITTEN EVERY 30.0 MINUTES REQUESTED
 *  RELSCF     - DEFAULT SCF CRITERION MULTIPLIED BY 1.0000
 *              (DEFAULT SCF CRITERION = 0.00010)
 *  ITRY=      - DO A MAXIMUM OF 15000 ITERATIONS FOR SCF
 *  AUX        - OUTPUT AUXILIARY INFORMATION
 *  BONDS      - FINAL BOND-ORDER MATRIX TO BE PRINTED
 *******************************************************************************
PM7 BONDS AUX DUMP=30M ITRY=15000 T=14D CHARGE=0 SINGLET eps=78.4 RELSCF=1
 Title: ASE calculation

   ATOM   CHEMICAL          X               Y               Z
  NUMBER   SYMBOL      (ANGSTROMS)     (ANGSTROMS)     (ANGSTROMS)

     1       C          0.26669000  *  -0.73938000  *  -0.64665000  *
     2       H         -0.11031000  *  -1.23872000  *  -1.54638000  *
     3       N          0.32763000  *  -2.89732000  *   0.46487000  *
     4       O         -0.04224000  *  -3.50280000  *  -0.57550000  *
     5       O          0.55092000  *  -3.60426000  *   1.48886000  *
     6       H          0.90219000  *   1.11189000  *   0.20854000  *
     7       C          0.47304000  *  -1.57514000  *   0.51007000  *
     8       H          3.34197000  *  -1.43029000  *  -0.28540000  *
     9       H          0.81682000  *  -1.12150000  *   1.43521000  *
    10       C          0.52105000  *   0.57506000  *  -0.64270000  *
    11       H          0.37704000  *   1.21042000  *  -1.49874000  *
    12       C          6.94759000  *   0.62210000  *  -0.09873000  *
    13       C          7.94840000  *   1.54969000  *  -0.37839000  *
    14       C          7.58466000  *   2.79833000  *  -0.92307000  *
    15       C          6.22670000  *   3.08824000  *  -1.08716000  *
    16       C          5.26302000  *   2.13090000  *  -0.78632000  *
    17       N          5.63652000  *   0.91143000  *  -0.32176000  *
    18       H          7.17428000  *  -0.38189000  *   0.30327000  *
    19       H          5.90915000  *   4.06611000  *  -1.46559000  *
    20       H          4.18433000  *   2.32139000  *  -0.92339000  *
    21       C          9.36200000  *   1.19161000  *  -0.11351000  *
    22       H          9.89027000  *   1.98107000  *   0.44981000  *
    23       H          9.92755000  *   1.04693000  *  -1.05086000  *
    24       H          9.47382000  *   0.26320000  *   0.46863000  *
    25       C          8.61788000  *   3.76952000  *  -1.34355000  *
    26       H          8.20466000  *   4.71475000  *  -1.72739000  *
    27       H          9.25185000  *   3.35095000  *  -2.14908000  *
    28       H          9.30807000  *   4.03134000  *  -0.52205000  *
    29       H          4.91703000  *   0.13115000  *  -0.17486000  *
    30       O          4.49054000  *  -1.41120000  *  -0.29212000  *
    31       H          4.63832000  *  -1.74209000  *  -1.19403000  *



          CARTESIAN COORDINATES 

    NO.       ATOM           X           Y           Z

     1         C          0.2667     -0.7394     -0.6467
     2         H         -0.1103     -1.2387     -1.5464
     3         N          0.3276     -2.8973      0.4649
     4         O         -0.0422     -3.5028     -0.5755
     5         O          0.5509     -3.6043      1.4889
     6         H          0.9022      1.1119      0.2085
     7         C          0.4730     -1.5751      0.5101
     8         H          3.3420     -1.4303     -0.2854
     9         H          0.8168     -1.1215      1.4352
    10         C          0.5211      0.5751     -0.6427
    11         H          0.3770      1.2104     -1.4987
    12         C          6.9476      0.6221     -0.0987
    13         C          7.9484      1.5497     -0.3784
    14         C          7.5847      2.7983     -0.9231
    15         C          6.2267      3.0882     -1.0872
    16         C          5.2630      2.1309     -0.7863
    17         N          5.6365      0.9114     -0.3218
    18         H          7.1743     -0.3819      0.3033
    19         H          5.9092      4.0661     -1.4656
    20         H          4.1843      2.3214     -0.9234
    21         C          9.3620      1.1916     -0.1135
    22         H          9.8903      1.9811      0.4498
    23         H          9.9276      1.0469     -1.0509
    24         H          9.4738      0.2632      0.4686
    25         C          8.6179      3.7695     -1.3436
    26         H          8.2047      4.7148     -1.7274
    27         H          9.2518      3.3510     -2.1491
    28         H          9.3081      4.0313     -0.5221
    29         H          4.9170      0.1311     -0.1749
    30         O          4.4905     -1.4112     -0.2921
    31         H          4.6383     -1.7421     -1.1940

 General Reference for PM7:
 "Optimization of Parameters for Semiempirical Methods VI: More Modifications to the 
 NDDO Approximations and Re-optimization of Parameters", J. J. P. Stewart, J. Mol. Mod., 1:32, 19 (2013)
 https://link.springer.com/article/10.1007/s00894-012-1667-x

           Empirical Formula: C10 H16 N2 O3  =    31 atoms



      MOLECULAR POINT GROUP   :   C1  


 SINGLET STATE CALCULATION


      RHF CALCULATION, NO. OF DOUBLY OCCUPIED LEVELS = 42


          Geometry optimization using EF
  SCF CRITERION =    0.1000E-03

          DIAGONAL MATRIX USED AS START HESSIAN

 CYCLE:     1 TIME:   0.086 TIME LEFT:  2.00W  GRAD.:   130.521 HEAT: -61.63734
 CYCLE:     2 TIME:   0.047 TIME LEFT:  2.00W  GRAD.:    17.622 HEAT: -69.46977
 CYCLE:     3 TIME:   0.125 TIME LEFT:  2.00W  GRAD.:     9.040 HEAT: -69.59392
 CYCLE:     4 TIME:   0.086 TIME LEFT:  2.00W  GRAD.:     9.676 HEAT: -69.63673
 CYCLE:     5 TIME:   0.043 TIME LEFT:  2.00W  GRAD.:     7.201 HEAT: -69.70149
 CYCLE:     6 TIME:   0.082 TIME LEFT:  2.00W  GRAD.:    12.794 HEAT: -69.72098
 CYCLE:     7 TIME:   0.039 TIME LEFT:  2.00W  GRAD.:     9.993 HEAT: -69.77152
 CYCLE:     8 TIME:   0.043 TIME LEFT:  2.00W  GRAD.:    16.204 HEAT: -69.79607
 CYCLE:     9 TIME:   0.043 TIME LEFT:  2.00W  GRAD.:    12.055 HEAT: -69.86033
 CYCLE:    10 TIME:   0.086 TIME LEFT:  2.00W  GRAD.:    11.457 HEAT: -69.88079
 CYCLE:    11 TIME:   0.043 TIME LEFT:  2.00W  GRAD.:     7.347 HEAT: -69.89671
 CYCLE:    12 TIME:   0.043 TIME LEFT:  2.00W  GRAD.:     7.546 HEAT: -69.95846
 CYCLE:    13 TIME:   0.043 TIME LEFT:  2.00W  GRAD.:     6.890 HEAT: -69.98549
 CYCLE:    14 TIME:   0.121 TIME LEFT:  2.00W  GRAD.:     3.873 HEAT: -70.00157
 CYCLE:    15 TIME:   0.086 TIME LEFT:  2.00W  GRAD.:     3.461 HEAT: -70.03346

     TRUST RADIUS NOW LESS THAN  0.00010 OPTIMIZATION TERMINATING
      THE GEOMETRY MAY NOT BE COMPLETELY OPTIMIZED
      (TO CONTINUE, ADD 'LET DDMIN=0.0' TO THE KEYWORD LINE)

 -------------------------------------------------------------------------------
 PM7 BONDS AUX DUMP=30M ITRY=15000 T=14D CHARGE=0 SINGLET eps=78.4 RELSCF=1
 Title: ASE calculation



     GEOMETRY OPTIMISED USING EIGENVECTOR FOLLOWING (EF).     
     SCF FIELD WAS ACHIEVED                                   


                              PM7 CALCULATION
                                                       MOPAC v22.0.6 Linux
                                                       Tue Mar 26 11:40:19 2024




          FINAL HEAT OF FORMATION =        -70.03346 KCAL/MOL =    -293.01999 KJ/MOL
          VAN DER WAALS AREA      =        285.30 SQUARE ANGSTROMS



          DIELECTRIC ENERGY       =         -3.08855 EV
          COSMO AREA              =        285.30 SQUARE ANGSTROMS
          COSMO VOLUME            =        288.74 CUBIC ANGSTROMS

          GRADIENT NORM           =          3.46121          =       0.62165 PER ATOM
          IONIZATION POTENTIAL    =          8.517801 EV
          HOMO LUMO ENERGIES (EV) =         -8.518 -1.226
          NO. OF FILLED LEVELS    =         42
          MOLECULAR WEIGHT        =        212.2480         POINT GROUP:  C1  

          MOLECULAR DIMENSIONS (Angstroms)

            Atom       Atom       Distance
            H    28    O     4    11.99037
            H    24    H    11     6.74323
            H     9    H    27     3.99971


          SCF CALCULATIONS        =         31

          WALL-CLOCK TIME         =      1.305 SECONDS
          COMPUTATION TIME        =          1 MINUTE AND 58.503 SECONDS



       FINAL  POINT  AND  DERIVATIVES

   PARAMETER     ATOM    TYPE            VALUE        GRADIENT
      1          1  C    CARTESIAN X     0.281709     -0.571898  KCAL/ANGSTROM
      2          1  C    CARTESIAN Y    -0.740251     -0.492474  KCAL/ANGSTROM
      3          1  C    CARTESIAN Z    -0.647142     -0.069625  KCAL/ANGSTROM
      4          2  H    CARTESIAN X    -0.102312     -0.427868  KCAL/ANGSTROM
      5          2  H    CARTESIAN Y    -1.239790     -0.049689  KCAL/ANGSTROM
      6          2  H    CARTESIAN Z    -1.543693     -0.012944  KCAL/ANGSTROM
      7          3  N    CARTESIAN X     0.344001     -0.194224  KCAL/ANGSTROM
      8          3  N    CARTESIAN Y    -2.896337     -0.432097  KCAL/ANGSTROM
      9          3  N    CARTESIAN Z     0.463944      0.159645  KCAL/ANGSTROM
     10          4  O    CARTESIAN X    -0.017152     -0.801049  KCAL/ANGSTROM
     11          4  O    CARTESIAN Y    -3.500859      0.056341  KCAL/ANGSTROM
     12          4  O    CARTESIAN Z    -0.580425      0.229891  KCAL/ANGSTROM
     13          5  O    CARTESIAN X     0.546127      0.028891  KCAL/ANGSTROM
     14          5  O    CARTESIAN Y    -3.603647      0.098674  KCAL/ANGSTROM
     15          5  O    CARTESIAN Z     1.491968     -0.297546  KCAL/ANGSTROM
     16          6  H    CARTESIAN X     0.910080     -0.208407  KCAL/ANGSTROM
     17          6  H    CARTESIAN Y     1.112419     -0.179960  KCAL/ANGSTROM
     18          6  H    CARTESIAN Z     0.208383     -0.059601  KCAL/ANGSTROM
     19          7  C    CARTESIAN X     0.501489     -0.035372  KCAL/ANGSTROM
     20          7  C    CARTESIAN Y    -1.575728     -0.207672  KCAL/ANGSTROM
     21          7  C    CARTESIAN Z     0.507650      0.187037  KCAL/ANGSTROM
     22          8  H    CARTESIAN X     3.393047      1.533639  KCAL/ANGSTROM
     23          8  H    CARTESIAN Y    -1.490208      1.313192  KCAL/ANGSTROM
     24          8  H    CARTESIAN Z    -0.292245      0.161729  KCAL/ANGSTROM
     25          9  H    CARTESIAN X     0.825922     -0.608980  KCAL/ANGSTROM
     26          9  H    CARTESIAN Y    -1.119730      0.032895  KCAL/ANGSTROM
     27          9  H    CARTESIAN Z     1.437679      0.035741  KCAL/ANGSTROM
     28         10  C    CARTESIAN X     0.525882     -0.367448  KCAL/ANGSTROM
     29         10  C    CARTESIAN Y     0.576308      0.539568  KCAL/ANGSTROM
     30         10  C    CARTESIAN Z    -0.641915      0.127143  KCAL/ANGSTROM
     31         11  H    CARTESIAN X     0.375538      0.266343  KCAL/ANGSTROM
     32         11  H    CARTESIAN Y     1.212344     -0.114695  KCAL/ANGSTROM
     33         11  H    CARTESIAN Z    -1.496226      0.009993  KCAL/ANGSTROM
     34         12  C    CARTESIAN X     6.952947      0.148165  KCAL/ANGSTROM
     35         12  C    CARTESIAN Y     0.621751     -0.070201  KCAL/ANGSTROM
     36         12  C    CARTESIAN Z    -0.100655     -0.128686  KCAL/ANGSTROM
     37         13  C    CARTESIAN X     7.952691     -0.120508  KCAL/ANGSTROM
     38         13  C    CARTESIAN Y     1.550474     -0.004528  KCAL/ANGSTROM
     39         13  C    CARTESIAN Z    -0.382545      0.110965  KCAL/ANGSTROM
     40         14  C    CARTESIAN X     7.589448     -0.066573  KCAL/ANGSTROM
     41         14  C    CARTESIAN Y     2.799883     -0.004797  KCAL/ANGSTROM
     42         14  C    CARTESIAN Z    -0.925622      0.028436  KCAL/ANGSTROM
     43         15  C    CARTESIAN X     6.231038     -0.260353  KCAL/ANGSTROM
     44         15  C    CARTESIAN Y     3.086310      0.066819  KCAL/ANGSTROM
     45         15  C    CARTESIAN Z    -1.095927      0.230922  KCAL/ANGSTROM
     46         16  C    CARTESIAN X     5.267727     -0.155882  KCAL/ANGSTROM
     47         16  C    CARTESIAN Y     2.130444      0.137479  KCAL/ANGSTROM
     48         16  C    CARTESIAN Z    -0.792297     -0.048881  KCAL/ANGSTROM
     49         17  N    CARTESIAN X     5.640759     -0.067326  KCAL/ANGSTROM
     50         17  N    CARTESIAN Y     0.912294     -0.160860  KCAL/ANGSTROM
     51         17  N    CARTESIAN Z    -0.319050      0.052111  KCAL/ANGSTROM
     52         18  H    CARTESIAN X     7.187342      0.251619  KCAL/ANGSTROM
     53         18  H    CARTESIAN Y    -0.380697     -0.220354  KCAL/ANGSTROM
     54         18  H    CARTESIAN Z     0.302953      0.032780  KCAL/ANGSTROM
     55         19  H    CARTESIAN X     5.915743      0.022348  KCAL/ANGSTROM
     56         19  H    CARTESIAN Y     4.063699      0.264067  KCAL/ANGSTROM
     57         19  H    CARTESIAN Z    -1.479149      0.298591  KCAL/ANGSTROM
     58         20  H    CARTESIAN X     4.188140     -0.223207  KCAL/ANGSTROM
     59         20  H    CARTESIAN Y     2.319899     -0.028498  KCAL/ANGSTROM
     60         20  H    CARTESIAN Z    -0.930768      0.083320  KCAL/ANGSTROM
     61         21  C    CARTESIAN X     9.366750     -0.109637  KCAL/ANGSTROM
     62         21  C    CARTESIAN Y     1.193746     -0.176680  KCAL/ANGSTROM
     63         21  C    CARTESIAN Z    -0.118762      0.070653  KCAL/ANGSTROM
     64         22  H    CARTESIAN X     9.894862      0.029272  KCAL/ANGSTROM
     65         22  H    CARTESIAN Y     1.980115     -0.028181  KCAL/ANGSTROM
     66         22  H    CARTESIAN Z     0.448622      0.069492  KCAL/ANGSTROM
     67         23  H    CARTESIAN X     9.932373     -0.167152  KCAL/ANGSTROM
     68         23  H    CARTESIAN Y     1.055705     -0.140686  KCAL/ANGSTROM
     69         23  H    CARTESIAN Z    -1.057167      0.234354  KCAL/ANGSTROM
     70         24  H    CARTESIAN X     9.482233     -0.069446  KCAL/ANGSTROM
     71         24  H    CARTESIAN Y     0.262760      0.112616  KCAL/ANGSTROM
     72         24  H    CARTESIAN Z     0.459387      0.289652  KCAL/ANGSTROM
     73         25  C    CARTESIAN X     8.620467     -0.181784  KCAL/ANGSTROM
     74         25  C    CARTESIAN Y     3.777433     -0.211110  KCAL/ANGSTROM
     75         25  C    CARTESIAN Z    -1.334886     -0.109913  KCAL/ANGSTROM
     76         26  H    CARTESIAN X     8.206085      0.112270  KCAL/ANGSTROM
     77         26  H    CARTESIAN Y     4.723868     -0.226787  KCAL/ANGSTROM
     78         26  H    CARTESIAN Z    -1.715317     -0.184442  KCAL/ANGSTROM
     79         27  H    CARTESIAN X     9.260646     -0.284202  KCAL/ANGSTROM
     80         27  H    CARTESIAN Y     3.367808     -0.348126  KCAL/ANGSTROM
     81         27  H    CARTESIAN Z    -2.139717     -0.121875  KCAL/ANGSTROM
     82         28  H    CARTESIAN X     9.305465      0.234822  KCAL/ANGSTROM
     83         28  H    CARTESIAN Y     4.039213     -0.088521  KCAL/ANGSTROM
     84         28  H    CARTESIAN Z    -0.508384     -0.295947  KCAL/ANGSTROM
     85         29  H    CARTESIAN X     4.918015      0.069554  KCAL/ANGSTROM
     86         29  H    CARTESIAN Y     0.160282      0.068452  KCAL/ANGSTROM
     87         29  H    CARTESIAN Z    -0.146622     -0.246188  KCAL/ANGSTROM
     88         30  O    CARTESIAN X     4.354713      1.483078  KCAL/ANGSTROM
     89         30  O    CARTESIAN Y    -1.421759     -0.006663  KCAL/ANGSTROM
     90         30  O    CARTESIAN Z    -0.287526     -0.129967  KCAL/ANGSTROM
     91         31  H    CARTESIAN X     4.624212      0.741434  KCAL/ANGSTROM
     92         31  H    CARTESIAN Y    -1.760557      0.502597  KCAL/ANGSTROM
     93         31  H    CARTESIAN Z    -1.161500     -0.706670  KCAL/ANGSTROM




   ATOM   CHEMICAL          X               Y               Z
  NUMBER   SYMBOL      (ANGSTROMS)     (ANGSTROMS)     (ANGSTROMS)

     1       C          0.28170893  *  -0.74025096  *  -0.64714227  *
     2       H         -0.10231150  *  -1.23978963  *  -1.54369343  *
     3       N          0.34400138  *  -2.89633683  *   0.46394379  *
     4       O         -0.01715164  *  -3.50085920  *  -0.58042473  *
     5       O          0.54612735  *  -3.60364724  *   1.49196808  *
     6       H          0.91007992  *   1.11241861  *   0.20838262  *
     7       C          0.50148929  *  -1.57572751  *   0.50764979  *
     8       H          3.39304712  *  -1.49020756  *  -0.29224466  *
     9       H          0.82592201  *  -1.11973020  *   1.43767878  *
    10       C          0.52588189  *   0.57630765  *  -0.64191468  *
    11       H          0.37553797  *   1.21234406  *  -1.49622588  *
    12       C          6.95294717  *   0.62175149  *  -0.10065524  *
    13       C          7.95269072  *   1.55047399  *  -0.38254524  *
    14       C          7.58944752  *   2.79988301  *  -0.92562216  *
    15       C          6.23103816  *   3.08630952  *  -1.09592656  *
    16       C          5.26772676  *   2.13044357  *  -0.79229735  *
    17       N          5.64075935  *   0.91229379  *  -0.31905001  *
    18       H          7.18734199  *  -0.38069737  *   0.30295333  *
    19       H          5.91574337  *   4.06369925  *  -1.47914924  *
    20       H          4.18813950  *   2.31989907  *  -0.93076850  *
    21       C          9.36674969  *   1.19374642  *  -0.11876173  *
    22       H          9.89486177  *   1.98011463  *   0.44862247  *
    23       H          9.93237285  *   1.05570504  *  -1.05716720  *
    24       H          9.48223343  *   0.26276033  *   0.45938668  *
    25       C          8.62046661  *   3.77743288  *  -1.33488562  *
    26       H          8.20608464  *   4.72386755  *  -1.71531666  *
    27       H          9.26064611  *   3.36780816  *  -2.13971668  *
    28       H          9.30546547  *   4.03921337  *  -0.50838430  *
    29       H          4.91801488  *   0.16028250  *  -0.14662160  *
    30       O          4.35471277  *  -1.42175865  *  -0.28752630  *
    31       H          4.62421212  *  -1.76055680  *  -1.16149967  *

                             CARTESIAN COORDINATES

   1    C        0.281708933    -0.740250959    -0.647142269
   2    H       -0.102311503    -1.239789627    -1.543693427
   3    N        0.344001383    -2.896336830     0.463943795
   4    O       -0.017151644    -3.500859200    -0.580424732
   5    O        0.546127345    -3.603647239     1.491968084
   6    H        0.910079915     1.112418610     0.208382618
   7    C        0.501489289    -1.575727515     0.507649787
   8    H        3.393047125    -1.490207565    -0.292244658
   9    H        0.825922010    -1.119730204     1.437678783
  10    C        0.525881891     0.576307650    -0.641914684
  11    H        0.375537970     1.212344062    -1.496225877
  12    C        6.952947170     0.621751489    -0.100655240
  13    C        7.952690719     1.550473987    -0.382545243
  14    C        7.589447522     2.799883014    -0.925622157
  15    C        6.231038165     3.086309520    -1.095926558
  16    C        5.267726763     2.130443567    -0.792297355
  17    N        5.640759347     0.912293788    -0.319050007
  18    H        7.187341986    -0.380697375     0.302953326
  19    H        5.915743372     4.063699251    -1.479149239
  20    H        4.188139503     2.319899070    -0.930768497
  21    C        9.366749691     1.193746421    -0.118761731
  22    H        9.894861773     1.980114626     0.448622470
  23    H        9.932372845     1.055705039    -1.057167201
  24    H        9.482233429     0.262760330     0.459386676
  25    C        8.620466610     3.777432879    -1.334885619
  26    H        8.206084637     4.723867554    -1.715316660
  27    H        9.260646113     3.367808158    -2.139716677
  28    H        9.305465466     4.039213373    -0.508384305
  29    H        4.918014878     0.160282499    -0.146621603
  30    O        4.354712767    -1.421758649    -0.287526303
  31    H        4.624212115    -1.760556797    -1.161499667


           Empirical Formula: C10 H16 N2 O3  =    31 atoms



      MOLECULAR POINT GROUP   :   C1  


                  EIGENVALUES  
 -38.60382 -35.90365 -30.55699 -29.64617 -28.22953 -28.04858 -27.62939 -26.16717
 -25.56464 -25.18853 -22.28897 -21.51678 -21.20809 -19.59156 -19.32480 -18.10900
 -18.00820 -17.63644 -17.02631 -16.51531 -16.18048 -16.13322 -15.85321 -15.20990
 -14.82238 -14.57248 -14.22553 -14.10351 -14.09490 -14.04574 -13.81731 -13.11947
 -12.84626 -12.58282 -12.01262 -11.41319 -11.16274 -11.10856 -10.92147 -10.79395
 -10.62657  -8.51780  -1.22595  -0.89316   0.44338   1.26784   1.36461   1.91249
   2.04982   2.94922   3.18596   3.61196   3.70734   3.91201   4.05673   4.16579
   4.26751   4.33055   4.70655   4.84696   5.23464   5.37099   5.37564   5.44292
   5.47005   5.51645   5.59476   5.70184   6.16270   6.17653   6.20094   6.41886
   6.46586   6.64428   6.66074   6.90990


              NET ATOMIC CHARGES AND DIPOLE CONTRIBUTIONS

  ATOM NO.   TYPE          CHARGE      No. of ELECS.   s-Pop       p-Pop       
    1          C          -0.047931        4.0479     1.07839     2.96954
    2          H           0.153326        0.8467     0.84667
    3          N           0.711856        4.2881     1.41524     2.87291
    4          O          -0.702597        6.7026     1.94472     4.75787
    5          O          -0.720844        6.7208     1.94582     4.77503
    6          H           0.146802        0.8532     0.85320
    7          C          -0.454979        4.4550     1.05717     3.39780
    8          H           0.373074        0.6269     0.62693
    9          H           0.188537        0.8115     0.81146
   10          C          -0.417623        4.4176     1.08755     3.33007
   11          H           0.144176        0.8558     0.85582
   12          C           0.014530        3.9855     1.10730     2.87817
   13          C          -0.036603        4.0366     1.07283     2.96377
   14          C           0.131805        3.8682     1.08374     2.78445
   15          C          -0.229153        4.2292     1.09221     3.13694
   16          C           0.052664        3.9473     1.10427     2.84307
   17          N          -0.176944        5.1769     1.51455     3.66239
   18          H           0.226209        0.7738     0.77379
   19          H           0.207546        0.7925     0.79245
   20          H           0.223064        0.7769     0.77694
   21          C          -0.457713        4.4577     1.04796     3.40976
   22          H           0.181947        0.8181     0.81805
   23          H           0.183691        0.8163     0.81631
   24          H           0.178808        0.8212     0.82119
   25          C          -0.482895        4.4829     1.05118     3.43172
   26          H           0.180244        0.8198     0.81976
   27          H           0.192334        0.8077     0.80767
   28          H           0.191085        0.8089     0.80892
   29          H           0.383760        0.6162     0.61624
   30          O          -0.734005        6.7340     1.81148     4.92252
   31          H           0.395830        0.6042     0.60417
 DIPOLE           X         Y         Z       TOTAL
 POINT-CHG.    28.220    22.276    -6.115    36.469
 HYBRID        -0.295    -0.777    -0.180     0.850
 SUM           27.925    21.499    -6.295    35.800


          ATOMIC ORBITAL ELECTRON POPULATIONS

     Atom    s        px        py        pz   
    1  C   1.07839   0.95599   0.98950   1.02406
    2  H   0.84667
    3  N   1.41524   0.95845   0.99512   0.91934
    4  O   1.94472   1.70706   1.75524   1.29557
    5  O   1.94582   1.76639   1.68847   1.32017
    6  H   0.85320
    7  C   1.05717   1.40066   0.87024   1.12691
    8  H   0.62693
    9  H   0.81146
   10  C   1.08755   1.12549   1.04818   1.15640
   11  H   0.85582
   12  C   1.10730   0.84112   1.07872   0.95833
   13  C   1.07283   0.99856   0.97307   0.99215
   14  C   1.08374   0.97504   0.95296   0.85646
   15  C   1.09221   0.98904   1.09856   1.04935
   16  C   1.10427   1.08900   0.85022   0.90386
   17  N   1.51455   1.16078   1.18317   1.31844
   18  H   0.77379
   19  H   0.79245
   20  H   0.77694
   21  C   1.04796   1.01507   1.19790   1.19679
   22  H   0.81805
   23  H   0.81631
   24  H   0.82119
   25  C   1.05118   1.11717   1.12274   1.19181
   26  H   0.81976
   27  H   0.80767
   28  H   0.80892
   29  H   0.61624
   30  O   1.81148   1.45039   1.90085   1.57129
   31  H   0.60417

          BONDING CONTRIBUTION OF EACH M.O.

  1.4476  1.4180  1.8806  1.1346  1.1260  1.9256  1.6002  1.9735  1.3298  1.9831
  1.9636  1.9488  1.2903  1.9325  1.5835  1.9909  1.6869  1.5688  1.3933  1.9217
  1.8908  1.2596  1.8677  2.0047  0.8362  1.7770  1.9130  1.9046  1.8968  1.9301
  1.8924  1.2928  1.9328  0.9296  1.9685  1.6285  1.9458  0.4646  0.4621  0.2483
  2.0475  1.2516 -2.0047 -1.9474 -2.2966 -1.8984 -1.9467 -2.2898 -2.1648 -1.9250
 -1.8980 -1.9890 -1.8178 -2.0199 -1.9404 -1.8994 -1.9523 -1.9560 -1.8986 -1.9322
 -1.9411 -1.9544 -1.9253 -1.9385 -1.9289 -1.9436 -1.9368 -1.8037 -1.9724 -1.9300
 -1.7296 -1.9611 -1.8860 -1.9791 -1.8805 -1.9564





            (VALENCIES)   BOND ORDERS

     1  C     (3.969)    10  C 1.909     7  C 1.080     2  H 0.961     5  O 0.013

     2  H     (0.976)     1  C 0.961

     3  N     (3.815)     7  C 1.388     4  O 1.200     5  O 1.184    10  C 0.038

     4  O     (1.529)     3  N 1.200     5  O 0.151     7  C 0.149    10  C 0.014     9  H 0.010

     5  O     (1.505)     3  N 1.184     4  O 0.151     7  C 0.141    10  C 0.014     1  C 0.013

     6  H     (0.978)    10  C 0.969

     7  C     (3.744)     3  N 1.388     1  C 1.080     9  H 0.947     4  O 0.149     5  O 0.141    10  C 0.028

     8  H     (0.861)    30  O 0.857

     9  H     (0.964)     7  C 0.947     4  O 0.010

    10  C     (3.942)     1  C 1.909    11  H 0.970     6  H 0.969     3  N 0.038     7  C 0.028     5  O 0.014
                          4  O 0.014

    11  H     (0.979)    10  C 0.970

    12  C     (3.903)    13  C 1.462    17  N 1.302    18  H 0.931    15  C 0.092    16  C 0.042    14  C 0.021

    13  C     (3.992)    12  C 1.462    14  C 1.358    21  C 1.020    16  C 0.097

    14  C     (3.964)    15  C 1.410    13  C 1.358    25  C 1.032    17  N 0.094    12  C 0.021    16  C 0.011

    15  C     (3.958)    16  C 1.457    14  C 1.410    19  H 0.942    12  C 0.092    17  N 0.011

    16  C     (3.898)    15  C 1.457    17  N 1.321    20  H 0.933    13  C 0.097    12  C 0.042    29  H 0.011
                         14  C 0.011

    17  N     (3.544)    16  C 1.321    12  C 1.302    29  H 0.763    14  C 0.094    30  O 0.020    15  C 0.011

    18  H     (0.949)    12  C 0.931

    19  H     (0.957)    15  C 0.942

    20  H     (0.950)    16  C 0.933

    21  C     (3.902)    13  C 1.020    24  H 0.957    22  H 0.948    23  H 0.945

    22  H     (0.967)    21  C 0.948

    23  H     (0.966)    21  C 0.945

    24  H     (0.968)    21  C 0.957

    25  C     (3.900)    14  C 1.032    26  H 0.957    28  H 0.940    27  H 0.938

    26  H     (0.968)    25  C 0.957

    27  H     (0.963)    25  C 0.938

    28  H     (0.963)    25  C 0.940

    29  H     (0.853)    17  N 0.763    30  O 0.053    16  C 0.011

    30  O     (1.775)     8  H 0.857    31  H 0.840    29  H 0.053    17  N 0.020

    31  H     (0.843)    30  O 0.840


 **********************
 *                    *
 * JOB ENDED NORMALLY *
 *                    *
 **********************



 TOTAL JOB TIME:             1.32 SECONDS

 == MOPAC DONE ==
