 *******************************************************************************
 **                                                                           **
 **                              MOPAC v22.0.6                                **
 **                                                                           **
 *******************************************************************************
 **          Digital Object Identifier (DOI): 10.5281/zenodo.6511958          **
 **    Visit the DOI location for information on how to cite this program.    **
 *******************************************************************************

                              PM7 CALCULATION RESULTS

 *******************************************************************************
 *  CALCULATION DONE:                                Sat Mar 23 20:30:35 2024  *
 *  PM7        - The PM7 Hamiltonian to be used
 *  SINGLET    - SPIN STATE DEFINED AS A SINGLET
 *
 *
 *
 *                 CHARGE ON SYSTEM = 0
 *
 *
 *
 *  EPS=78.4   - USE ANDREAS KLAMT'S COSMO IMPLICIT SOLVATION MODEL
 *  T=         - A TIME OF 14.0 DAYS REQUESTED
 *  DUMP=N     - RESTART FILE WRITTEN EVERY 30.0 MINUTES REQUESTED
 *  RELSCF     - DEFAULT SCF CRITERION MULTIPLIED BY 1.0000
 *              (DEFAULT SCF CRITERION = 0.00010)
 *  ITRY=      - DO A MAXIMUM OF 15000 ITERATIONS FOR SCF
 *  AUX        - OUTPUT AUXILIARY INFORMATION
 *  BONDS      - FINAL BOND-ORDER MATRIX TO BE PRINTED
 *******************************************************************************
PM7 BONDS AUX DUMP=30M ITRY=15000 T=14D CHARGE=0 SINGLET eps=78.4 RELSCF=1
 Title: ASE calculation

   ATOM   CHEMICAL          X               Y               Z
  NUMBER   SYMBOL      (ANGSTROMS)     (ANGSTROMS)     (ANGSTROMS)

     1       C          2.06815749  *   2.71995083  *   1.49040349  *
     2       C          2.10554266  *   1.33006663  *   1.59257591  *
     3       C          1.00560824  *   0.56776151  *   1.18612326  *
     4       C         -0.13127062  *   1.21369526  *   0.68233746  *
     5       C         -0.16466838  *   2.60182324  *   0.58794587  *
     6       C          0.93650439  *   3.35827400  *   0.98889829  *
     7       H          2.93124091  *   3.30745900  *   1.80392192  *
     8       H          2.98972177  *   0.84320481  *   2.00057644  *
     9       H         -0.98801178  *   0.61891553  *   0.36009100  *
    10       H          0.91191184  *   4.44479051  *   0.91253723  *
    11       C          1.02530900     -0.88522142      1.31703175   
    12       C          1.21381354  *  -1.46711640  *   2.67599698  *
    13       H          1.53511775  *  -2.51887361  *   2.64914047  *
    14       H          0.27221606  *  -1.44189269  *   3.24759111  *
    15       H          1.95407975  *  -0.91017534  *   3.26582381  *
    16       N          0.66289811  *  -1.66893712  *   0.30087206  *
    17       O          0.44778789  *  -1.19979689  *  -0.85130550  *
    18       O          0.58328812  *  -2.92314258  *   0.42338900  *
    19       N          5.14425937  *  -2.43718180  *   4.02514693  *
    20       C          4.47583134  *  -3.60179592  *   4.65215657  *
    21       C          4.66946754  *  -3.52293452  *   6.18139478  *
    22       N          6.11803044  *  -3.51024086  *   6.51130674  *
    23       C          6.80352876  *  -2.37644174  *   5.84012564  *
    24       C          6.59731785  *  -2.46495003  *   4.31302772  *
    25       H          7.07346291  *  -1.59209690  *   3.81613288  *
    26       H          7.09649469  *  -3.37484955  *   3.91668302  *
    27       H          7.88788062  *  -2.43619081  *   6.07922512  *
    28       H          6.44062673  *  -1.39120954  *   6.20482611  *
    29       H          4.21684955  *  -4.41622279  *   6.66591426  *
    30       H          4.14099128  *  -2.62707072  *   6.57343954  *
    31       H          4.86349107  *  -4.57062143  *   4.27170364  *
    32       H          3.29079928     -1.32352835  *   0.83541300  *
    33       H          4.97698080  *  -2.43176539  *   3.01849031  *
    34       H          3.39167256  *  -3.55858636  *   4.40503440  *
    35       H          6.23141753  *  -3.41446087  *   7.52924384  *
    36       H          4.62487934  *  -2.06035764  *   0.47209303  *
    37       H          4.63724275  *  -0.49489706  *   0.73527451  *
    38       O          4.23904583     -1.36627221      1.14793993   
    39       H         -1.05526449  *   3.09858487  *   0.20063194  *



          CARTESIAN COORDINATES 

    NO.       ATOM           X           Y           Z

     1         C          2.0682      2.7200      1.4904
     2         C          2.1055      1.3301      1.5926
     3         C          1.0056      0.5678      1.1861
     4         C         -0.1313      1.2137      0.6823
     5         C         -0.1647      2.6018      0.5879
     6         C          0.9365      3.3583      0.9889
     7         H          2.9312      3.3075      1.8039
     8         H          2.9897      0.8432      2.0006
     9         H         -0.9880      0.6189      0.3601
    10         H          0.9119      4.4448      0.9125
    11         C          1.0253     -0.8852      1.3170
    12         C          1.2138     -1.4671      2.6760
    13         H          1.5351     -2.5189      2.6491
    14         H          0.2722     -1.4419      3.2476
    15         H          1.9541     -0.9102      3.2658
    16         N          0.6629     -1.6689      0.3009
    17         O          0.4478     -1.1998     -0.8513
    18         O          0.5833     -2.9231      0.4234
    19         N          5.1443     -2.4372      4.0251
    20         C          4.4758     -3.6018      4.6522
    21         C          4.6695     -3.5229      6.1814
    22         N          6.1180     -3.5102      6.5113
    23         C          6.8035     -2.3764      5.8401
    24         C          6.5973     -2.4650      4.3130
    25         H          7.0735     -1.5921      3.8161
    26         H          7.0965     -3.3748      3.9167
    27         H          7.8879     -2.4362      6.0792
    28         H          6.4406     -1.3912      6.2048
    29         H          4.2168     -4.4162      6.6659
    30         H          4.1410     -2.6271      6.5734
    31         H          4.8635     -4.5706      4.2717
    32         H          3.2908     -1.3235      0.8354
    33         H          4.9770     -2.4318      3.0185
    34         H          3.3917     -3.5586      4.4050
    35         H          6.2314     -3.4145      7.5292
    36         H          4.6249     -2.0604      0.4721
    37         H          4.6372     -0.4949      0.7353
    38         O          4.2390     -1.3663      1.1479
    39         H         -1.0553      3.0986      0.2006

 General Reference for PM7:
 "Optimization of Parameters for Semiempirical Methods VI: More Modifications to the 
 NDDO Approximations and Re-optimization of Parameters", J. J. P. Stewart, J. Mol. Mod., 1:32, 19 (2013)
 https://link.springer.com/article/10.1007/s00894-012-1667-x

           Empirical Formula: C12 H21 N3 O3  =    39 atoms



      MOLECULAR POINT GROUP   :   C1  


 SINGLET STATE CALCULATION


      RHF CALCULATION, NO. OF DOUBLY OCCUPIED LEVELS = 51


          Geometry optimization using L-BFGS
  SCF CRITERION =    0.1000E-03
 CYCLE:     1 TIME:   0.219 TIME LEFT:  2.00W  GRAD.:     8.576 HEAT: -52.38249
 CYCLE:     2 TIME:   0.055 TIME LEFT:  2.00W  GRAD.:     8.476 HEAT: -52.38285
 CYCLE:     3 TIME:   0.062 TIME LEFT:  2.00W  GRAD.:     8.004 HEAT: -52.40448
 CYCLE:     4 TIME:   0.055 TIME LEFT:  2.00W  GRAD.:     8.511 HEAT: -52.38278
 CYCLE:     5 TIME:   0.055 TIME LEFT:  2.00W  GRAD.:     8.041 HEAT: -52.40422
 CYCLE:     6 TIME:   0.062 TIME LEFT:  2.00W  GRAD.:     9.375 HEAT: -52.46136
 CYCLE:     7 TIME:   0.055 TIME LEFT:  2.00W  GRAD.:    12.124 HEAT: -52.58567
 CYCLE:     8 TIME:   0.062 TIME LEFT:  2.00W  GRAD.:    23.165 HEAT: -52.67899
 CYCLE:     9 TIME:   0.055 TIME LEFT:  2.00W  GRAD.:     6.505 HEAT: -52.87271
 CYCLE:    10 TIME:   0.062 TIME LEFT:  2.00W  GRAD.:     4.450 HEAT: -52.91638
 CYCLE:    11 TIME:   0.062 TIME LEFT:  2.00W  GRAD.:     4.575 HEAT: -53.10759
 CYCLE:    12 TIME:   0.055 TIME LEFT:  2.00W  GRAD.:     9.241 HEAT: -53.00797
 CYCLE:    13 TIME:   0.062 TIME LEFT:  2.00W  GRAD.:     3.956 HEAT: -53.02285
 CYCLE:    14 TIME:   0.055 TIME LEFT:  2.00W  GRAD.:     3.045 HEAT: -53.02356
 CYCLE:    15 TIME:   0.062 TIME LEFT:  2.00W  GRAD.:     3.480 HEAT: -52.68545
 CYCLE:    16 TIME:   0.055 TIME LEFT:  2.00W  GRAD.:     3.995 HEAT: -52.68487
 CYCLE:    17 TIME:   0.062 TIME LEFT:  2.00W  GRAD.:     3.450 HEAT: -52.69616
 CYCLE:    18 TIME:   0.055 TIME LEFT:  2.00W  GRAD.:     3.628 HEAT: -52.70302
 CYCLE:    19 TIME:   0.062 TIME LEFT:  2.00W  GRAD.:     4.985 HEAT: -52.74916
 CYCLE:    20 TIME:   0.055 TIME LEFT:  2.00W  GRAD.:     5.543 HEAT: -52.74518
 CYCLE:    21 TIME:   0.062 TIME LEFT:  2.00W  GRAD.:     5.386 HEAT: -52.79241
 CYCLE:    22 TIME:   0.062 TIME LEFT:  2.00W  GRAD.:     5.530 HEAT: -52.80946
 CYCLE:    23 TIME:   0.055 TIME LEFT:  2.00W  GRAD.:     5.714 HEAT: -53.07217
 CYCLE:    24 TIME:   0.062 TIME LEFT:  2.00W  GRAD.:    10.301 HEAT: -52.97164
 CYCLE:    25 TIME:   0.062 TIME LEFT:  2.00W  GRAD.:     5.857 HEAT: -52.97958
 CYCLE:    26 TIME:   0.055 TIME LEFT:  2.00W  GRAD.:     2.317 HEAT: -53.01198
 CYCLE:    27 TIME:   0.055 TIME LEFT:  2.00W  GRAD.:     2.307 HEAT: -53.10107
 CYCLE:    28 TIME:   0.062 TIME LEFT:  2.00W  GRAD.:     1.490 HEAT: -53.05697
 CYCLE:    29 TIME:   0.062 TIME LEFT:  2.00W  GRAD.:     1.424 HEAT: -53.07246
 CYCLE:    30 TIME:   0.062 TIME LEFT:  2.00W  GRAD.:     1.819 HEAT: -52.90219
 CYCLE:    31 TIME:   0.062 TIME LEFT:  2.00W  GRAD.:     3.915 HEAT: -52.58510
 CYCLE:    32 TIME:   0.055 TIME LEFT:  2.00W  GRAD.:     7.860 HEAT: -52.59178
 CYCLE:    33 TIME:   0.062 TIME LEFT:  2.00W  GRAD.:     2.450 HEAT: -52.78341
 CYCLE:    34 TIME:   0.062 TIME LEFT:  2.00W  GRAD.:     2.174 HEAT: -52.76883
 CYCLE:    35 TIME:   0.062 TIME LEFT:  2.00W  GRAD.:     3.047 HEAT: -52.51260
 CYCLE:    36 TIME:   0.062 TIME LEFT:  2.00W  GRAD.:     3.514 HEAT: -52.58453
 CYCLE:    37 TIME:   0.062 TIME LEFT:  2.00W  GRAD.:     3.912 HEAT: -52.61822
 CYCLE:    38 TIME:   0.062 TIME LEFT:  2.00W  GRAD.:     5.096 HEAT: -52.66682
 CYCLE:    39 TIME:   0.062 TIME LEFT:  2.00W  GRAD.:     4.021 HEAT: -52.53436
 CYCLE:    40 TIME:   0.062 TIME LEFT:  2.00W  GRAD.:     3.086 HEAT: -52.43124
 CYCLE:    41 TIME:   0.062 TIME LEFT:  2.00W  GRAD.:     4.001 HEAT: -52.48189


           HEAT OF FORMATION IS ESSENTIALLY STATIONARY


          CURRENT BEST VALUE OF HEAT OF FORMATION =    -53.113041

 PM7 BONDS AUX DUMP=30M ITRY=15000 T=14D CHARGE=0 SINGLET eps=78.4 RELSCF=1
 Title: ASE calculation

  C     2.06951292 +1   2.71720116 +1   1.49360747 +1
  C     2.10745727 +1   1.32842327 +1   1.59533308 +1
  C     1.00731022 +1   0.56681049 +1   1.18482382 +1
  C    -0.12621219 +1   1.21450026 +1   0.67787975 +1
  C    -0.16075063 +1   2.60299473 +1   0.58426570 +1
  C     0.93836936 +1   3.35622920 +1   0.98993014 +1
  H     2.93178852 +1   3.30491145 +1   1.80555382 +1
  H     2.99226856 +1   0.84247336 +1   2.00122561 +1
  H    -0.98393211 +1   0.62459515 +1   0.35539639 +1
  H     0.91417192 +1   4.44169945 +1   0.91331497 +1
  C     1.02530900 +0  -0.88522142 +0   1.31703175 +0
  C     1.22120002 +1  -1.46786399 +1   2.67457552 +1
  H     1.54963952 +1  -2.51741965 +1   2.64238192 +1
  H     0.28359571 +1  -1.44574143 +1   3.25334819 +1
  H     1.96709478 +1  -0.91078510 +1   3.25778013 +1
  N     0.67783388 +1  -1.66930475 +1   0.29501958 +1
  O     0.46955225 +1  -1.19919246 +1  -0.85656423 +1
  O     0.59797027 +1  -2.92380446 +1   0.41795520 +1
  N     5.14271660 +1  -2.43688360 +1   4.02254555 +1
  C     4.47700068 +1  -3.60100573 +1   4.65241346 +1
  C     4.67010059 +1  -3.52057876 +1   6.18320046 +1
  N     6.11707955 +1  -3.50749652 +1   6.51665377 +1
  C     6.80060412 +1  -2.37529829 +1   5.84151027 +1
  C     6.59459181 +1  -2.46523079 +1   4.31281061 +1
  H     7.07240279 +1  -1.59431186 +1   3.81498315 +1
  H     7.09312529 +1  -3.37500469 +1   3.91522246 +1
  H     7.88432447 +1  -2.43705453 +1   6.07953629 +1
  H     6.44176634 +1  -1.38834662 +1   6.20645637 +1
  H     4.21549941 +1  -4.41189574 +1   6.66812704 +1
  H     4.14066138 +1  -2.62617073 +1   6.57681957 +1
  H     4.86166746 +1  -4.57155649 +1   4.27215285 +1
  H     3.29079928 +0  -1.31532570 +1   0.75462441 +1
  H     4.97290222 +1  -2.42698234 +1   3.01548193 +1
  H     3.39335486 +1  -3.55666569 +1   4.40629745 +1
  H     6.23210683 +1  -3.41480819 +1   7.53570345 +1
  H     4.67355670 +1  -2.05637698 +1   0.50217710 +1
  H     4.65939934 +1  -0.49488676 +1   0.76894318 +1
  O     4.23904583 +0  -1.36627221 +0   1.14793993 +0
  H    -1.05044447 +1   3.10094453 +1   0.19614331 +1



 -------------------------------------------------------------------------------
 PM7 BONDS AUX DUMP=30M ITRY=15000 T=14D CHARGE=0 SINGLET eps=78.4 RELSCF=1
 Title: ASE calculation



     HERBERTS TEST WAS SATISFIED IN BFGS                      
     SCF FIELD WAS ACHIEVED                                   


                              PM7 CALCULATION
                                                       MOPAC v22.0.6 Linux
                                                       Sat Mar 23 20:30:38 2024




          FINAL HEAT OF FORMATION =        -53.11304 KCAL/MOL =    -222.22496 KJ/MOL
          VAN DER WAALS AREA      =        312.08 SQUARE ANGSTROMS



          DIELECTRIC ENERGY       =         -3.80313 EV
          COSMO AREA              =        312.08 SQUARE ANGSTROMS
          COSMO VOLUME            =        339.74 CUBIC ANGSTROMS

          GRADIENT NORM           =          4.57464          =       0.73253 PER ATOM
          IONIZATION POTENTIAL    =          8.516148 EV
          HOMO LUMO ENERGIES (EV) =         -8.516  0.009
          NO. OF FILLED LEVELS    =         51
          MOLECULAR WEIGHT        =        255.3162         POINT GROUP:  C1  

          MOLECULAR DIMENSIONS (Angstroms)

            Atom       Atom       Distance
            H    39    H    35    12.22128
            O    18    H     7     6.70567
            H    36    H    14     5.01883


          SCF CALCULATIONS        =         44

          WALL-CLOCK TIME         =      2.727 SECONDS
          COMPUTATION TIME        =          4 MINUTES AND 6.704 SECONDS



       FINAL  POINT  AND  DERIVATIVES

   PARAMETER     ATOM    TYPE            VALUE        GRADIENT
      1          1  C    CARTESIAN X     2.069513     -0.232626  KCAL/ANGSTROM
      2          1  C    CARTESIAN Y     2.717201      0.717561  KCAL/ANGSTROM
      3          1  C    CARTESIAN Z     1.493607      0.212008  KCAL/ANGSTROM
      4          2  C    CARTESIAN X     2.107457      0.466080  KCAL/ANGSTROM
      5          2  C    CARTESIAN Y     1.328423     -0.622771  KCAL/ANGSTROM
      6          2  C    CARTESIAN Z     1.595333      0.213547  KCAL/ANGSTROM
      7          3  C    CARTESIAN X     1.007310     -0.247137  KCAL/ANGSTROM
      8          3  C    CARTESIAN Y     0.566810     -0.316089  KCAL/ANGSTROM
      9          3  C    CARTESIAN Z     1.184824     -0.139662  KCAL/ANGSTROM
     10          4  C    CARTESIAN X    -0.126212      0.176063  KCAL/ANGSTROM
     11          4  C    CARTESIAN Y     1.214500     -1.288030  KCAL/ANGSTROM
     12          4  C    CARTESIAN Z     0.677880      0.029161  KCAL/ANGSTROM
     13          5  C    CARTESIAN X    -0.160751      0.368505  KCAL/ANGSTROM
     14          5  C    CARTESIAN Y     2.602995      1.881443  KCAL/ANGSTROM
     15          5  C    CARTESIAN Z     0.584266      0.206107  KCAL/ANGSTROM
     16          6  C    CARTESIAN X     0.938369     -0.831514  KCAL/ANGSTROM
     17          6  C    CARTESIAN Y     3.356229     -0.587417  KCAL/ANGSTROM
     18          6  C    CARTESIAN Z     0.989930     -0.353206  KCAL/ANGSTROM
     19          7  H    CARTESIAN X     2.931789     -0.239738  KCAL/ANGSTROM
     20          7  H    CARTESIAN Y     3.304911     -0.160475  KCAL/ANGSTROM
     21          7  H    CARTESIAN Z     1.805554     -0.331641  KCAL/ANGSTROM
     22          8  H    CARTESIAN X     2.992269      0.161469  KCAL/ANGSTROM
     23          8  H    CARTESIAN Y     0.842473      0.123811  KCAL/ANGSTROM
     24          8  H    CARTESIAN Z     2.001226     -0.017530  KCAL/ANGSTROM
     25          9  H    CARTESIAN X    -0.983932     -0.206312  KCAL/ANGSTROM
     26          9  H    CARTESIAN Y     0.624595      0.203356  KCAL/ANGSTROM
     27          9  H    CARTESIAN Z     0.355396      0.259958  KCAL/ANGSTROM
     28         10  H    CARTESIAN X     0.914172     -0.265062  KCAL/ANGSTROM
     29         10  H    CARTESIAN Y     4.441699     -0.273042  KCAL/ANGSTROM
     30         10  H    CARTESIAN Z     0.913315     -0.108583  KCAL/ANGSTROM
     31         12  C    CARTESIAN X     1.221200     -0.513429  KCAL/ANGSTROM
     32         12  C    CARTESIAN Y    -1.467864      0.082137  KCAL/ANGSTROM
     33         12  C    CARTESIAN Z     2.674576      0.007990  KCAL/ANGSTROM
     34         13  H    CARTESIAN X     1.549640     -0.321826  KCAL/ANGSTROM
     35         13  H    CARTESIAN Y    -2.517420      0.242195  KCAL/ANGSTROM
     36         13  H    CARTESIAN Z     2.642382      0.151726  KCAL/ANGSTROM
     37         14  H    CARTESIAN X     0.283596     -0.426741  KCAL/ANGSTROM
     38         14  H    CARTESIAN Y    -1.445741      0.163953  KCAL/ANGSTROM
     39         14  H    CARTESIAN Z     3.253348     -0.100738  KCAL/ANGSTROM
     40         15  H    CARTESIAN X     1.967095     -0.428675  KCAL/ANGSTROM
     41         15  H    CARTESIAN Y    -0.910785     -0.142023  KCAL/ANGSTROM
     42         15  H    CARTESIAN Z     3.257780      0.078356  KCAL/ANGSTROM
     43         16  N    CARTESIAN X     0.677834     -0.423878  KCAL/ANGSTROM
     44         16  N    CARTESIAN Y    -1.669305      1.655990  KCAL/ANGSTROM
     45         16  N    CARTESIAN Z     0.295020      0.996309  KCAL/ANGSTROM
     46         17  O    CARTESIAN X     0.469552     -0.572523  KCAL/ANGSTROM
     47         17  O    CARTESIAN Y    -1.199192     -0.291365  KCAL/ANGSTROM
     48         17  O    CARTESIAN Z    -0.856564      0.244851  KCAL/ANGSTROM
     49         18  O    CARTESIAN X     0.597970     -0.523358  KCAL/ANGSTROM
     50         18  O    CARTESIAN Y    -2.923804     -0.705989  KCAL/ANGSTROM
     51         18  O    CARTESIAN Z     0.417955      0.059184  KCAL/ANGSTROM
     52         19  N    CARTESIAN X     5.142717      0.104787  KCAL/ANGSTROM
     53         19  N    CARTESIAN Y    -2.436884     -0.216040  KCAL/ANGSTROM
     54         19  N    CARTESIAN Z     4.022546     -0.447578  KCAL/ANGSTROM
     55         20  C    CARTESIAN X     4.477001      0.283342  KCAL/ANGSTROM
     56         20  C    CARTESIAN Y    -3.601006     -0.051966  KCAL/ANGSTROM
     57         20  C    CARTESIAN Z     4.652413     -0.166690  KCAL/ANGSTROM
     58         21  C    CARTESIAN X     4.670101      0.197509  KCAL/ANGSTROM
     59         21  C    CARTESIAN Y    -3.520579     -0.024324  KCAL/ANGSTROM
     60         21  C    CARTESIAN Z     6.183200     -0.085299  KCAL/ANGSTROM
     61         22  N    CARTESIAN X     6.117080      0.065423  KCAL/ANGSTROM
     62         22  N    CARTESIAN Y    -3.507497     -0.025018  KCAL/ANGSTROM
     63         22  N    CARTESIAN Z     6.516654      0.280234  KCAL/ANGSTROM
     64         23  C    CARTESIAN X     6.800604     -0.164160  KCAL/ANGSTROM
     65         23  C    CARTESIAN Y    -2.375298      0.001705  KCAL/ANGSTROM
     66         23  C    CARTESIAN Z     5.841510      0.015818  KCAL/ANGSTROM
     67         24  C    CARTESIAN X     6.594592     -0.061778  KCAL/ANGSTROM
     68         24  C    CARTESIAN Y    -2.465231     -0.029419  KCAL/ANGSTROM
     69         24  C    CARTESIAN Z     4.312811     -0.050039  KCAL/ANGSTROM
     70         25  H    CARTESIAN X     7.072403     -0.042998  KCAL/ANGSTROM
     71         25  H    CARTESIAN Y    -1.594312     -0.141778  KCAL/ANGSTROM
     72         25  H    CARTESIAN Z     3.814983     -0.058119  KCAL/ANGSTROM
     73         26  H    CARTESIAN X     7.093125     -0.001874  KCAL/ANGSTROM
     74         26  H    CARTESIAN Y    -3.375005      0.100463  KCAL/ANGSTROM
     75         26  H    CARTESIAN Z     3.915222     -0.215679  KCAL/ANGSTROM
     76         27  H    CARTESIAN X     7.884324     -0.253584  KCAL/ANGSTROM
     77         27  H    CARTESIAN Y    -2.437055     -0.096556  KCAL/ANGSTROM
     78         27  H    CARTESIAN Z     6.079536      0.042971  KCAL/ANGSTROM
     79         28  H    CARTESIAN X     6.441766      0.081084  KCAL/ANGSTROM
     80         28  H    CARTESIAN Y    -1.388347      0.155590  KCAL/ANGSTROM
     81         28  H    CARTESIAN Z     6.206456      0.137192  KCAL/ANGSTROM
     82         29  H    CARTESIAN X     4.215499      0.082310  KCAL/ANGSTROM
     83         29  H    CARTESIAN Y    -4.411896      0.149162  KCAL/ANGSTROM
     84         29  H    CARTESIAN Z     6.668127     -0.031969  KCAL/ANGSTROM
     85         30  H    CARTESIAN X     4.140661      0.041187  KCAL/ANGSTROM
     86         30  H    CARTESIAN Y    -2.626171     -0.189493  KCAL/ANGSTROM
     87         30  H    CARTESIAN Z     6.576820      0.174034  KCAL/ANGSTROM
     88         31  H    CARTESIAN X     4.861667     -0.063973  KCAL/ANGSTROM
     89         31  H    CARTESIAN Y    -4.571556     -0.222097  KCAL/ANGSTROM
     90         31  H    CARTESIAN Z     4.272153     -0.191869  KCAL/ANGSTROM
     91         32  H    CARTESIAN Y    -1.315326      0.443806  KCAL/ANGSTROM
     92         32  H    CARTESIAN Z     0.754624     -0.995018  KCAL/ANGSTROM
     93         33  H    CARTESIAN X     4.972902     -0.022569  KCAL/ANGSTROM
     94         33  H    CARTESIAN Y    -2.426982      0.247042  KCAL/ANGSTROM
     95         33  H    CARTESIAN Z     3.015482     -0.540699  KCAL/ANGSTROM
     96         34  H    CARTESIAN X     3.393355      0.336587  KCAL/ANGSTROM
     97         34  H    CARTESIAN Y    -3.556666      0.052864  KCAL/ANGSTROM
     98         34  H    CARTESIAN Z     4.406297     -0.080672  KCAL/ANGSTROM
     99         35  H    CARTESIAN X     6.232107      0.176399  KCAL/ANGSTROM
    100         35  H    CARTESIAN Y    -3.414808     -0.321320  KCAL/ANGSTROM
    101         35  H    CARTESIAN Z     7.535703      0.519148  KCAL/ANGSTROM
    102         36  H    CARTESIAN X     4.673557     -0.729545  KCAL/ANGSTROM
    103         36  H    CARTESIAN Y    -2.056377     -0.452251  KCAL/ANGSTROM
    104         36  H    CARTESIAN Z     0.502177     -0.496066  KCAL/ANGSTROM
    105         37  H    CARTESIAN X     4.659399     -0.119970  KCAL/ANGSTROM
    106         37  H    CARTESIAN Y    -0.494887      0.881738  KCAL/ANGSTROM
    107         37  H    CARTESIAN Z     0.768943     -1.213914  KCAL/ANGSTROM
    108         39  H    CARTESIAN X    -1.050444     -0.175970  KCAL/ANGSTROM
    109         39  H    CARTESIAN Y     3.100945      0.000209  KCAL/ANGSTROM
    110         39  H    CARTESIAN Z     0.196143      0.213828  KCAL/ANGSTROM




   ATOM   CHEMICAL          X               Y               Z
  NUMBER   SYMBOL      (ANGSTROMS)     (ANGSTROMS)     (ANGSTROMS)

     1       C          2.06951292  *   2.71720116  *   1.49360747  *
     2       C          2.10745727  *   1.32842327  *   1.59533308  *
     3       C          1.00731022  *   0.56681049  *   1.18482382  *
     4       C         -0.12621219  *   1.21450026  *   0.67787975  *
     5       C         -0.16075063  *   2.60299473  *   0.58426570  *
     6       C          0.93836936  *   3.35622920  *   0.98993014  *
     7       H          2.93178852  *   3.30491145  *   1.80555382  *
     8       H          2.99226856  *   0.84247336  *   2.00122561  *
     9       H         -0.98393211  *   0.62459515  *   0.35539639  *
    10       H          0.91417192  *   4.44169945  *   0.91331497  *
    11       C          1.02530900     -0.88522142      1.31703175   
    12       C          1.22120002  *  -1.46786399  *   2.67457552  *
    13       H          1.54963952  *  -2.51741965  *   2.64238192  *
    14       H          0.28359571  *  -1.44574143  *   3.25334819  *
    15       H          1.96709478  *  -0.91078510  *   3.25778013  *
    16       N          0.67783388  *  -1.66930475  *   0.29501958  *
    17       O          0.46955225  *  -1.19919246  *  -0.85656423  *
    18       O          0.59797027  *  -2.92380446  *   0.41795520  *
    19       N          5.14271660  *  -2.43688360  *   4.02254555  *
    20       C          4.47700068  *  -3.60100573  *   4.65241346  *
    21       C          4.67010059  *  -3.52057876  *   6.18320046  *
    22       N          6.11707955  *  -3.50749652  *   6.51665377  *
    23       C          6.80060412  *  -2.37529829  *   5.84151027  *
    24       C          6.59459181  *  -2.46523079  *   4.31281061  *
    25       H          7.07240279  *  -1.59431186  *   3.81498315  *
    26       H          7.09312529  *  -3.37500469  *   3.91522246  *
    27       H          7.88432447  *  -2.43705453  *   6.07953629  *
    28       H          6.44176634  *  -1.38834662  *   6.20645637  *
    29       H          4.21549941  *  -4.41189574  *   6.66812704  *
    30       H          4.14066138  *  -2.62617073  *   6.57681957  *
    31       H          4.86166746  *  -4.57155649  *   4.27215285  *
    32       H          3.29079928     -1.31532570  *   0.75462441  *
    33       H          4.97290222  *  -2.42698234  *   3.01548193  *
    34       H          3.39335486  *  -3.55666569  *   4.40629745  *
    35       H          6.23210683  *  -3.41480819  *   7.53570345  *
    36       H          4.67355670  *  -2.05637698  *   0.50217710  *
    37       H          4.65939934  *  -0.49488676  *   0.76894318  *
    38       O          4.23904583     -1.36627221      1.14793993   
    39       H         -1.05044447  *   3.10094453  *   0.19614331  *

                             CARTESIAN COORDINATES

   1    C        2.069512916     2.717201163     1.493607466
   2    C        2.107457271     1.328423274     1.595333078
   3    C        1.007310225     0.566810488     1.184823823
   4    C       -0.126212193     1.214500263     0.677879745
   5    C       -0.160750626     2.602994734     0.584265704
   6    C        0.938369356     3.356229205     0.989930139
   7    H        2.931788521     3.304911454     1.805553816
   8    H        2.992268559     0.842473364     2.001225611
   9    H       -0.983932113     0.624595154     0.355396393
  10    H        0.914171918     4.441699450     0.913314969
  11    C        1.025309000    -0.885221420     1.317031750
  12    C        1.221200017    -1.467863994     2.674575516
  13    H        1.549639521    -2.517419647     2.642381921
  14    H        0.283595710    -1.445741429     3.253348190
  15    H        1.967094777    -0.910785103     3.257780128
  16    N        0.677833881    -1.669304748     0.295019582
  17    O        0.469552248    -1.199192456    -0.856564233
  18    O        0.597970272    -2.923804465     0.417955200
  19    N        5.142716604    -2.436883602     4.022545549
  20    C        4.477000678    -3.601005732     4.652413464
  21    C        4.670100594    -3.520578762     6.183200461
  22    N        6.117079551    -3.507496524     6.516653774
  23    C        6.800604118    -2.375298291     5.841510274
  24    C        6.594591813    -2.465230785     4.312810611
  25    H        7.072402790    -1.594311864     3.814983153
  26    H        7.093125293    -3.375004691     3.915222457
  27    H        7.884324466    -2.437054535     6.079536289
  28    H        6.441766340    -1.388346617     6.206456366
  29    H        4.215499410    -4.411895739     6.668127040
  30    H        4.140661377    -2.626170733     6.576819573
  31    H        4.861667459    -4.571556489     4.272152849
  32    H        3.290799280    -1.315325697     0.754624411
  33    H        4.972902216    -2.426982337     3.015481927
  34    H        3.393354863    -3.556665689     4.406297449
  35    H        6.232106829    -3.414808190     7.535703453
  36    H        4.673556702    -2.056376976     0.502177099
  37    H        4.659399335    -0.494886758     0.768943185
  38    O        4.239045830    -1.366272210     1.147939930
  39    H       -1.050444469     3.100944529     0.196143311


           Empirical Formula: C12 H21 N3 O3  =    39 atoms



      MOLECULAR POINT GROUP   :   C1  


                  EIGENVALUES  
 -36.03250 -35.87546 -34.34021 -33.12355 -30.62097 -28.12100 -27.80908 -26.35500
 -25.93171 -25.26264 -24.55688 -24.34455 -21.70098 -21.38771 -21.03899 -19.55634
 -19.45317 -19.25033 -19.01875 -18.14266 -18.10602 -16.97287 -16.59534 -16.30038
 -16.15504 -15.87497 -15.75998 -15.19311 -14.99433 -14.98052 -14.85094 -14.30136
 -14.27519 -13.92439 -13.73207 -13.44225 -13.13569 -13.03932 -12.28665 -12.00687
 -11.97523 -11.83936 -11.67401 -10.97894 -10.81619 -10.65306 -10.03964  -9.97053
  -9.67050  -9.23485  -8.51615   0.00917   0.10204   0.70384   1.20880   2.04251
   2.52935   2.87982   3.22859   3.75662   3.80685   4.00400   4.01846   4.03332
   4.30640   4.37182   4.46730   4.85389   4.96635   4.98401   5.14980   5.24957
   5.44350   5.45769   5.58018   5.62887   5.74756   5.78510   5.82006   5.95639
   5.96237   5.98869   6.04598   6.11438   6.12350   6.14902   6.17826   6.20106
   6.24901   6.34110   6.57552   6.69139   6.98807


              NET ATOMIC CHARGES AND DIPOLE CONTRIBUTIONS

  ATOM NO.   TYPE          CHARGE      No. of ELECS.   s-Pop       p-Pop       
    1          C          -0.147631        4.1476     1.08676     3.06088
    2          C          -0.202074        4.2021     1.08354     3.11854
    3          C           0.067986        3.9320     1.06047     2.87155
    4          C          -0.188480        4.1885     1.08694     3.10154
    5          C          -0.142962        4.1430     1.08631     3.05665
    6          C          -0.190836        4.1908     1.08345     3.10738
    7          H           0.153843        0.8462     0.84616
    8          H           0.153043        0.8470     0.84696
    9          H           0.169644        0.8304     0.83036
   10          H           0.159248        0.8408     0.84075
   11          C          -0.327194        4.3272     1.03593     3.29126
   12          C          -0.399664        4.3997     1.04276     3.35691
   13          H           0.161439        0.8386     0.83856
   14          H           0.153764        0.8462     0.84624
   15          H           0.152370        0.8476     0.84763
   16          N           0.690648        4.3094     1.41982     2.88953
   17          O          -0.705932        6.7059     1.94519     4.76074
   18          O          -0.708114        6.7081     1.94575     4.76237
   19          N          -0.560394        5.5604     1.66944     3.89095
   20          C          -0.120940        4.1209     1.07084     3.05010
   21          C          -0.126418        4.1264     1.07140     3.05502
   22          N          -0.582790        5.5828     1.67897     3.90382
   23          C          -0.126477        4.1265     1.07089     3.05559
   24          C          -0.132081        4.1321     1.07041     3.06167
   25          H           0.143631        0.8564     0.85637
   26          H           0.129658        0.8703     0.87034
   27          H           0.144766        0.8552     0.85523
   28          H           0.131300        0.8687     0.86870
   29          H           0.147626        0.8524     0.85237
   30          H           0.131868        0.8681     0.86813
   31          H           0.127892        0.8721     0.87211
   32          H           0.412324        0.5877     0.58768
   33          H           0.264934        0.7351     0.73507
   34          H           0.151720        0.8483     0.84828
   35          H           0.276311        0.7237     0.72369
   36          H           0.463446        0.5366     0.53655
   37          H           0.451089        0.5489     0.54891
   38          O          -0.341879        6.3419     1.80406     4.53782
   39          H           0.165316        0.8347     0.83468
 DIPOLE           X         Y         Z       TOTAL
 POINT-CHG.    16.977     3.450     4.261    17.841
 HYBRID        -0.137    -0.176    -0.728     0.762
 SUM           16.841     3.274     3.533    17.516


          ATOMIC ORBITAL ELECTRON POPULATIONS

     Atom    s        px        py        pz   
    1  C   1.08676   1.04945   1.01550   0.99593
    2  C   1.08354   1.05573   1.00943   1.05338
    3  C   1.06047   0.96589   0.94853   0.95712
    4  C   1.08694   1.05553   1.01338   1.03263
    5  C   1.08631   1.05001   1.00522   1.00143
    6  C   1.08345   0.99550   1.08746   1.02442
    7  H   0.84616
    8  H   0.84696
    9  H   0.83036
   10  H   0.84075
   11  C   1.03593   1.39656   0.94827   0.94643
   12  C   1.04276   1.17832   1.15660   1.02199
   13  H   0.83856
   14  H   0.84624
   15  H   0.84763
   16  N   1.41982   0.97109   0.94732   0.97113
   17  O   1.94519   1.75744   1.80525   1.19806
   18  O   1.94575   1.77906   1.05476   1.92855
   19  N   1.66944   1.16320   1.46248   1.26527
   20  C   1.07084   1.08570   0.97707   0.98734
   21  C   1.07140   0.88683   1.14883   1.01935
   22  N   1.67897   1.18493   1.47811   1.24079
   23  C   1.07089   1.08054   0.98833   0.98671
   24  C   1.07041   0.89277   1.15061   1.01829
   25  H   0.85637
   26  H   0.87034
   27  H   0.85523
   28  H   0.86870
   29  H   0.85237
   30  H   0.86813
   31  H   0.87211
   32  H   0.58768
   33  H   0.73507
   34  H   0.84828
   35  H   0.72369
   36  H   0.53655
   37  H   0.54891
   38  O   1.80406   1.46892   1.50235   1.56655
   39  H   0.83468

          BONDING CONTRIBUTION OF EACH M.O.

  1.3709  1.4168  1.2605  1.0947  1.9315  1.0517  1.7272  1.9471  1.9028  1.6650
  1.7938  1.4406  1.9559  1.7587  1.9125  1.7452  1.4731  1.5088  1.4722  1.9546
  1.6956  1.2819  0.8848  1.4416  1.8233  1.8201  1.9639  1.8602  1.9644  2.0107
  1.9401  1.9824  1.5161  1.9071  1.8056  1.9321  2.0079  1.9522  1.9589  1.9716
  2.0140  2.0149  2.0270  0.4584  0.5071  0.3017  1.8117  1.9415  0.7842  0.9831
  1.2413 -2.0447 -2.0205 -1.6724 -2.4521 -2.1254 -2.0384 -1.9815 -1.9555 -1.9561
 -1.6248 -1.9876 -1.8771 -1.6476 -1.9585 -1.8990 -1.9550 -1.9844 -1.9012 -1.9795
 -2.0006 -2.0059 -1.9744 -1.9694 -1.9581 -1.9470 -1.9601 -1.9739 -1.9947 -1.9762
 -1.9776 -1.9899 -1.9569 -1.9595 -1.9774 -1.9731 -1.9708 -1.9724 -1.9692 -1.9693
 -1.8631 -1.8782 -1.9094





            (VALENCIES)   BOND ORDERS

     1  C     (3.975)     2  C 1.447     6  C 1.440     7  H 0.964     4  C 0.111

     2  C     (3.974)     1  C 1.447     3  C 1.410     8  H 0.961     5  C 0.111    16  N 0.011

     3  C     (3.990)     2  C 1.410     4  C 1.408    11  C 1.026     6  C 0.110    18  O 0.012

     4  C     (3.970)     5  C 1.450     3  C 1.408     9  H 0.958     1  C 0.111    16  N 0.010

     5  C     (3.971)     4  C 1.450     6  C 1.437    39  H 0.960     2  C 0.111

     6  C     (3.973)     1  C 1.440     5  C 1.437    10  H 0.962     3  C 0.110

     7  H     (0.976)     1  C 0.964

     8  H     (0.977)     2  C 0.961

     9  H     (0.971)     4  C 0.958

    10  H     (0.975)     6  C 0.962

    11  C     (3.757)    16  N 1.383     3  C 1.026    12  C 0.997    17  O 0.151    18  O 0.150    32  H 0.013

    12  C     (3.922)    11  C 0.997    15  H 0.964    14  H 0.963    13  H 0.963    17  O 0.013

    13  H     (0.974)    12  C 0.963

    14  H     (0.976)    12  C 0.963

    15  H     (0.977)    12  C 0.964

    16  N     (3.812)    11  C 1.383    17  O 1.191    18  O 1.187     2  C 0.011     4  C 0.010

    17  O     (1.520)    16  N 1.191    11  C 0.151    18  O 0.150    12  C 0.013

    18  O     (1.515)    16  N 1.187    11  C 0.150    17  O 0.150     3  C 0.012

    19  N     (2.888)    24  C 0.975    20  C 0.972    33  H 0.899

    20  C     (3.934)    21  C 0.996    19  N 0.972    31  H 0.969    34  H 0.961

    21  C     (3.934)    20  C 0.996    22  N 0.970    30  H 0.968    29  H 0.963

    22  N     (2.877)    23  C 0.973    21  C 0.970    35  H 0.898

    23  C     (3.937)    24  C 0.996    22  N 0.973    28  H 0.968    27  H 0.963

    24  C     (3.939)    23  C 0.996    19  N 0.975    26  H 0.968    25  H 0.964

    25  H     (0.979)    24  C 0.964

    26  H     (0.983)    24  C 0.968

    27  H     (0.979)    23  C 0.963

    28  H     (0.983)    23  C 0.968

    29  H     (0.978)    21  C 0.963

    30  H     (0.983)    21  C 0.968

    31  H     (0.984)    20  C 0.969

    32  H     (0.830)    38  O 0.808    11  C 0.013

    33  H     (0.930)    19  N 0.899

    34  H     (0.977)    20  C 0.961

    35  H     (0.924)    22  N 0.898

    36  H     (0.785)    38  O 0.780

    37  H     (0.797)    38  O 0.790

    38  O     (2.391)    32  H 0.808    37  H 0.790    36  H 0.780

    39  H     (0.973)     5  C 0.960


 **********************
 *                    *
 * JOB ENDED NORMALLY *
 *                    *
 **********************



 TOTAL JOB TIME:             2.74 SECONDS

 == MOPAC DONE ==
