 *******************************************************************************
 **                                                                           **
 **                              MOPAC v22.0.6                                **
 **                                                                           **
 *******************************************************************************
 **          Digital Object Identifier (DOI): 10.5281/zenodo.6511958          **
 **    Visit the DOI location for information on how to cite this program.    **
 *******************************************************************************

                              PM7 CALCULATION RESULTS

 *******************************************************************************
 *  CALCULATION DONE:                                Sat Mar 23 20:30:53 2024  *
 *  PM7        - The PM7 Hamiltonian to be used
 *  SINGLET    - SPIN STATE DEFINED AS A SINGLET
 *
 *
 *
 *                 CHARGE ON SYSTEM = 0
 *
 *
 *
 *  EPS=78.4   - USE ANDREAS KLAMT'S COSMO IMPLICIT SOLVATION MODEL
 *  LET        - OVERRIDE SOME SAFETY CHECKS
 *  T=         - A TIME OF 14.0 DAYS REQUESTED
 *  DUMP=N     - RESTART FILE WRITTEN EVERY 30.0 MINUTES REQUESTED
 *  RELSCF     - DEFAULT SCF CRITERION MULTIPLIED BY 1.0000
 *              (DEFAULT SCF CRITERION = 0.00010)
 *  ITRY=      - DO A MAXIMUM OF 15000 ITERATIONS FOR SCF
 *  AUX        - OUTPUT AUXILIARY INFORMATION
 *  ISOTOPE    - SAVE THE FORCE MATRIX FOR USE LATER
 *  BONDS      - FINAL BOND-ORDER MATRIX TO BE PRINTED
 *  LARGE      - EXPANDED OUTPUT TO BE PRINTED
 *  THERMO     - THERMODYNAMIC QUANTITIES TO BE CALCULATED
 *******************************************************************************
PM7 AUX LARGE THERMO(298,298) LET ISOTOPE BONDS DUMP=30M ITRY=15000 T=14D CHARGE=0 SINGLET eps=78.4 RELSCF=1
 Title: ASE calculation

   ATOM   CHEMICAL          X               Y               Z
  NUMBER   SYMBOL      (ANGSTROMS)     (ANGSTROMS)     (ANGSTROMS)

     1       C          2.06951292  *   2.71720116  *   1.49360747  *
     2       C          2.10745727  *   1.32842327  *   1.59533308  *
     3       C          1.00731022  *   0.56681049  *   1.18482382  *
     4       C         -0.12621219  *   1.21450026  *   0.67787975  *
     5       C         -0.16075063  *   2.60299473  *   0.58426570  *
     6       C          0.93836936  *   3.35622920  *   0.98993014  *
     7       H          2.93178852  *   3.30491145  *   1.80555382  *
     8       H          2.99226856  *   0.84247336  *   2.00122561  *
     9       H         -0.98393211  *   0.62459515  *   0.35539639  *
    10       H          0.91417192  *   4.44169945  *   0.91331497  *
    11       C          1.02530900  *  -0.88522142  *   1.31703175  *
    12       C          1.22120002  *  -1.46786399  *   2.67457552  *
    13       H          1.54963952  *  -2.51741965  *   2.64238192  *
    14       H          0.28359571  *  -1.44574143  *   3.25334819  *
    15       H          1.96709478  *  -0.91078510  *   3.25778013  *
    16       N          0.67783388  *  -1.66930475  *   0.29501958  *
    17       O          0.46955225  *  -1.19919246  *  -0.85656423  *
    18       O          0.59797027  *  -2.92380446  *   0.41795520  *
    19       N          5.14271660  *  -2.43688360  *   4.02254555  *
    20       C          4.47700068  *  -3.60100573  *   4.65241346  *
    21       C          4.67010059  *  -3.52057876  *   6.18320046  *
    22       N          6.11707955  *  -3.50749652  *   6.51665377  *
    23       C          6.80060412  *  -2.37529829  *   5.84151027  *
    24       C          6.59459181  *  -2.46523079  *   4.31281061  *
    25       H          7.07240279  *  -1.59431186  *   3.81498315  *
    26       H          7.09312529  *  -3.37500469  *   3.91522246  *
    27       H          7.88432447  *  -2.43705454  *   6.07953629  *
    28       H          6.44176634  *  -1.38834662  *   6.20645637  *
    29       H          4.21549941  *  -4.41189574  *   6.66812704  *
    30       H          4.14066138  *  -2.62617073  *   6.57681957  *
    31       H          4.86166746  *  -4.57155649  *   4.27215285  *
    32       D          3.29079928  *  -1.31532570  *   0.75462441  *
    33       H          4.97290222  *  -2.42698234  *   3.01548193  *
    34       H          3.39335486  *  -3.55666569  *   4.40629745  *
    35       H          6.23210683  *  -3.41480819  *   7.53570345  *
    36       H          4.67355670  *  -2.05637698  *   0.50217710  *
    37       H          4.65939933  *  -0.49488676  *   0.76894319  *
    38       O          4.23904583  *  -1.36627221  *   1.14793993  *
    39       H         -1.05044447  *   3.10094453  *   0.19614331  *


                                Isotopes Used

              Atom:   32  H  Default mass  1.0079,  mass used:  2.0140 amu


          CARTESIAN COORDINATES 

    NO.       ATOM           X           Y           Z

     1         C          2.0695      2.7172      1.4936
     2         C          2.1075      1.3284      1.5953
     3         C          1.0073      0.5668      1.1848
     4         C         -0.1262      1.2145      0.6779
     5         C         -0.1608      2.6030      0.5843
     6         C          0.9384      3.3562      0.9899
     7         H          2.9318      3.3049      1.8056
     8         H          2.9923      0.8425      2.0012
     9         H         -0.9839      0.6246      0.3554
    10         H          0.9142      4.4417      0.9133
    11         C          1.0253     -0.8852      1.3170
    12         C          1.2212     -1.4679      2.6746
    13         H          1.5496     -2.5174      2.6424
    14         H          0.2836     -1.4457      3.2533
    15         H          1.9671     -0.9108      3.2578
    16         N          0.6778     -1.6693      0.2950
    17         O          0.4696     -1.1992     -0.8566
    18         O          0.5980     -2.9238      0.4180
    19         N          5.1427     -2.4369      4.0225
    20         C          4.4770     -3.6010      4.6524
    21         C          4.6701     -3.5206      6.1832
    22         N          6.1171     -3.5075      6.5167
    23         C          6.8006     -2.3753      5.8415
    24         C          6.5946     -2.4652      4.3128
    25         H          7.0724     -1.5943      3.8150
    26         H          7.0931     -3.3750      3.9152
    27         H          7.8843     -2.4371      6.0795
    28         H          6.4418     -1.3883      6.2065
    29         H          4.2155     -4.4119      6.6681
    30         H          4.1407     -2.6262      6.5768
    31         H          4.8617     -4.5716      4.2722
    32         H          3.2908     -1.3153      0.7546
    33         H          4.9729     -2.4270      3.0155
    34         H          3.3934     -3.5567      4.4063
    35         H          6.2321     -3.4148      7.5357
    36         H          4.6736     -2.0564      0.5022
    37         H          4.6594     -0.4949      0.7689
    38         O          4.2390     -1.3663      1.1479
    39         H         -1.0504      3.1009      0.1961

 General Reference for PM7:
 "Optimization of Parameters for Semiempirical Methods VI: More Modifications to the 
 NDDO Approximations and Re-optimization of Parameters", J. J. P. Stewart, J. Mol. Mod., 1:32, 19 (2013)
 https://link.springer.com/article/10.1007/s00894-012-1667-x

           Empirical Formula: C12 H21 N3 O3  =    39 atoms



      MOLECULAR POINT GROUP   :   C1  


 SINGLET STATE CALCULATION


      RHF CALCULATION, NO. OF DOUBLY OCCUPIED LEVELS = 51

  SCF CRITERION =    0.1000E-03


          HEAT OF FORMATION =     -53.108111 KCALS/MOLE


          CARTESIAN COORDINATE DERIVATIVES

   NUMBER  ATOM         X            Y            Z

     1       C     -0.919853     0.173469    -0.350181
     2       C      0.848529    -0.338940     0.025815
     3       C      0.195232     0.002800     0.042541
     4       C      1.192207     0.022287     0.130896
     5       C     -1.639023    -0.354754    -0.133659
     6       C      0.535769     0.719276     0.032198
     7       H      0.105362     0.331271     0.226039
     8       H     -0.094134    -0.136551     0.076874
     9       H     -0.215175     0.059328    -0.346066
    10       H      0.267236     0.282971     0.017120
    11       C     -0.992396     2.401609    -0.444135
    12       C     -0.037741     0.445022    -0.252623
    13       H     -0.223787     0.237484    -0.275190
    14       H     -0.181045     0.472921    -0.063249
    15       H      0.108927     0.338472    -0.226788
    16       N     -1.699606    -0.105749    -1.273091
    17       O      0.415714     0.541868    -0.398464
    18       O      0.585341     0.457558    -0.076790
    19       N      0.161781     0.047191     0.458706
    20       C      0.056739    -0.162462     0.337076
    21       C      0.019581    -0.158248     0.084381
    22       N      0.072898    -0.100634    -0.292352
    23       C     -0.001950     0.127679    -0.028549
    24       C      0.026305     0.025556     0.061435
    25       H      0.139652     0.065802     0.055849
    26       H     -0.119070     0.100529     0.166845
    27       H      0.093326     0.211535    -0.127016
    28       H     -0.154263    -0.127442    -0.121394
    29       H     -0.142742    -0.069602     0.099517
    30       H      0.197266    -0.079541    -0.140821
    31       H      0.198504     0.151922     0.150843
    32       H     -0.369218    -4.936073     3.149916
    33       H     -0.276262     0.210273     0.454855
    34       H     -0.044014    -0.276323     0.205944
    35       H      0.342162    -0.406841    -0.364416
    36       H      0.408710     0.893144     0.208599
    37       H     -0.982088     0.513046     1.000266
    38       O      2.082583    -1.671068    -1.796492
    39       H      0.038679     0.091310    -0.274296

 DIPOLE           X         Y         Z       TOTAL
 POINT-CHG.    -2.666   -17.478     2.385    17.841
 HYBRID         0.119     0.414     0.628     0.762
 SUM           -2.547   -17.065     3.014    17.515


          GRADIENT NORM =   8.42050


                              **** WARNING ****

           GRADIENT IS VERY LARGE FOR A THERMO CALCULATION
           RESULTS ARE LIKELY TO BE INACCURATE IF THERE ARE
           ANY LOW-LYING VIBRATIONS (LESS THAN ABOUT 400CM-1)
           GRADIENT NORM SHOULD BE LESS THAN ABOUT 1.2 FOR THERMO
           TO GIVE ACCURATE RESULTS


          TIME FOR SCF CALCULATION =    0.16

          TIME FOR DERIVATIVES     =    0.03

          MOLECULAR WEIGHT =  256.32



          ROTATIONAL CONSTANTS IN CM(-1)

          A =    0.02006365   B =    0.00505412   C =    0.00449180



           PRINCIPAL MOMENTS OF INERTIA IN UNITS OF 10**(-40)*GRAM-CM**2

          A =     1395.1971   B =     5538.5994   C =     6231.9725


          ORIENTATION OF MOLECULE IN FORCE CALCULATION

    NO.       ATOM         X         Y         Z

     1          C      -3.7748    0.7590    0.3564
     2          C      -2.3818    0.7590    0.3564
     3          C      -1.6824    1.9714    0.3564
     4          C      -2.3961    3.1764    0.3521
     5          C      -3.7881    3.1702    0.3459
     6          C      -4.4795    1.9611    0.3505
     7          H      -4.3145   -0.1870    0.3659
     8          H      -1.8436   -0.1865    0.3492
     9          H      -1.8549    4.1223    0.3541
    10          H      -5.5679    1.9549    0.3499
    11          C      -0.2247    1.9816    0.3242
    12          C       0.4607    1.3148   -0.8188
    13          H       1.5136    1.0796   -0.6033
    14          H       0.4553    1.9588   -1.7131
    15          H      -0.0318    0.3746   -1.1021
    16          N       0.4729    2.7331    1.1778
    17          O      -0.0855    3.3388    2.1327
    18          O       1.7304    2.8266    1.1054
    19          N       1.6320   -2.7671   -0.5024
    20          C       2.8204   -2.3305   -1.2718
    21          C       2.8573   -3.0959   -2.6135
    22          N       2.9080   -4.5593   -2.3667
    23          C       1.7486   -4.9934   -1.5469
    24          C       1.7210   -4.2164   -0.2116
    25          H       0.8294   -4.5143    0.3808
    26          H       2.6125   -4.4770    0.3980
    27          H       1.8570   -6.0812   -1.3472
    28          H       0.7815   -4.8535   -2.0772
    29          H       3.7689   -2.8135   -3.1839
    30          H       1.9799   -2.8045   -3.2303
    31          H       3.7707   -2.4893   -0.7184
    32          H       0.2247    0.1271    1.7359
    33          H       1.5439   -2.2275    0.3603
    34          H       2.7287   -1.2388   -1.4630
    35          H       2.8932   -5.0584   -3.2673
    36          H       0.9828   -1.0139    2.5411
    37          H      -0.5549   -1.1853    2.2007
    38          O       0.3301   -0.8953    1.7399
    39          H      -4.3371    4.1129    0.3341


    FIRST DERIVATIVES WILL BE USED IN THE CALCULATION OF SECOND DERIVATIVES

          ESTIMATED TIME TO COMPLETE CALCULATION =       43.88 SECONDS

    FOR POINT-GROUP C1   THERE ARE   1 UNIQUE SYMMETRY FUNCTIONS.

 STEP:   1 TIME =     0.10 SECS, INTEGRAL =      0.10 TIME LEFT:1209599.71
 STEP:   2 TIME =     0.11 SECS, INTEGRAL =      0.21 TIME LEFT:1209599.60
 STEP:   3 TIME =     0.12 SECS, INTEGRAL =      0.34 TIME LEFT:1209599.48
 STEP:   4 TIME =     0.12 SECS, INTEGRAL =      0.46 TIME LEFT:1209599.35
 STEP:   5 TIME =     0.11 SECS, INTEGRAL =      0.57 TIME LEFT:1209599.24
 STEP:   6 TIME =     0.12 SECS, INTEGRAL =      0.69 TIME LEFT:1209599.12
 STEP:   7 TIME =     0.14 SECS, INTEGRAL =      0.83 TIME LEFT:1209598.98
 STEP:   8 TIME =     0.10 SECS, INTEGRAL =      0.93 TIME LEFT:1209598.88
 STEP:   9 TIME =     0.09 SECS, INTEGRAL =      1.02 TIME LEFT:1209598.80
 STEP:  10 TIME =     0.10 SECS, INTEGRAL =      1.12 TIME LEFT:1209598.70
 STEP:  11 TIME =     0.12 SECS, INTEGRAL =      1.24 TIME LEFT:1209598.57
 STEP:  12 TIME =     0.12 SECS, INTEGRAL =      1.36 TIME LEFT:1209598.45
 STEP:  13 TIME =     0.12 SECS, INTEGRAL =      1.48 TIME LEFT:1209598.34
 STEP:  14 TIME =     0.13 SECS, INTEGRAL =      1.61 TIME LEFT:1209598.20
 STEP:  15 TIME =     0.09 SECS, INTEGRAL =      1.70 TIME LEFT:1209598.11
 STEP:  16 TIME =     0.10 SECS, INTEGRAL =      1.80 TIME LEFT:1209598.01
 STEP:  17 TIME =     0.12 SECS, INTEGRAL =      1.92 TIME LEFT:1209597.89
 STEP:  18 TIME =     0.12 SECS, INTEGRAL =      2.05 TIME LEFT:1209597.77
 STEP:  19 TIME =     0.13 SECS, INTEGRAL =      2.18 TIME LEFT:1209597.63
 STEP:  20 TIME =     0.13 SECS, INTEGRAL =      2.31 TIME LEFT:1209597.50
 STEP:  21 TIME =     0.09 SECS, INTEGRAL =      2.41 TIME LEFT:1209597.41
 STEP:  22 TIME =     0.09 SECS, INTEGRAL =      2.49 TIME LEFT:1209597.32
 STEP:  23 TIME =     0.12 SECS, INTEGRAL =      2.61 TIME LEFT:1209597.20
 STEP:  24 TIME =     0.12 SECS, INTEGRAL =      2.73 TIME LEFT:1209597.09
 STEP:  25 TIME =     0.13 SECS, INTEGRAL =      2.86 TIME LEFT:1209596.95
 STEP:  26 TIME =     0.12 SECS, INTEGRAL =      2.98 TIME LEFT:1209596.84
 STEP:  27 TIME =     0.11 SECS, INTEGRAL =      3.09 TIME LEFT:1209596.73
 STEP:  28 TIME =     0.14 SECS, INTEGRAL =      3.23 TIME LEFT:1209596.59
 STEP:  29 TIME =     0.09 SECS, INTEGRAL =      3.31 TIME LEFT:1209596.50
 STEP:  30 TIME =     0.09 SECS, INTEGRAL =      3.40 TIME LEFT:1209596.41
 STEP:  31 TIME =     0.11 SECS, INTEGRAL =      3.51 TIME LEFT:1209596.30
 STEP:  32 TIME =     0.13 SECS, INTEGRAL =      3.64 TIME LEFT:1209596.17
 STEP:  33 TIME =     0.12 SECS, INTEGRAL =      3.77 TIME LEFT:1209596.05
 STEP:  34 TIME =     0.13 SECS, INTEGRAL =      3.90 TIME LEFT:1209595.91
 STEP:  35 TIME =     0.09 SECS, INTEGRAL =      3.99 TIME LEFT:1209595.82
 STEP:  36 TIME =     0.09 SECS, INTEGRAL =      4.09 TIME LEFT:1209595.73
 STEP:  37 TIME =     0.13 SECS, INTEGRAL =      4.22 TIME LEFT:1209595.59
 STEP:  38 TIME =     0.12 SECS, INTEGRAL =      4.34 TIME LEFT:1209595.47
 STEP:  39 TIME =     0.12 SECS, INTEGRAL =      4.46 TIME LEFT:1209595.35
 STEP:  40 TIME =     0.13 SECS, INTEGRAL =      4.59 TIME LEFT:1209595.22
 STEP:  41 TIME =     0.10 SECS, INTEGRAL =      4.70 TIME LEFT:1209595.12
 STEP:  42 TIME =     0.09 SECS, INTEGRAL =      4.79 TIME LEFT:1209595.02
 STEP:  43 TIME =     0.11 SECS, INTEGRAL =      4.90 TIME LEFT:1209594.91
 STEP:  44 TIME =     0.13 SECS, INTEGRAL =      5.03 TIME LEFT:1209594.78
 STEP:  45 TIME =     0.19 SECS, INTEGRAL =      5.22 TIME LEFT:1209594.59
 STEP:  46 TIME =     0.12 SECS, INTEGRAL =      5.34 TIME LEFT:1209594.47
 STEP:  47 TIME =     0.12 SECS, INTEGRAL =      5.46 TIME LEFT:1209594.35
 STEP:  48 TIME =     0.09 SECS, INTEGRAL =      5.55 TIME LEFT:1209594.27
 STEP:  49 TIME =     0.09 SECS, INTEGRAL =      5.64 TIME LEFT:1209594.17
 STEP:  50 TIME =     0.11 SECS, INTEGRAL =      5.75 TIME LEFT:1209594.06
 STEP:  51 TIME =     0.16 SECS, INTEGRAL =      5.91 TIME LEFT:1209593.91
 STEP:  52 TIME =     0.12 SECS, INTEGRAL =      6.02 TIME LEFT:1209593.79
 STEP:  53 TIME =     0.13 SECS, INTEGRAL =      6.16 TIME LEFT:1209593.66
 STEP:  54 TIME =     0.09 SECS, INTEGRAL =      6.24 TIME LEFT:1209593.57
 STEP:  55 TIME =     0.11 SECS, INTEGRAL =      6.35 TIME LEFT:1209593.46
 STEP:  56 TIME =     0.17 SECS, INTEGRAL =      6.52 TIME LEFT:1209593.29
 STEP:  57 TIME =     0.20 SECS, INTEGRAL =      6.72 TIME LEFT:1209593.09
 STEP:  58 TIME =     0.09 SECS, INTEGRAL =      6.81 TIME LEFT:1209593.00
 STEP:  59 TIME =     0.10 SECS, INTEGRAL =      6.91 TIME LEFT:1209592.90
 STEP:  60 TIME =     0.12 SECS, INTEGRAL =      7.03 TIME LEFT:1209592.78
 STEP:  61 TIME =     0.12 SECS, INTEGRAL =      7.15 TIME LEFT:1209592.66
 STEP:  62 TIME =     0.11 SECS, INTEGRAL =      7.26 TIME LEFT:1209592.55
 STEP:  63 TIME =     0.12 SECS, INTEGRAL =      7.38 TIME LEFT:1209592.44
 STEP:  64 TIME =     0.14 SECS, INTEGRAL =      7.52 TIME LEFT:1209592.30
 STEP:  65 TIME =     0.12 SECS, INTEGRAL =      7.63 TIME LEFT:1209592.18
 STEP:  66 TIME =     0.12 SECS, INTEGRAL =      7.76 TIME LEFT:1209592.05
 STEP:  67 TIME =     0.12 SECS, INTEGRAL =      7.88 TIME LEFT:1209591.93
 STEP:  68 TIME =     0.17 SECS, INTEGRAL =      8.05 TIME LEFT:1209591.76
 STEP:  69 TIME =     0.16 SECS, INTEGRAL =      8.21 TIME LEFT:1209591.60
 STEP:  70 TIME =     0.12 SECS, INTEGRAL =      8.34 TIME LEFT:1209591.48
 STEP:  71 TIME =     0.13 SECS, INTEGRAL =      8.47 TIME LEFT:1209591.34
 STEP:  72 TIME =     0.15 SECS, INTEGRAL =      8.62 TIME LEFT:1209591.20
 STEP:  73 TIME =     0.16 SECS, INTEGRAL =      8.77 TIME LEFT:1209591.04
 STEP:  74 TIME =     0.12 SECS, INTEGRAL =      8.89 TIME LEFT:1209590.92
 STEP:  75 TIME =     0.12 SECS, INTEGRAL =      9.01 TIME LEFT:1209590.80
 STEP:  76 TIME =     0.13 SECS, INTEGRAL =      9.14 TIME LEFT:1209590.67
 STEP:  77 TIME =     0.24 SECS, INTEGRAL =      9.38 TIME LEFT:1209590.43
 STEP:  78 TIME =     0.12 SECS, INTEGRAL =      9.51 TIME LEFT:1209590.30
 STEP:  79 TIME =     0.12 SECS, INTEGRAL =      9.63 TIME LEFT:1209590.18
 STEP:  80 TIME =     0.14 SECS, INTEGRAL =      9.77 TIME LEFT:1209590.04
 STEP:  81 TIME =     0.12 SECS, INTEGRAL =      9.90 TIME LEFT:1209589.91
 STEP:  82 TIME =     0.12 SECS, INTEGRAL =     10.02 TIME LEFT:1209589.79
 STEP:  83 TIME =     0.12 SECS, INTEGRAL =     10.15 TIME LEFT:1209589.66
 STEP:  84 TIME =     0.13 SECS, INTEGRAL =     10.28 TIME LEFT:1209589.53
 STEP:  85 TIME =     0.13 SECS, INTEGRAL =     10.41 TIME LEFT:1209589.40
 STEP:  86 TIME =     0.12 SECS, INTEGRAL =     10.54 TIME LEFT:1209589.27
 STEP:  87 TIME =     0.12 SECS, INTEGRAL =     10.66 TIME LEFT:1209589.16
 STEP:  88 TIME =     0.15 SECS, INTEGRAL =     10.80 TIME LEFT:1209589.01
 STEP:  89 TIME =     0.12 SECS, INTEGRAL =     10.92 TIME LEFT:1209588.89
 STEP:  90 TIME =     0.17 SECS, INTEGRAL =     11.09 TIME LEFT:1209588.72
 STEP:  91 TIME =     0.13 SECS, INTEGRAL =     11.23 TIME LEFT:1209588.59
 STEP:  92 TIME =     0.11 SECS, INTEGRAL =     11.34 TIME LEFT:1209588.48
 STEP:  93 TIME =     0.14 SECS, INTEGRAL =     11.48 TIME LEFT:1209588.34
 STEP:  94 TIME =     0.12 SECS, INTEGRAL =     11.60 TIME LEFT:1209588.21
 STEP:  95 TIME =     0.12 SECS, INTEGRAL =     11.72 TIME LEFT:1209588.09
 STEP:  96 TIME =     0.15 SECS, INTEGRAL =     11.87 TIME LEFT:1209587.95
 STEP:  97 TIME =     0.13 SECS, INTEGRAL =     12.00 TIME LEFT:1209587.81
 STEP:  98 TIME =     0.12 SECS, INTEGRAL =     12.12 TIME LEFT:1209587.70
 STEP:  99 TIME =     0.16 SECS, INTEGRAL =     12.28 TIME LEFT:1209587.53
 STEP: 100 TIME =     0.12 SECS, INTEGRAL =     12.41 TIME LEFT:1209587.41
 STEP: 101 TIME =     0.19 SECS, INTEGRAL =     12.59 TIME LEFT:1209587.22
 STEP: 102 TIME =     0.20 SECS, INTEGRAL =     12.79 TIME LEFT:1209587.02
 STEP: 103 TIME =     0.12 SECS, INTEGRAL =     12.91 TIME LEFT:1209586.90
 STEP: 104 TIME =     0.12 SECS, INTEGRAL =     13.03 TIME LEFT:1209586.78
 STEP: 105 TIME =     0.12 SECS, INTEGRAL =     13.16 TIME LEFT:1209586.66
 STEP: 106 TIME =     0.13 SECS, INTEGRAL =     13.29 TIME LEFT:1209586.52
 STEP: 107 TIME =     0.12 SECS, INTEGRAL =     13.41 TIME LEFT:1209586.40
 STEP: 108 TIME =     0.12 SECS, INTEGRAL =     13.54 TIME LEFT:1209586.27
 STEP: 109 TIME =     0.12 SECS, INTEGRAL =     13.66 TIME LEFT:1209586.16
 STEP: 110 TIME =     0.16 SECS, INTEGRAL =     13.81 TIME LEFT:1209586.00
 STEP: 111 TIME =     0.18 SECS, INTEGRAL =     13.99 TIME LEFT:1209585.82
 STEP: 112 TIME =     0.12 SECS, INTEGRAL =     14.11 TIME LEFT:1209585.70
 STEP: 113 TIME =     0.17 SECS, INTEGRAL =     14.28 TIME LEFT:1209585.53
 STEP: 114 TIME =     0.12 SECS, INTEGRAL =     14.41 TIME LEFT:1209585.41
 STEP: 115 TIME =     0.12 SECS, INTEGRAL =     14.53 TIME LEFT:1209585.28
 STEP: 116 TIME =     0.12 SECS, INTEGRAL =     14.66 TIME LEFT:1209585.16
 STEP: 117 TIME =     0.15 SECS, INTEGRAL =     14.80 TIME LEFT:1209585.01

(To convert to Hartree/Bohr^2, multiply by (10^(-21) x N x a0^2)/(4.184 x 627.51) =  0.0642)


           FORCE MATRIX IN MILLIDYNES/ANGSTROM


                  C  1       C  2       C  3       C  4       C  5       C  6
 ------------------------------------------------------------------------------
     C    1  15.553118
     C    2   6.342230  15.383772
     C    3   1.936162   5.954893  16.463802
     C    4   1.202431   1.830189   5.849523  15.304767
     C    5   1.906278   1.103015   1.890934   6.352949  15.610558
     C    6   6.285278   1.886666   1.206958   1.935058   6.375925  15.523207
     H    7   3.431038   0.756992   0.088809   0.010807   0.091008   0.746631
     H    8   0.766765   3.425123   0.745565   0.083508   0.010916   0.091845
     H    9   0.010566   0.080784   0.751602   3.417035   0.753163   0.091542
     H   10   0.758892   0.083362   0.005599   0.083648   0.756451   3.425327
     C   11   0.095260   0.903118   4.358679   0.888444   0.099251   0.029120
     C   12   0.007904   0.051341   0.666547   0.028662   0.013728   0.006188
     H   13   0.001328   0.004279   0.039561   0.005311   0.001711   0.000658
     H   14   0.000977   0.003095   0.015663   0.004018   0.001008   0.001251
     H   15   0.002023   0.016239   0.038281   0.006256   0.001840   0.002394
     N   16   0.028884   0.137724   1.474059   0.145315   0.033402   0.043917
     O   17   0.011246   0.050637   0.225948   0.079202   0.021816   0.019657
     O   18   0.008770   0.065339   0.257975   0.058691   0.010946   0.015717
     N   19   0.001448   0.001173   0.003148   0.001335   0.001256   0.001038
     C   20   0.000668   0.000740   0.001009   0.000751   0.000692   0.000646
     C   21   0.000391   0.000773   0.001005   0.000542   0.000504   0.000568
     N   22   0.000424   0.001351   0.000737   0.000397   0.000880   0.000759
     C   23   0.000336   0.000585   0.000366   0.000345   0.000514   0.000431
     C   24   0.000860   0.001012   0.001260   0.000984   0.000640   0.000697
     H   25   0.000379   0.000486   0.000659   0.000441   0.000284   0.000293
     H   26   0.000249   0.000335   0.000567   0.000326   0.000297   0.000175
     H   27   0.000127   0.000496   0.000331   0.000156   0.000301   0.000323
     H   28   0.000295   0.000336   0.000612   0.000374   0.000196   0.000224
     H   29   0.000263   0.000553   0.000517   0.000344   0.000349   0.000185
     H   30   0.000129   0.000245   0.000533   0.000303   0.000174   0.000221
     H   31   0.000252   0.000327   0.000871   0.000480   0.000279   0.000201
     H   32   0.009606   0.041453   0.058522   0.011371   0.003700   0.003478
     H   33   0.001175   0.001964   0.004046   0.001542   0.000703   0.000982
     H   34   0.000613   0.000448   0.000987   0.000623   0.000266   0.000549
     H   35   0.000204   0.000810   0.000457   0.000291   0.000378   0.000467
     H   36   0.008973   0.010406   0.028127   0.003701   0.000898   0.001567
     H   37   0.010309   0.037645   0.035411   0.002955   0.001619   0.003867
     O   38   0.020992   0.066891   0.064714   0.007365   0.001954   0.002942
     H   39   0.092353   0.012817   0.096808   0.763230   3.407123   0.750406


                  H  7       H  8       H  9       H 10       C 11       C 12
 ------------------------------------------------------------------------------
     H    7   4.347652
     H    8   0.032603   4.341444
     H    9   0.011055   0.008772   4.334687
     H   10   0.033293   0.007653   0.007989   4.341182
     C   11   0.011595   0.030332   0.037765   0.012925  16.502528
     C   12   0.001919   0.006988   0.006520   0.002535   3.750433  11.428271
     H   13   0.000392   0.002474   0.001500   0.000412   0.707186   3.348405
     H   14   0.000497   0.001799   0.001405   0.000792   0.747591   3.324643
     H   15   0.001316   0.015440   0.001341   0.001342   0.695168   3.365320
     N   16   0.015442   0.036845   0.064464   0.019179   6.926551   0.885183
     O   17   0.006948   0.016299   0.026905   0.008993   1.819583   0.144517
     O   18   0.006819   0.019510   0.019152   0.008463   1.870758   0.109997
     N   19   0.000491   0.000956   0.000505   0.000944   0.008144   0.008891
     C   20   0.000448   0.000961   0.000487   0.000589   0.003228   0.002473
     C   21   0.000384   0.000699   0.000342   0.000453   0.001276   0.002384
     N   22   0.000270   0.001259   0.000514   0.000671   0.001800   0.002264
     C   23   0.000331   0.000590   0.000328   0.000385   0.000862   0.000855
     C   24   0.000653   0.001146   0.000510   0.000616   0.003469   0.003100
     H   25   0.000453   0.000262   0.000253   0.000124   0.000707   0.000819
     H   26   0.000223   0.000384   0.000248   0.000194   0.001723   0.000673
     H   27   0.000167   0.000285   0.000156   0.000276   0.000832   0.000631
     H   28   0.000315   0.000210   0.000188   0.000088   0.001040   0.001208
     H   29   0.000161   0.000477   0.000292   0.000200   0.001000   0.000870
     H   30   0.000170   0.000201   0.000149   0.000096   0.000987   0.004095
     H   31   0.000165   0.000392   0.000279   0.000204   0.001769   0.000999
     H   32   0.002260   0.017349   0.002618   0.001969   0.258336   0.020583
     H   33   0.000475   0.002070   0.000337   0.000561   0.009442   0.009369
     H   34   0.000471   0.000504   0.000180   0.000372   0.002190   0.003953
     H   35   0.000262   0.000737   0.000218   0.000344   0.001204   0.001005
     H   36   0.000768   0.009278   0.001070   0.000754   0.051906   0.011069
     H   37   0.007869   0.013366   0.001094   0.001166   0.044414   0.010010
     O   38   0.002329   0.009840   0.001818   0.002007   0.173686   0.022672
     H   39   0.008515   0.011932   0.033358   0.032273   0.011018   0.002993


                  H 13       H 14       H 15       N 16       O 17       O 18
 ------------------------------------------------------------------------------
     H   13   4.175946
     H   14   0.466304   4.151418
     H   15   0.460476   0.462727   4.193059
     N   16   0.107218   0.065437   0.087900  19.328368
     O   17   0.036546   0.031900   0.026662   7.450728   9.996981
     O   18   0.041726   0.026557   0.024776   7.387110   2.131588  10.025031
     N   19   0.005038   0.001247   0.005921   0.017698   0.006881   0.009754
     C   20   0.001703   0.000708   0.002490   0.005118   0.003372   0.002288
     C   21   0.001003   0.000707   0.001911   0.003669   0.001733   0.002421
     N   22   0.000727   0.000695   0.001885   0.004079   0.002385   0.002271
     C   23   0.000615   0.000511   0.000810   0.001775   0.001278   0.001227
     C   24   0.001699   0.000799   0.002700   0.007404   0.002694   0.004140
     H   25   0.000420   0.000334   0.000583   0.001972   0.001211   0.001268
     H   26   0.000679   0.000325   0.000794   0.002871   0.001477   0.001580
     H   27   0.000279   0.000179   0.000391   0.002087   0.001425   0.001071
     H   28   0.000394   0.000244   0.001273   0.002123   0.000925   0.001306
     H   29   0.000495   0.000326   0.000764   0.002219   0.001145   0.001473
     H   30   0.000696   0.000458   0.005169   0.001855   0.001002   0.001174
     H   31   0.000830   0.000335   0.000717   0.004044   0.001223   0.002899
     H   32   0.014793   0.006372   0.013965   0.456317   0.272345   0.086670
     H   33   0.004769   0.001478   0.005211   0.013051   0.006136   0.007423
     H   34   0.003084   0.000735   0.003500   0.004062   0.002161   0.002079
     H   35   0.000613   0.000573   0.000634   0.002846   0.001883   0.001485
     H   36   0.008625   0.002033   0.009399   0.059904   0.026680   0.020875
     H   37   0.007203   0.001745   0.007818   0.046981   0.020260   0.018897
     O   38   0.016155   0.004762   0.017949   0.142540   0.061069   0.052223
     H   39   0.000804   0.000983   0.001216   0.022681   0.012091   0.012515


                  N 19       C 20       C 21       N 22       C 23       C 24
 ------------------------------------------------------------------------------
     N   19  11.920246
     C   20   3.958540  12.111577
     C   21   0.855296   2.617763  12.099306
     N   22   0.046157   0.817329   3.930438  11.700544
     C   23   0.853515   0.068875   0.850057   3.898743  12.056333
     C   24   4.000579   0.889515   0.067873   0.822066   2.616227  12.124182
     H   25   0.795134   0.079672   0.007200   0.056527   0.644888   3.226462
     H   26   0.842526   0.028244   0.006044   0.009755   0.686214   3.194014
     H   27   0.057322   0.006709   0.080819   0.795499   3.223574   0.644459
     H   28   0.010990   0.005437   0.029945   0.843424   3.186819   0.694137
     H   29   0.055744   0.644456   3.224401   0.808788   0.077452   0.007526
     H   30   0.015209   0.691950   3.201528   0.851636   0.026109   0.009329
     H   31   0.837927   3.190917   0.688647   0.009966   0.004724   0.030058
     H   32   0.008616   0.004044   0.002711   0.001149   0.002084   0.002742
     H   33   3.706212   0.862218   0.077654   0.011898   0.076651   0.865547
     H   34   0.785442   3.231076   0.645684   0.057198   0.007060   0.080557
     H   35   0.012401   0.073244   0.879600   3.625233   0.882396   0.075259
     H   36   0.011382   0.003918   0.002300   0.002567   0.002635   0.005610
     H   37   0.010612   0.004120   0.002137   0.001286   0.002343   0.003940
     O   38   0.027790   0.007285   0.002988   0.001186   0.003037   0.008047
     H   39   0.001320   0.000794   0.000511   0.000684   0.000469   0.000773


                  H 25       H 26       H 27       H 28       H 29       H 30
 ------------------------------------------------------------------------------
     H   25   4.193918
     H   26   0.446696   4.162770
     H   27   0.017123   0.016154   4.190291
     H   28   0.016935   0.045185   0.452093   4.154706
     H   29   0.001055   0.001637   0.015757   0.004100   4.178603
     H   30   0.003062   0.002890   0.009838   0.018194   0.444652   4.165573
     H   31   0.005151   0.012662   0.001320   0.001801   0.017273   0.045960
     H   32   0.001393   0.000593   0.000826   0.000557   0.000706   0.000882
     H   33   0.034076   0.015291   0.012290   0.004958   0.012197   0.004838
     H   34   0.015162   0.005474   0.000871   0.001566   0.017371   0.020447
     H   35   0.011750   0.004982   0.035714   0.017828   0.027841   0.040100
     H   36   0.003474   0.001394   0.000819   0.000880   0.000654   0.000762
     H   37   0.004035   0.001169   0.000730   0.001069   0.000914   0.001061
     O   38   0.005525   0.001995   0.001027   0.001227   0.001004   0.001282
     H   39   0.000101   0.000290   0.000263   0.000094   0.000284   0.000098


                  H 31       H 32       H 33       H 34       H 35       H 36
 ------------------------------------------------------------------------------
     H   31   4.158867
     H   32   0.001363   3.779007
     H   33   0.019329   0.025742   4.541249
     H   34   0.449342   0.001939   0.037811   4.185862
     H   35   0.005233   0.001198   0.002411   0.011654   4.374478
     H   36   0.001297   0.604295   0.025402   0.001856   0.001588   3.676372
     H   37   0.000518   0.613075   0.021041   0.001767   0.001073   0.594764
     O   38   0.001191   3.413921   0.046313   0.002266   0.001365   3.295758
     H   39   0.000283   0.004996   0.001205   0.000295   0.000332   0.005443


                  H 37       O 38       H 39
 ------------------------------------------
     H   37   3.711751
     O   38   3.347210   7.314069
     H   39   0.005512   0.015545   4.307441


          HEAT OF FORMATION =     -53.108111 KCALS/MOLE


          TRIVIAL VIBRATIONS, SHOULD BE ZERO

  37.4400=TX  19.3699=TY  10.1212=TZ -30.0726=RX -27.0810=RY  -9.7882=RZ


      MOLECULAR POINT GROUP   :   C1  


           EIGENVECTORS  


   Root No.       1         2         3         4         5         6         7         8

                 1 A       2 A       3 A       4 A       5 A       6 A       7 A       8 A   

                  -0.1      -0.0      -0.0      -0.0      -0.0      -0.0      -0.0      -0.0
  
           1    0.0085    0.0033   -0.0264    0.0102    0.0124   -0.0190   -0.0005    0.1117
           2    0.0313    0.0036   -0.0136   -0.0083   -0.0595   -0.0290    0.0105   -0.0903
           3   -0.0554    0.0506   -0.0126    0.0941   -0.0872    0.0907    0.0459   -0.1360
           4    0.0084    0.0032   -0.0258    0.0104    0.0126   -0.0189   -0.0006    0.1110
           5    0.0544    0.0173   -0.0616    0.0006   -0.0419   -0.0102    0.0400    0.0015
           6   -0.0944    0.0381   -0.0008    0.0675   -0.0768    0.0853   -0.0375   -0.1016
           7   -0.0220   -0.0131    0.0113   -0.0015   -0.0015   -0.0374   -0.0249    0.0337
           8    0.0704    0.0256   -0.0856    0.0065   -0.0338   -0.0003    0.0547    0.0474
           9   -0.0821   -0.0313    0.0114   -0.0554   -0.0035    0.0161   -0.0501   -0.0311
          10   -0.0334   -0.0204    0.0549   -0.0077   -0.0180   -0.0525   -0.0498   -0.0453
          11    0.0596    0.0191   -0.0596    0.0014   -0.0421   -0.0099    0.0401    0.0009
          12   -0.0511   -0.0642    0.0114   -0.1804    0.0749   -0.0719    0.0392    0.0439
          13   -0.0336   -0.0209    0.0549   -0.0077   -0.0178   -0.0523   -0.0503   -0.0453
          14    0.0345    0.0045   -0.0121   -0.0089   -0.0593   -0.0297    0.0106   -0.0905
          15   -0.0228   -0.0481    0.0029   -0.1736    0.0818   -0.0887    0.1417    0.0299
          16   -0.0099   -0.0078    0.0149    0.0017   -0.0028   -0.0355   -0.0253    0.0337
          17    0.0212   -0.0027    0.0102   -0.0137   -0.0683   -0.0391   -0.0035   -0.1357
          18   -0.0231    0.0051   -0.0081   -0.0257   -0.0070    0.0019    0.1394   -0.0779
          19    0.0236    0.0108   -0.0569    0.0178    0.0232   -0.0050    0.0189    0.1721
          20    0.0223   -0.0004    0.0039   -0.0120   -0.0661   -0.0366   -0.0005   -0.1254
          21   -0.0421    0.0841   -0.0221    0.2037   -0.1496    0.1572    0.0418   -0.1985
          22    0.0313    0.0150   -0.0578    0.0183    0.0236   -0.0063    0.0215    0.1734
          23    0.0671    0.0234   -0.0800    0.0049   -0.0355   -0.0030    0.0530    0.0373
          24   -0.1016    0.0653   -0.0072    0.1477   -0.1272    0.1377   -0.0904   -0.1329
          25   -0.0421   -0.0273    0.0874   -0.0144   -0.0304   -0.0655   -0.0682   -0.1076
          26    0.0640    0.0225   -0.0785    0.0055   -0.0352   -0.0024    0.0502    0.0362
          27   -0.0555   -0.1033    0.0144   -0.2827    0.1397   -0.1293    0.0401    0.1215
          28   -0.0101   -0.0080    0.0145    0.0016   -0.0026   -0.0354   -0.0249    0.0343
          29    0.0029   -0.0135    0.0479   -0.0230   -0.0813   -0.0555   -0.0245   -0.2070
          30    0.0019    0.0080   -0.0138   -0.0057   -0.0089    0.0010    0.1929   -0.0976
          31   -0.0198   -0.0108    0.0148   -0.0003   -0.0019   -0.0361   -0.0275    0.0324
          32    0.1102    0.0439   -0.1275    0.0188   -0.0131    0.0183    0.0796    0.1319
          33   -0.1156   -0.0466    0.0304   -0.0155    0.0173    0.0304   -0.1198   -0.0203
          34   -0.0201   -0.0163   -0.0108    0.0691    0.0601   -0.0270   -0.0449    0.0761
          35    0.1344    0.0826    0.0424   -0.0095    0.0288    0.0198    0.0630    0.1598
          36   -0.1273   -0.0702   -0.0830    0.0443    0.0294    0.0357   -0.1197   -0.0105
          37   -0.0151   -0.0044    0.0355   -0.0199   -0.0395   -0.0017   -0.0895    0.1000
          38    0.1408    0.1067    0.1414   -0.2480   -0.2608    0.1056   -0.0860    0.2588
          39   -0.1344   -0.0986   -0.2001    0.2223    0.2034    0.0048   -0.0636   -0.0199
          40   -0.0441   -0.0564   -0.1675    0.3832    0.4072   -0.1103    0.1002    0.0029
          41    0.1223    0.0884    0.1090    0.0750    0.1826   -0.0177    0.1167    0.1319
          42   -0.1321   -0.0648   -0.0343    0.1035    0.1389    0.0090   -0.0811   -0.0296
          43   -0.0025    0.0021    0.0647   -0.0772   -0.1109    0.0308   -0.1475    0.1564
          44    0.1142    0.0690    0.0093    0.1227    0.1987   -0.0283    0.1434    0.1067
          45   -0.1043   -0.0644   -0.1095   -0.1404   -0.2368    0.0938   -0.2069    0.0252
          46   -0.0231   -0.0167    0.0101   -0.0438   -0.0304   -0.0570   -0.0011   -0.0135
          47   -0.0899   -0.0714   -0.1981    0.0018   -0.0164    0.0314    0.0508    0.1451
          48    0.0287    0.0445    0.1038    0.0291    0.0488    0.0342   -0.1192    0.0054
          49   -0.0251   -0.0220    0.0078   -0.0934   -0.0525   -0.0798    0.0300   -0.0534
          50   -0.3558   -0.2078   -0.3886    0.0033   -0.0859    0.0359    0.0496    0.1079
          51    0.2415    0.1452    0.2233    0.0066    0.0782    0.0189   -0.1011    0.0012
          52   -0.0184   -0.0113    0.0019   -0.0361   -0.0351   -0.0564    0.0014   -0.0163
          53   -0.0901   -0.0878   -0.1511   -0.0288    0.0288    0.0397    0.0326    0.2079
          54    0.1034    0.0949    0.0995    0.1174    0.0512    0.0561   -0.1442    0.0159
          55    0.0315    0.0011   -0.0469   -0.0585    0.0610    0.1363   -0.0884   -0.0287
          56    0.0214    0.0076    0.0004   -0.0381    0.0880    0.0618   -0.0292   -0.1067
          57   -0.0029   -0.0051   -0.0076    0.0081   -0.0267   -0.0112   -0.0848    0.0974
          58    0.0114   -0.0001   -0.0322   -0.0838    0.0574    0.2059    0.0070   -0.0535
          59   -0.0052    0.0065    0.0110    0.0243   -0.0019   -0.0818   -0.0429   -0.0653
          60   -0.0499   -0.0080    0.0213    0.0038   -0.0833    0.0149    0.0545    0.0827
          61   -0.0240    0.0041    0.0052   -0.0738   -0.0086    0.1151    0.1539   -0.1017
          62   -0.0404   -0.0053    0.0069    0.0616   -0.0752   -0.0552   -0.0508    0.0113
          63   -0.0304   -0.0007    0.0239   -0.0168   -0.0438   -0.0042    0.0624    0.0380
          64   -0.0259    0.0090    0.0136   -0.0166   -0.0717   -0.0793    0.1199   -0.0935
          65   -0.0340   -0.0030    0.0078    0.0566   -0.0649   -0.0676   -0.0487   -0.0029
          66    0.0061    0.0116    0.0284   -0.0568    0.0298   -0.0326    0.0792   -0.0460
          67   -0.0078    0.0120    0.0031    0.0081   -0.0654   -0.1532    0.0198   -0.0668
          68   -0.0069   -0.0013   -0.0020   -0.0073    0.0316    0.0764   -0.0387   -0.0473
          69    0.0458    0.0166    0.0085   -0.0555    0.0899   -0.0608   -0.0580   -0.0315
          70    0.0276    0.0089   -0.0306   -0.0058    0.0136   -0.0540   -0.1333   -0.0204
          71    0.0266    0.0108    0.0043   -0.0435    0.1008    0.0439   -0.0287   -0.1232
          72    0.0265    0.0091    0.0049   -0.0348    0.0511   -0.0397   -0.0666    0.0135
          73    0.0380    0.0107   -0.0349    0.0106    0.0211   -0.0938   -0.2010   -0.0005
          74    0.0462    0.0120   -0.0058   -0.0898    0.1669    0.1466   -0.0186   -0.1547
          75    0.0527    0.0125   -0.0076   -0.0333    0.0957   -0.0489   -0.1648    0.0275
          76    0.0383    0.0108   -0.0352    0.0092    0.0241   -0.0885   -0.2034    0.0000
          77    0.0346    0.0219    0.0210   -0.0294    0.0976   -0.0878   -0.0297   -0.1590
          78    0.0141    0.0113    0.0193   -0.0506    0.0339   -0.0460    0.0368   -0.0317
          79   -0.0068    0.0183    0.0122    0.0512   -0.1105   -0.3213   -0.0102   -0.0620
          80   -0.0026    0.0011    0.0003   -0.0081    0.0360    0.0533   -0.0374   -0.0589
          81    0.0702    0.0267    0.0155   -0.0838    0.1383   -0.0935   -0.0339   -0.0968
          82   -0.0199    0.0107    0.0116   -0.0028   -0.0759   -0.1260    0.0842   -0.0848
          83   -0.0176   -0.0114   -0.0154   -0.0300    0.0527    0.2424   -0.0392   -0.0140
          84    0.0653    0.0162   -0.0103   -0.0415    0.1146   -0.0671   -0.1756    0.0102
          85   -0.0352    0.0035    0.0146   -0.0921   -0.0072    0.1584    0.2177   -0.1219
          86   -0.0598   -0.0068    0.0137    0.1125   -0.1501   -0.1698   -0.0601    0.0446
          87   -0.0581   -0.0024    0.0425   -0.0216   -0.0786    0.0096    0.1608    0.0221
          88   -0.0364    0.0036    0.0163   -0.0925   -0.0079    0.1584    0.2224   -0.1232
          89   -0.0525   -0.0138   -0.0022    0.0445   -0.0657    0.0759   -0.0483    0.0460
          90   -0.0184   -0.0042    0.0039    0.0018   -0.0403   -0.0036   -0.0341    0.0848
          91    0.0255    0.0001   -0.0433   -0.0703    0.0659    0.1763   -0.0603   -0.0350
          92    0.0073    0.0161    0.0210    0.0443   -0.0106   -0.2331   -0.0518   -0.1010
          93   -0.0704   -0.0051    0.0432   -0.0134   -0.1004    0.0217    0.1674    0.0408
          94   -0.1044    0.4835   -0.1113    0.0127   -0.0002    0.0179    0.0258    0.0769
          95   -0.0250   -0.0463    0.0928   -0.0508    0.0677    0.0068   -0.0198    0.0592
          96    0.4909    0.0240   -0.3709    0.0150   -0.1187   -0.0326    0.0535   -0.0096
          97    0.0724   -0.0009   -0.0867   -0.0641    0.1026    0.1853   -0.1842   -0.0037
          98    0.0418    0.0124    0.0068   -0.0669    0.1397    0.0575   -0.0275   -0.1524
          99   -0.0108   -0.0090   -0.0157    0.0257   -0.0548   -0.0041   -0.0954    0.1275
         100    0.0083   -0.0043   -0.0365   -0.1253    0.0970    0.3642    0.0417   -0.0559
         101   -0.0099    0.0044    0.0092    0.0260   -0.0083   -0.0641   -0.0430   -0.0540
         102   -0.0757   -0.0176    0.0146    0.0331   -0.1385    0.0428    0.0384    0.1484
         103   -0.0515    0.0098    0.0345   -0.0093   -0.1278   -0.1293    0.2314   -0.1240
         104   -0.0572   -0.0104    0.0064    0.0803   -0.1096   -0.0495   -0.0545    0.0467
         105    0.0192    0.0156    0.0287   -0.0701    0.0554   -0.0410    0.0802   -0.0724
         106    0.0740   -0.0295    0.1299    0.1789   -0.0309    0.0987    0.1116    0.1267
         107   -0.0659   -0.4827    0.4529    0.1145    0.0464    0.0856    0.0059    0.0638
         108    0.1888   -0.1250   -0.0667    0.0840   -0.1103    0.0026   -0.0025   -0.0522
         109    0.1515   -0.2064    0.1017    0.1502   -0.0520    0.0945    0.0741    0.0807
         110   -0.3567    0.4666    0.1625   -0.0350    0.1257   -0.0035   -0.0019    0.1118
         111   -0.0365    0.1697    0.2251    0.3020   -0.0577    0.0732    0.1729    0.1309
         112    0.1321   -0.1129    0.0036    0.0760   -0.0493    0.0631    0.0257    0.0420
         113    0.0175   -0.0997    0.0948   -0.0406    0.0592    0.0109   -0.0146    0.0576
         114    0.1451    0.0033   -0.0102    0.1446   -0.0904    0.0205    0.0630    0.0170
         115   -0.0510   -0.0310    0.0840   -0.0124   -0.0310   -0.0637   -0.0712   -0.1069
         116    0.0246   -0.0017    0.0056   -0.0132   -0.0659   -0.0375   -0.0007   -0.1260
         117   -0.0051   -0.0836    0.0037   -0.2967    0.1684   -0.1829    0.2392    0.1123


   Root No.       9        10        11        12        13        14        15        16

                 9 A      10 A      11 A      12 A      13 A      14 A      15 A      16 A   

                  -0.0       0.0       0.0       0.0       0.0       0.0       0.0       0.0
  
           1   -0.0636   -0.1212   -0.0278   -0.0506   -0.0175   -0.0122   -0.0105    0.0255
           2    0.0441    0.1391    0.0020   -0.0081    0.0164    0.0029   -0.0034    0.0032
           3   -0.0047   -0.0564   -0.1691   -0.0684    0.0267    0.0163   -0.0159   -0.0174
           4   -0.0633   -0.1219   -0.0283   -0.0510   -0.0160   -0.0107   -0.0098    0.0238
           5    0.0036    0.1137   -0.0203   -0.0204    0.0055   -0.0061   -0.0101    0.0350
           6   -0.0553   -0.0315   -0.1283   -0.0077   -0.1083   -0.1064   -0.0783    0.0104
           7   -0.0281   -0.0989   -0.0065   -0.0381   -0.0096   -0.0057   -0.0055    0.0012
           8   -0.0170    0.1012   -0.0317   -0.0275   -0.0000   -0.0107   -0.0136    0.0502
           9   -0.0610    0.0136   -0.0564    0.0358   -0.1352   -0.1275   -0.0810   -0.0142
          10    0.0061   -0.0762    0.0117   -0.0257   -0.0024    0.0002    0.0002   -0.0219
          11    0.0038    0.1134   -0.0204   -0.0208    0.0057   -0.0059   -0.0097    0.0346
          12   -0.0055    0.0397    0.0306    0.0423   -0.1093   -0.1019   -0.0472    0.0127
          13    0.0059   -0.0770    0.0114   -0.0261   -0.0019    0.0007    0.0002   -0.0233
          14    0.0447    0.1395    0.0026   -0.0078    0.0167    0.0032   -0.0027    0.0031
          15    0.0613    0.0293    0.0316   -0.0176    0.0526    0.0466    0.0455    0.0145
          16   -0.0292   -0.0996   -0.0086   -0.0386   -0.0097   -0.0057   -0.0050    0.0012
          17    0.0647    0.1528    0.0139   -0.0008    0.0208    0.0065    0.0000   -0.0105
          18    0.0600   -0.0189   -0.0868   -0.0803    0.1420    0.1250    0.0665   -0.0246
          19   -0.0916   -0.1382   -0.0432   -0.0583   -0.0253   -0.0187   -0.0174    0.0468
          20    0.0603    0.1486    0.0103   -0.0040    0.0208    0.0066    0.0004   -0.0088
          21   -0.0147   -0.1017   -0.2514   -0.1056    0.0575    0.0420   -0.0264   -0.0356
          22   -0.0890   -0.1365   -0.0401   -0.0573   -0.0222   -0.0159   -0.0142    0.0462
          23   -0.0112    0.1048   -0.0282   -0.0244    0.0028   -0.0084   -0.0132    0.0492
          24   -0.0922   -0.0349   -0.1506    0.0150   -0.1772   -0.1713   -0.1291    0.0346
          25    0.0344   -0.0592    0.0267   -0.0169    0.0050    0.0063    0.0045   -0.0434
          26   -0.0126    0.1038   -0.0290   -0.0262    0.0020   -0.0089   -0.0119    0.0467
          27   -0.0124    0.0732    0.1092    0.0902   -0.1945   -0.1782   -0.0798    0.0447
          28   -0.0293   -0.0997   -0.0086   -0.0388   -0.0098   -0.0059   -0.0052    0.0016
          29    0.0973    0.1721    0.0311    0.0089    0.0308    0.0149    0.0065   -0.0353
          30    0.0970   -0.0237   -0.0985   -0.1246    0.2735    0.2459    0.1336   -0.0504
          31   -0.0293   -0.0975   -0.0073   -0.0373   -0.0070   -0.0032   -0.0037   -0.0001
          32   -0.0530    0.0680   -0.0617   -0.0520    0.0076   -0.0031   -0.0118    0.0317
          33   -0.1117    0.0573   -0.0410    0.0358   -0.0746   -0.0707   -0.0515   -0.0106
          34   -0.0695   -0.0714   -0.0024   -0.0610    0.1021    0.0993    0.0576   -0.0193
          35   -0.0405    0.0280   -0.1614   -0.0710   -0.0056   -0.0246   -0.0748    0.0721
          36   -0.1426    0.0961    0.0200    0.0307    0.0030    0.0073    0.0236   -0.0459
          37   -0.1077   -0.0768    0.0083   -0.0755    0.1162    0.1109    0.0599   -0.0085
          38   -0.1895    0.0310   -0.1060   -0.1312    0.1063    0.0767   -0.0204    0.0855
          39   -0.1175    0.1263    0.0274    0.0337    0.0670    0.0714    0.0810   -0.0911
          40    0.0501   -0.0448   -0.0365   -0.0194    0.0933    0.0952    0.0697   -0.0561
          41    0.0343    0.0011   -0.2528   -0.0569   -0.0671   -0.0895   -0.1534    0.1183
          42   -0.0890    0.0760   -0.0458    0.0403   -0.0414   -0.0393   -0.0319   -0.0160
          43   -0.1728   -0.0709    0.0252   -0.1105    0.2033    0.1922    0.1061   -0.0170
          44    0.0428    0.0240   -0.2072   -0.0390   -0.0700   -0.0863   -0.1205    0.0851
          45   -0.2395    0.1081    0.1245    0.0085    0.0419    0.0506    0.0881   -0.0848
          46    0.0147   -0.1071    0.0050   -0.0107   -0.0901   -0.0796   -0.0413    0.0149
          47   -0.0877    0.0510   -0.0440   -0.0556   -0.0140   -0.0229   -0.0124    0.0008
          48   -0.1155    0.0794   -0.0684    0.0162    0.0126    0.0087   -0.0229    0.0085
          49    0.0597   -0.1279    0.0110    0.0179   -0.1935   -0.1739   -0.0874    0.0049
          50   -0.1030    0.1003    0.0510   -0.0391   -0.0063   -0.0233   -0.0316    0.1945
          51   -0.0805    0.0381   -0.1236    0.0256   -0.0493   -0.0414   -0.0271   -0.1331
          52    0.0147   -0.0981    0.0130   -0.0085   -0.0787   -0.0695   -0.0381    0.0394
          53   -0.1136   -0.0199   -0.1099   -0.0968   -0.0470   -0.0508   -0.0213   -0.2068
          54   -0.1531    0.1475   -0.0393    0.0056    0.1710    0.1533    0.0518    0.1313
          55    0.1335    0.0921   -0.0066   -0.0553   -0.0277   -0.0115    0.0305   -0.0209
          56   -0.0487   -0.1152    0.1015    0.0008   -0.0306    0.0704   -0.0372    0.0138
          57    0.1798   -0.0196   -0.0067    0.0180    0.0673   -0.0317   -0.0464   -0.0514
          58    0.1006    0.0664   -0.0052   -0.0471   -0.0932    0.0676    0.0221    0.0047
          59   -0.0195   -0.1025    0.0742    0.0155    0.0483   -0.0135   -0.0359   -0.0023
          60    0.1468   -0.0529   -0.0204    0.0388    0.0099    0.0451   -0.0606   -0.0192
          61   -0.0170    0.0376   -0.0215   -0.0134    0.0450   -0.0765    0.0271    0.0202
          62    0.1025   -0.1051    0.0539    0.0253   -0.0239    0.0683   -0.0373   -0.0089
          63    0.0740   -0.0521   -0.0090    0.0350    0.0513   -0.0001   -0.0619   -0.0160
          64   -0.0408    0.0653   -0.0445   -0.0119   -0.0136   -0.0152    0.0219   -0.0589
          65    0.0782   -0.1029    0.0558    0.0235   -0.0235    0.0669   -0.0375   -0.0189
          66   -0.0581   -0.0522    0.0114    0.0261    0.0718   -0.0243   -0.0658   -0.0530
          67   -0.0028    0.1086   -0.0525   -0.0376   -0.0842    0.0572    0.0184    0.0007
          68    0.0439   -0.1263    0.0905    0.0169    0.0431   -0.0078   -0.0316   -0.0111
          69   -0.0213   -0.0036    0.0190   -0.0138    0.0046    0.0423   -0.0689    0.0372
          70    0.1115    0.1258   -0.0266   -0.0633    0.0446   -0.0951    0.0364    0.0331
          71   -0.0757   -0.1121    0.1037   -0.0036   -0.0303    0.0714   -0.0408    0.0304
          72    0.0512   -0.0121    0.0114   -0.0025    0.0456   -0.0028   -0.0622    0.0118
          73    0.1412    0.1452   -0.0259   -0.0758    0.1246   -0.1904    0.0481    0.0722
          74   -0.1010   -0.1234    0.1246   -0.0100   -0.0715    0.1193   -0.0479    0.0200
          75    0.0834    0.0119    0.0228   -0.0242    0.1418   -0.1175   -0.0497    0.0635
          76    0.1434    0.1445   -0.0249   -0.0761    0.1259   -0.1916    0.0482    0.0708
          77   -0.1568   -0.0895    0.0972   -0.0148   -0.0234    0.0637   -0.0455    0.0872
          78   -0.0312   -0.0294    0.0058    0.0111   -0.0713    0.1356   -0.0812   -0.0174
          79   -0.0316    0.1578   -0.0818   -0.0545   -0.2561    0.2444    0.0048    0.0611
          80    0.0214   -0.1199    0.0893    0.0128    0.0125    0.0260   -0.0351   -0.0004
          81   -0.1295    0.0083    0.0267   -0.0288   -0.0876    0.1434   -0.0792    0.0720
          82   -0.0331    0.0851   -0.0509   -0.0222   -0.0615    0.0353    0.0192   -0.0346
          83    0.1324   -0.1715    0.1140    0.0361    0.2410   -0.2240   -0.0149   -0.0734
          84    0.0572    0.0279    0.0219   -0.0372    0.0124    0.0280   -0.0654    0.0867
          85   -0.0493    0.0168   -0.0177   -0.0026    0.1249   -0.1610    0.0324    0.0676
          86    0.1281   -0.0917    0.0294    0.0347   -0.0622    0.1104   -0.0401   -0.0591
          87    0.0353   -0.0793   -0.0151    0.0573    0.1565   -0.1098   -0.0557    0.0303
          88   -0.0531    0.0156   -0.0181   -0.0014    0.1302   -0.1669    0.0334    0.0680
          89    0.1805   -0.1192    0.0592    0.0251   -0.0217    0.0695   -0.0344    0.0465
          90    0.1625   -0.0275   -0.0114    0.0178   -0.0687    0.1283   -0.0690   -0.0569
          91    0.1304    0.0835   -0.0042   -0.0556   -0.0709    0.0378    0.0273   -0.0123
          92   -0.1104   -0.0931    0.0723    0.0257    0.2461   -0.2299   -0.0289   -0.0200
          93    0.0693   -0.0791   -0.0226    0.0561    0.0264    0.0362   -0.0673    0.0063
          94   -0.0171    0.0586    0.0839    0.4823    0.0448    0.0591    0.0200    0.1260
          95   -0.0220   -0.0108   -0.1238    0.1433   -0.0848   -0.0397    0.2563   -0.3031
          96   -0.0360   -0.1146    0.1040    0.0325   -0.1539   -0.1005    0.2080   -0.3732
          97    0.1879    0.1072    0.0083   -0.0566    0.0008   -0.0485    0.0376   -0.0871
          98   -0.1130   -0.1120    0.1103   -0.0116   -0.0446    0.0844   -0.0404    0.0461
          99    0.2236   -0.0195   -0.0120    0.0255    0.0777   -0.0464   -0.0380   -0.0785
         100    0.1328    0.0522    0.0067   -0.0585   -0.2651    0.2565    0.0145    0.0372
         101    0.0019   -0.1038    0.0727    0.0157    0.0219    0.0161   -0.0377   -0.0018
         102    0.2547   -0.0510   -0.0364    0.0427   -0.0819    0.1472   -0.0652   -0.0274
         103   -0.1118    0.0360   -0.0566    0.0192    0.0272   -0.0570    0.0245   -0.1836
         104    0.1548   -0.1044    0.0440    0.0302   -0.0318    0.0786   -0.0371    0.0140
         105   -0.0982   -0.0514    0.0183    0.0221    0.0762   -0.0304   -0.0663   -0.0724
         106   -0.0667    0.1915    0.2636    0.1428    0.0406    0.0289   -0.2602   -0.1811
         107   -0.0167    0.0513   -0.0954    0.0428   -0.0437   -0.0267    0.2272    0.0797
         108    0.0177   -0.1557   -0.0304    0.2104   -0.0937   -0.0570    0.4216    0.4782
         109   -0.0621    0.1325    0.1364    0.2637    0.0553    0.0472   -0.1989   -0.0571
         110    0.0143    0.0388    0.0005    0.1247   -0.0868   -0.0436    0.3515   -0.0822
         111   -0.0218    0.1269    0.5242   -0.4110   -0.1519   -0.1444    0.0873    0.0116
         112   -0.0405    0.0580    0.0077    0.4465    0.0676    0.0702   -0.0717    0.1010
         113   -0.0229   -0.0106   -0.1255    0.1417   -0.0804   -0.0366    0.2509   -0.2969
         114   -0.0026   -0.0540    0.1780   -0.0310   -0.1225   -0.0938    0.2702    0.1808
         115    0.0323   -0.0576    0.0272   -0.0163    0.0046    0.0057    0.0043   -0.0431
         116    0.0611    0.1513    0.0131   -0.0018    0.0210    0.0067    0.0003   -0.0083
         117    0.1202    0.0616    0.1364   -0.0203    0.1317    0.1224    0.1169    0.0539


   Root No.      17        18        19        20        21        22        23        24

                17 A      18 A      19 A      20 A      21 A      22 A      23 A      24 A   

                   0.1       0.1       0.1       0.1       0.1       0.2       0.2       0.3
  
           1    0.0050   -0.1009   -0.0197   -0.0547   -0.0239    0.0220   -0.1216   -0.0133
           2    0.0044    0.0121   -0.0166   -0.0316    0.0128   -0.0272    0.0065   -0.0138
           3   -0.0078   -0.0091    0.0075    0.0067    0.1284   -0.0712   -0.0211    0.0651
           4    0.0045   -0.0948   -0.0181   -0.0502   -0.0236    0.0232   -0.1163   -0.0141
           5    0.0112   -0.1059   -0.0430   -0.1042    0.0142   -0.0260    0.0164   -0.0229
           6    0.0033    0.0167    0.0068    0.0126   -0.1313   -0.1277    0.0284   -0.1012
           7   -0.0001   -0.0079    0.0002    0.0003   -0.0161    0.0214   -0.0731   -0.0038
           8    0.0146   -0.1621   -0.0539   -0.1347    0.0117   -0.0246    0.0015   -0.0242
           9   -0.0029    0.0365    0.0082    0.0252   -0.0292    0.0939    0.0333   -0.0152
          10   -0.0053    0.0695    0.0193    0.0531   -0.0275    0.0279   -0.1171    0.0062
          11    0.0111   -0.1073   -0.0426   -0.1034    0.0082   -0.0220   -0.0170   -0.0224
          12    0.0080    0.0207    0.0065    0.0177    0.1699   -0.0431   -0.0167   -0.0821
          13   -0.0056    0.0754    0.0207    0.0569   -0.0269    0.0312   -0.1240    0.0048
          14    0.0044    0.0114   -0.0162   -0.0305    0.0073   -0.0238   -0.0177   -0.0131
          15    0.0092    0.0071   -0.0000   -0.0055   -0.0857   -0.0678   -0.0023    0.0265
          16   -0.0003   -0.0146    0.0004    0.0010   -0.0290    0.0286   -0.1407   -0.0042
          17    0.0015    0.0621   -0.0048    0.0010    0.0096   -0.0248   -0.0064   -0.0076
          18   -0.0073   -0.0023    0.0031   -0.0028    0.0090    0.1490    0.0264   -0.1125
          19    0.0092   -0.1821   -0.0396   -0.1087   -0.0204    0.0181   -0.1313   -0.0184
          20    0.0020    0.0580   -0.0058   -0.0022    0.0138   -0.0280    0.0078   -0.0080
          21   -0.0177   -0.0332    0.0119    0.0117    0.4312   -0.2539   -0.1209    0.4590
          22    0.0094   -0.1780   -0.0385   -0.1067   -0.0257    0.0247   -0.1480   -0.0299
          23    0.0145   -0.1527   -0.0556   -0.1383    0.0146   -0.0266    0.0002   -0.0328
          24    0.0102    0.0229    0.0065    0.0141   -0.4405   -0.4337    0.0690   -0.4251
          25   -0.0100    0.1478    0.0409    0.1118   -0.0369    0.0388   -0.1570    0.0198
          26    0.0137   -0.1511   -0.0546   -0.1359    0.0131   -0.0278    0.0025   -0.0309
          27    0.0202    0.0167    0.0163    0.0442    0.5609   -0.2005   -0.0940   -0.3298
          28   -0.0002   -0.0150    0.0002    0.0004   -0.0295    0.0290   -0.1457   -0.0040
          29   -0.0039    0.1512    0.0155    0.0568    0.0104   -0.0188   -0.0112   -0.0055
          30   -0.0165   -0.0097    0.0014   -0.0080   -0.0057    0.4355    0.0778   -0.4327
          31   -0.0007   -0.0079    0.0017    0.0046   -0.0158    0.0189   -0.0685   -0.0061
          32    0.0093   -0.1039   -0.0499   -0.1227    0.0101   -0.0315   -0.0230   -0.0182
          33    0.0008    0.0414    0.0198    0.0634   -0.0690    0.2130    0.0314    0.1258
          34   -0.0039    0.0638    0.0058    0.0239    0.0457   -0.1061    0.1030   -0.0368
          35    0.0330    0.0570    0.0299    0.0798   -0.0050    0.0194    0.0629    0.0185
          36   -0.0148   -0.0051   -0.0246   -0.0440   -0.0258    0.1074    0.0634    0.0881
          37    0.0001    0.0790    0.0159    0.0501    0.0476   -0.1049    0.1303   -0.0345
          38    0.0385    0.1286    0.0463    0.1296    0.0412   -0.0614    0.2510    0.0050
          39   -0.0303    0.0028   -0.0600   -0.1282    0.0392   -0.0364    0.2236    0.0371
          40   -0.0172    0.0422   -0.0295   -0.0620    0.0894   -0.2173    0.1846   -0.1070
          41    0.0548    0.1492    0.1043    0.2679   -0.0398    0.1223    0.1222    0.0983
          42   -0.0001    0.0602    0.0260    0.0832   -0.0502    0.1811    0.1101    0.1473
          43   -0.0001    0.1454    0.0306    0.0882    0.1064   -0.2116    0.3337   -0.0668
          44    0.0376    0.0481    0.0385    0.1025   -0.0348    0.0803   -0.0107    0.0395
          45   -0.0338   -0.1067   -0.0896   -0.2115   -0.0231    0.0807   -0.0201    0.0759
          46   -0.0004   -0.1046   -0.0099   -0.0320   -0.0092    0.0708    0.1345    0.0451
          47    0.0026    0.1080   -0.0137   -0.0225   -0.0185    0.0426   -0.0838    0.0139
          48    0.0092   -0.0485   -0.0007    0.0089   -0.0464    0.1100   -0.0667    0.0605
          49   -0.0088   -0.1513   -0.0421   -0.1155   -0.0041    0.1583    0.4505    0.1571
          50    0.0621   -0.0981    0.1519    0.3813   -0.0313    0.1140    0.0022    0.0643
          51   -0.0389    0.0396   -0.1233   -0.2918   -0.0357    0.1044    0.0410    0.0838
          52    0.0066   -0.1551    0.0034    0.0002   -0.0063    0.0620    0.1448    0.0430
          53   -0.0563    0.5738   -0.1230   -0.2791   -0.0407    0.0642   -0.2623   -0.0022
          54    0.0488   -0.2919    0.0945    0.2422   -0.0353   -0.0294   -0.3467   -0.0698
          55    0.1075    0.0026    0.1196   -0.0470    0.0006    0.0001    0.0017    0.0024
          56    0.0296   -0.0038    0.0132   -0.0082   -0.0000    0.0012   -0.0012   -0.0006
          57    0.0999   -0.0107    0.1304   -0.0545    0.0024    0.0010    0.0005   -0.0003
          58    0.0218    0.0024   -0.0044    0.0001   -0.0001   -0.0012    0.0006    0.0011
          59    0.0161   -0.0077    0.0438   -0.0241    0.0005   -0.0002   -0.0009   -0.0004
          60   -0.0457   -0.0124   -0.0325    0.0043    0.0016   -0.0015   -0.0007   -0.0021
          61   -0.0898    0.0025    0.0464   -0.0237   -0.0008   -0.0027   -0.0011   -0.0008
          62   -0.0275   -0.0126    0.0057   -0.0131    0.0000   -0.0028   -0.0012   -0.0011
          63   -0.0249   -0.0097    0.0006   -0.0063    0.0018   -0.0002   -0.0007   -0.0019
          64    0.1346   -0.0058   -0.0640    0.0205    0.0009   -0.0026   -0.0016   -0.0003
          65    0.0125   -0.0128   -0.0042   -0.0080    0.0002   -0.0024   -0.0009   -0.0010
          66    0.1461   -0.0098   -0.0703    0.0279    0.0026    0.0021    0.0004   -0.0014
          67    0.0039    0.0015    0.0134   -0.0084    0.0016   -0.0015   -0.0013    0.0010
          68    0.0346   -0.0111   -0.0309    0.0057   -0.0003   -0.0009   -0.0008   -0.0007
          69   -0.0319    0.0011    0.0153   -0.0020    0.0032    0.0045    0.0007    0.0007
          70   -0.0448    0.0010   -0.0721    0.0286    0.0020   -0.0003   -0.0003    0.0026
          71   -0.0036   -0.0024   -0.0188    0.0054    0.0002    0.0016   -0.0010   -0.0004
          72   -0.0062   -0.0045   -0.0031    0.0032    0.0029    0.0030    0.0010    0.0006
          73   -0.1410   -0.0003   -0.2393    0.0957    0.0028   -0.0006   -0.0012    0.0027
          74    0.0649    0.0020    0.0876   -0.0347   -0.0004    0.0032    0.0004    0.0002
          75   -0.1118   -0.0038   -0.1772    0.0745    0.0038    0.0035    0.0002    0.0010
          76   -0.1343   -0.0005   -0.2340    0.0934    0.0028   -0.0004   -0.0014    0.0026
          77   -0.1315    0.0004   -0.1817    0.0703    0.0012    0.0020   -0.0032   -0.0007
          78    0.0656   -0.0012    0.1569   -0.0611    0.0023    0.0032    0.0016    0.0004
          79   -0.1463    0.0121    0.1750   -0.0718    0.0022   -0.0008   -0.0020    0.0010
          80    0.0179   -0.0088   -0.0131   -0.0008   -0.0002   -0.0005   -0.0009   -0.0007
          81   -0.0677    0.0104    0.0809   -0.0249    0.0035    0.0064    0.0002    0.0004
          82    0.0812   -0.0024   -0.0201    0.0038    0.0012   -0.0021   -0.0017    0.0002
          83    0.1677   -0.0245   -0.2142    0.0759   -0.0009   -0.0022   -0.0008   -0.0002
          84   -0.1420    0.0048    0.0323   -0.0073    0.0037    0.0053    0.0014    0.0021
          85   -0.2500    0.0071    0.1465   -0.0645   -0.0018   -0.0033   -0.0016   -0.0019
          86    0.0795   -0.0198   -0.0686    0.0141    0.0007   -0.0040   -0.0024   -0.0012
          87   -0.2155   -0.0064    0.1057   -0.0510    0.0005   -0.0018   -0.0020   -0.0037
          88   -0.2517    0.0069    0.1505   -0.0661   -0.0018   -0.0031   -0.0017   -0.0019
          89   -0.2077   -0.0078    0.0848   -0.0457   -0.0008   -0.0047    0.0006   -0.0020
          90    0.1179   -0.0140   -0.1088    0.0382    0.0028   -0.0002    0.0007   -0.0007
          91    0.0866    0.0023    0.0688   -0.0277    0.0004   -0.0002    0.0016    0.0022
          92    0.0602   -0.0047    0.2812   -0.1174    0.0010    0.0013    0.0007    0.0006
          93   -0.1481   -0.0118   -0.0974    0.0282    0.0009   -0.0028   -0.0021   -0.0038
          94    0.0319    0.1213   -0.0155   -0.0194    0.0198    0.0348   -0.0007    0.0141
          95   -0.1168   -0.1271    0.0528    0.1308   -0.0170   -0.0214    0.0029   -0.0036
          96   -0.1599   -0.0074    0.0896    0.2739   -0.0308   -0.0094    0.0090    0.0034
          97    0.2991    0.0015    0.3831   -0.1442    0.0003    0.0004    0.0003    0.0020
          98   -0.0344   -0.0028   -0.0802    0.0361   -0.0002    0.0020    0.0007    0.0003
          99    0.1638   -0.0108    0.2298   -0.0973    0.0024    0.0007   -0.0011   -0.0010
         100   -0.0396    0.0019   -0.2238    0.0861   -0.0007   -0.0016   -0.0020   -0.0001
         101    0.0076   -0.0084    0.0222   -0.0160    0.0003   -0.0005   -0.0012   -0.0006
         102   -0.0693   -0.0175   -0.1278    0.0401    0.0011   -0.0035   -0.0017   -0.0025
         103    0.4370   -0.0192   -0.2332    0.0872    0.0017   -0.0050    0.0000   -0.0025
         104   -0.1244   -0.0117    0.0654   -0.0398   -0.0006   -0.0036   -0.0024   -0.0012
         105    0.2252   -0.0108   -0.1159    0.0485    0.0031    0.0026    0.0014   -0.0013
         106   -0.0688   -0.0080    0.0227    0.0594   -0.0031    0.0038    0.0052    0.0066
         107    0.0348   -0.0884   -0.0149   -0.0781    0.0092   -0.0211   -0.0029   -0.0129
         108    0.1571    0.1922   -0.0381   -0.0807    0.0233    0.0423    0.0015    0.0120
         109   -0.0303    0.0239    0.0083    0.0319   -0.0024    0.0048    0.0055    0.0091
         110   -0.0220   -0.0546    0.0173    0.0088    0.0186    0.0076   -0.0054    0.0012
         111    0.0208    0.0499    0.0193    0.0166    0.0167    0.0431    0.0081    0.0132
         112    0.0199    0.0797   -0.0118   -0.0095    0.0059    0.0118    0.0018    0.0096
         113   -0.1149   -0.1317    0.0504    0.1239   -0.0147   -0.0281    0.0015   -0.0073
         114    0.0610    0.1111    0.0047    0.0110    0.0108    0.0358    0.0060    0.0116
         115   -0.0094    0.1586    0.0422    0.1148   -0.0258    0.0344   -0.1382    0.0135
         116    0.0023    0.0596   -0.0045    0.0012    0.0061   -0.0269   -0.0226   -0.0055
         117    0.0262    0.0032   -0.0049   -0.0194   -0.4192   -0.3455   -0.0406    0.3726


   Root No.      25        26        27        28        29        30        31        32

                25 A      26 A      27 A      28 A      29 A      30 A      31 A      32 A   

                   0.4       0.4       0.5       0.6       0.6       0.7       0.7       0.8
  
           1    0.0002    0.0001    0.0020   -0.0301   -0.0045    0.0010    0.0645   -0.0000
           2    0.0010    0.0012    0.0013   -0.0394   -0.0124   -0.0013   -0.0702    0.0002
           3    0.0012   -0.0005   -0.0014    0.0190   -0.2896   -0.0028   -0.0135    0.0003
           4    0.0002   -0.0000    0.0014   -0.0126   -0.0044    0.0008    0.0464   -0.0001
           5    0.0012    0.0017    0.0035   -0.1193   -0.0186   -0.0016   -0.0803    0.0004
           6    0.0009   -0.0002   -0.0013    0.0196   -0.2884   -0.0025   -0.0135    0.0002
           7   -0.0000   -0.0006   -0.0002    0.0053    0.0043   -0.0014   -0.1258   -0.0001
           8    0.0013    0.0019    0.0040   -0.1191   -0.0172   -0.0006   -0.0064    0.0003
           9    0.0000   -0.0005   -0.0007   -0.0049   -0.3039   -0.0027   -0.0264    0.0003
          10   -0.0001   -0.0005    0.0002    0.0100    0.0085    0.0008    0.0487    0.0000
          11    0.0012    0.0019    0.0043   -0.1251   -0.0220    0.0003    0.0712    0.0004
          12    0.0004   -0.0001   -0.0011    0.0217   -0.2871   -0.0028   -0.0105    0.0003
          13   -0.0001   -0.0005   -0.0002    0.0250    0.0090    0.0012    0.0695    0.0000
          14    0.0010    0.0013    0.0019   -0.0454   -0.0163    0.0004    0.0639    0.0003
          15    0.0007   -0.0005   -0.0014    0.0226   -0.3003   -0.0031   -0.0109    0.0004
          16    0.0001   -0.0001    0.0013   -0.0069   -0.0005    0.0022    0.1584    0.0000
          17    0.0009    0.0011    0.0010   -0.0259   -0.0093   -0.0004   -0.0011    0.0003
          18    0.0014   -0.0004   -0.0015    0.0205   -0.2915   -0.0030   -0.0105    0.0004
          19    0.0006    0.0012    0.0047   -0.1162   -0.0037    0.0005    0.0474    0.0003
          20    0.0008    0.0007    0.0001   -0.0007   -0.0096   -0.0010   -0.0598    0.0000
          21    0.0011   -0.0002    0.0007   -0.0375    0.2582    0.0022    0.0062   -0.0004
          22    0.0003    0.0008    0.0064   -0.2008   -0.0388    0.0039    0.3037    0.0003
          23    0.0014    0.0023    0.0067   -0.2365   -0.0423   -0.0001    0.0572    0.0005
          24    0.0017    0.0014    0.0007   -0.0128    0.2712    0.0024    0.0202   -0.0004
          25   -0.0002   -0.0007   -0.0027    0.1521    0.0298    0.0047    0.3136   -0.0004
          26    0.0014    0.0021    0.0062   -0.2134   -0.0376   -0.0019   -0.0695    0.0006
          27    0.0008    0.0013    0.0006   -0.0060    0.2822    0.0023    0.0235   -0.0004
          28    0.0001   -0.0000    0.0014   -0.0078   -0.0016    0.0025    0.1769   -0.0000
          29    0.0007    0.0004   -0.0002   -0.0076   -0.0007   -0.0001    0.0162    0.0004
          30    0.0021    0.0005    0.0002   -0.0274    0.3501    0.0030    0.0188   -0.0005
          31   -0.0000   -0.0005   -0.0002   -0.0005    0.0054   -0.0026   -0.2102   -0.0001
          32    0.0005   -0.0007   -0.0085    0.3412    0.0168    0.0017    0.0094   -0.0007
          33   -0.0002    0.0009    0.0042   -0.1450    0.0479   -0.0008   -0.0488    0.0001
          34    0.0001   -0.0001   -0.0004   -0.0135    0.0074   -0.0027   -0.1687    0.0001
          35   -0.0002   -0.0011   -0.0067    0.1981    0.0177    0.0014    0.0221   -0.0004
          36    0.0003    0.0013    0.0027   -0.0546    0.0553    0.0001    0.0082   -0.0001
          37    0.0007    0.0008    0.0009   -0.0489    0.0045   -0.0050   -0.2332    0.0004
          38    0.0024    0.0022   -0.0032    0.1985   -0.0349   -0.0011    0.2448    0.0007
          39    0.0000    0.0008   -0.0005    0.1029   -0.0277    0.0072    0.5423   -0.0001
          40   -0.0004   -0.0010   -0.0054    0.2162   -0.0689   -0.0049   -0.1840    0.0002
          41   -0.0009   -0.0008    0.0005   -0.1919    0.1034    0.0025   -0.0103    0.0001
          42   -0.0005    0.0012    0.0074   -0.3365    0.1189    0.0011   -0.0114    0.0003
          43   -0.0011   -0.0009    0.0027   -0.2976   -0.0876    0.0023   -0.0024   -0.0004
          44    0.0007    0.0003   -0.0053    0.2390    0.0395   -0.0011   -0.0072    0.0000
          45   -0.0001   -0.0014   -0.0083    0.3095    0.1449   -0.0013   -0.1698   -0.0006
          46   -0.0003   -0.0017   -0.0024    0.0343    0.0105   -0.0015   -0.1575   -0.0002
          47    0.0012    0.0006   -0.0025    0.1395    0.0184    0.0001   -0.0403   -0.0006
          48   -0.0005    0.0007    0.0012   -0.0109    0.0374   -0.0009   -0.0717    0.0001
          49   -0.0006   -0.0032   -0.0058    0.1282    0.0985    0.0014   -0.0369   -0.0005
          50    0.0006    0.0008   -0.0019    0.0699    0.0329    0.0004   -0.0228   -0.0002
          51   -0.0004   -0.0002   -0.0017    0.1024    0.0731    0.0009   -0.0142   -0.0004
          52   -0.0004   -0.0018   -0.0032    0.0680    0.0122   -0.0013   -0.1562   -0.0002
          53    0.0018    0.0003    0.0021   -0.0930   -0.0026   -0.0016   -0.1834   -0.0001
          54   -0.0007    0.0015   -0.0006    0.0924   -0.0510   -0.0028   -0.2036   -0.0002
          55   -0.0033    0.1292    0.1445    0.0019    0.0012   -0.0828    0.0006    0.0067
          56   -0.1123   -0.0629   -0.1260   -0.0030   -0.0003    0.0256   -0.0001    0.0044
          57    0.0186   -0.0781   -0.0672   -0.0022    0.0003   -0.0342    0.0010   -0.0071
          58   -0.0669    0.1790    0.0954    0.0025    0.0006    0.0082   -0.0005    0.0156
          59   -0.0873    0.0263    0.0411    0.0028    0.0007   -0.0291   -0.0000    0.0530
          60   -0.0665    0.0728   -0.0193    0.0018    0.0005   -0.0034    0.0004    0.0069
          61    0.0054    0.1148   -0.0273    0.0005    0.0011    0.0146   -0.0001   -0.0207
          62    0.0180   -0.0808    0.0892    0.0038    0.0008   -0.0171    0.0003    0.0042
          63   -0.1239    0.1309   -0.0627    0.0010    0.0003   -0.0129    0.0003    0.0053
          64    0.0976    0.0932   -0.1409   -0.0030    0.0019   -0.0762    0.0014   -0.0142
          65    0.0308   -0.1237    0.1230    0.0042    0.0004    0.0154   -0.0002   -0.0323
          66   -0.0641   -0.0362    0.0657    0.0026   -0.0000   -0.0538    0.0002    0.0141
          67    0.1774    0.0809   -0.0913   -0.0024    0.0009    0.0198   -0.0001    0.0181
          68    0.0800   -0.0455   -0.0408   -0.0007    0.0002   -0.0181    0.0008   -0.0209
          69    0.0951    0.0052    0.0211    0.0003   -0.0011   -0.0133   -0.0002    0.0045
          70    0.0760    0.0770    0.0273   -0.0005    0.0003    0.0204   -0.0007    0.0252
          71   -0.0674   -0.0418   -0.0907   -0.0026   -0.0003   -0.0039    0.0003    0.0152
          72    0.1782    0.0017    0.0645    0.0011   -0.0009   -0.0194    0.0000   -0.0455
          73   -0.0705   -0.0388   -0.0226   -0.0023    0.0005   -0.0184    0.0002   -0.0281
          74   -0.1325    0.0363    0.1028    0.0023    0.0009   -0.2481    0.0027   -0.3289
          75   -0.0398   -0.1222    0.1037    0.0014   -0.0001   -0.2034    0.0024   -0.3071
          76   -0.1534   -0.0394   -0.0586   -0.0034    0.0001   -0.0128    0.0000    0.0632
          77   -0.0214   -0.1171   -0.3422   -0.0075   -0.0029    0.3510   -0.0041    0.3892
          78    0.5125    0.1285    0.0745    0.0032   -0.0017    0.1591   -0.0026    0.0612
          79    0.0512   -0.0854    0.0371    0.0002    0.0005    0.0668   -0.0014   -0.2098
          80    0.0439   -0.0715   -0.0619   -0.0019    0.0005   -0.0549    0.0017   -0.0043
          81   -0.1343   -0.0728   -0.1329   -0.0068    0.0005   -0.2399    0.0049    0.2306
          82    0.1548    0.1158   -0.2249   -0.0062    0.0023   -0.1590    0.0034    0.0712
          83    0.4573    0.1416   -0.1268   -0.0006   -0.0005    0.0554   -0.0002   -0.0093
          84    0.2110   -0.0247    0.2518    0.0072   -0.0038    0.3092   -0.0065   -0.1088
          85    0.0209   -0.0754    0.0106    0.0012    0.0022   -0.0249    0.0006    0.0309
          86    0.1291   -0.0558   -0.1253   -0.0021    0.0026   -0.2407    0.0041   -0.2867
          87   -0.0611   -0.1233   -0.1241   -0.0012    0.0029   -0.1866    0.0035   -0.0513
          88    0.0755   -0.1512    0.0673    0.0026    0.0017   -0.0072    0.0000   -0.0060
          89   -0.0779   -0.1400    0.3708    0.0080   -0.0034    0.3462   -0.0035    0.0760
          90   -0.2653    0.4510   -0.0493    0.0008   -0.0023    0.1734   -0.0017    0.0349
          91   -0.0246    0.1762    0.2271    0.0053    0.0022   -0.1775    0.0009    0.2225
          92   -0.2194    0.4200    0.1467    0.0070    0.0003    0.0370   -0.0024    0.0958
          93   -0.1703    0.1666   -0.2252   -0.0019   -0.0022    0.3099   -0.0025   -0.3367
          94    0.0014    0.0004    0.0018    0.0028    0.0000   -0.0015   -0.0011    0.0001
          95    0.0009    0.0043    0.0025   -0.0286    0.0008   -0.0012   -0.0050    0.0006
          96    0.0022    0.0088    0.0068   -0.0306   -0.0025   -0.0002   -0.0018    0.0013
          97   -0.0993   -0.2724   -0.2718   -0.0088   -0.0011    0.1807   -0.0007   -0.0417
          98    0.0208    0.0281    0.0116   -0.0029   -0.0006   -0.0638    0.0010   -0.0673
          99   -0.0869   -0.2093   -0.2410   -0.0052    0.0003    0.0711   -0.0003    0.0321
         100   -0.0980   -0.0149   -0.0495    0.0013    0.0006    0.0617   -0.0017   -0.1027
         101   -0.0812   -0.0100    0.0623    0.0039    0.0014   -0.0721    0.0004    0.1275
         102    0.0372   -0.1415    0.1290    0.0078    0.0044   -0.2697    0.0034    0.4626
         103   -0.1436   -0.2763    0.2767    0.0053    0.0002    0.1864   -0.0025   -0.0310
         104   -0.0018    0.0714   -0.0385    0.0027    0.0015   -0.0846    0.0010   -0.0207
         105   -0.0585   -0.1718    0.1948    0.0043   -0.0009    0.0152   -0.0007    0.0064
         106   -0.0001   -0.0017   -0.0013   -0.0045   -0.0124   -0.0011    0.0016    0.0013
         107    0.0012    0.0002   -0.0017    0.0457   -0.0056    0.0037    0.0083    0.0007
         108    0.0039    0.0057    0.0068   -0.0046    0.0014   -0.0002   -0.0043   -0.0010
         109    0.0002   -0.0010    0.0010   -0.0150   -0.0041   -0.0009   -0.0056   -0.0005
         110    0.0011    0.0005   -0.0007    0.0094    0.0019    0.0029    0.0097    0.0009
         111    0.0018    0.0014    0.0018   -0.0077   -0.0011    0.0004   -0.0050   -0.0017
         112    0.0010    0.0002    0.0020   -0.0068   -0.0012   -0.0004   -0.0008    0.0005
         113    0.0007    0.0032    0.0009   -0.0121    0.0003   -0.0003   -0.0001    0.0005
         114    0.0018    0.0022    0.0018   -0.0192   -0.0027    0.0006   -0.0053   -0.0000
         115   -0.0005   -0.0014   -0.0032    0.1248    0.0224    0.0021    0.0521   -0.0001
         116    0.0008    0.0009    0.0004    0.0030   -0.0038    0.0008    0.0520    0.0002
         117    0.0003   -0.0005   -0.0001   -0.0267    0.2089    0.0016    0.0003   -0.0003


   Root No.      33        34        35        36        37        38        39        40

                33 A      34 A      35 A      36 A      37 A      38 A      39 A      40 A   

                   0.8       0.9       0.9       0.9       0.9       0.9       1.0       1.0
  
           1   -0.0001    0.0001    0.0362   -0.0460    0.0004   -0.0007   -0.0331    0.0598
           2    0.0006    0.0006    0.0685   -0.0161    0.0001   -0.0011   -0.0571    0.1609
           3   -0.0013   -0.0006   -0.0133   -0.0162   -0.0008    0.0010    0.0591    0.0399
           4   -0.0000    0.0002    0.0202   -0.0294    0.0005   -0.0006   -0.0369    0.0287
           5    0.0002    0.0002    0.0043    0.0548   -0.0005   -0.0001   -0.0234    0.0828
           6   -0.0008   -0.0002   -0.0054   -0.0033   -0.0004    0.0003    0.0093    0.0062
           7    0.0008    0.0006    0.0272    0.0313    0.0005   -0.0010   -0.0988   -0.0222
           8   -0.0001   -0.0000   -0.0007   -0.0005   -0.0001   -0.0003   -0.0098    0.0658
           9   -0.0002    0.0003    0.0037    0.0149    0.0001   -0.0006   -0.0530   -0.0393
          10    0.0000   -0.0001   -0.0391    0.0210    0.0000   -0.0003   -0.0232   -0.0362
          11   -0.0006   -0.0003   -0.0682   -0.0056    0.0001   -0.0004    0.0013    0.0950
          12   -0.0005   -0.0000   -0.0017    0.0004   -0.0003    0.0004    0.0201    0.0001
          13   -0.0001   -0.0001   -0.0546    0.0397   -0.0001    0.0000   -0.0104   -0.0636
[...]
 TRANSITION DIPOLE   0.9712         C 12 -- H 13         +23.1% ( 50.5%)      1.4%
 TRAVEL (Ang.)       0.3758         C 12 -- H 14         +19.7% ( 46.7%)      1.1%
 REDUCED MASS        0.3462         N 16 -- O 18          +5.4% ( 24.4%)     80.9%
 EFFECTIVE MASS      3.3478
 FORCE CONSTANT      0.3880

 VIBRATION         80   80A           ATOM PAIR      ENERGY CONTRIBUTION    RADIAL
 FREQUENCY          1403.05         C 21 -- H 29         +10.9% ( 38.5%)      0.2%
 TRANSITION DIPOLE   0.5345         C 20 -- H 34         +10.0% ( 36.9%)      0.3%
 TRAVEL (Ang.)       0.3637         C 23 -- H 27          +9.6% ( 36.2%)      0.3%
 REDUCED MASS        0.3633         C 24 -- H 25          +9.6% ( 36.1%)      0.3%
 EFFECTIVE MASS      4.1588
 FORCE CONSTANT      0.4214

 VIBRATION         81   81A           ATOM PAIR      ENERGY CONTRIBUTION    RADIAL
 FREQUENCY          1436.76         C  3 -- C 11         +20.8% ( 63.3%)     96.5%
 TRANSITION DIPOLE   0.8713         C 11 -- C 12         +12.2% ( 48.4%)     53.7%
 TRAVEL (Ang.)       0.1749         C 11 -- N 16         +11.3% ( 46.7%)      0.0%
 REDUCED MASS        1.5342         C  3 -- C  4          +6.2% ( 34.7%)     41.8%
 EFFECTIVE MASS      9.4829
 FORCE CONSTANT      1.8660

 VIBRATION         82   82A           ATOM PAIR      ENERGY CONTRIBUTION    RADIAL
 FREQUENCY          1449.49         C  2 -- C  3         +13.3% ( 56.7%)     98.1%
 TRANSITION DIPOLE   0.5838         C  3 -- C  4         +12.7% ( 55.5%)     99.8%
 TRAVEL (Ang.)       0.1791         C  1 -- C  2         +12.2% ( 54.5%)     99.5%
 REDUCED MASS        1.4511         C  5 -- C  6         +11.0% ( 51.7%)     99.9%
 EFFECTIVE MASS     10.2024         C  4 -- C  5         +10.4% ( 50.3%)     99.8%
 FORCE CONSTANT      1.7963         C  1 -- C  6         +10.4% ( 50.2%)     99.3%

 VIBRATION         83   83A           ATOM PAIR      ENERGY CONTRIBUTION    RADIAL
 FREQUENCY          1486.99         N 22 -- H 35         +65.0% ( 84.2%)      0.0%
 TRANSITION DIPOLE   0.4306         C 21 -- N 22          +5.9% ( 25.4%)     21.8%
 TRAVEL (Ang.)       0.2622         N 22 -- C 23          +5.9% ( 25.4%)     21.3%
 REDUCED MASS        0.6598         C 23 -- H 27          +4.8% ( 22.9%)      2.3%
 EFFECTIVE MASS      2.6392
 FORCE CONSTANT      0.8596

 VIBRATION         84   84A           ATOM PAIR      ENERGY CONTRIBUTION    RADIAL
 FREQUENCY          1504.99         N 16 -- O 17         +35.0% ( 84.9%)     88.2%
 TRANSITION DIPOLE   9.0369         N 16 -- O 18         +32.2% ( 81.4%)     84.3%
 TRAVEL (Ang.)       0.0848         C 11 -- N 16         +21.3% ( 66.2%)      0.0%
 REDUCED MASS        6.2293         O 17 -- O 18          +5.9% ( 34.9%)      1.1%
 EFFECTIVE MASS     14.2980
 FORCE CONSTANT      8.3130

 VIBRATION         85   85A           ATOM PAIR      ENERGY CONTRIBUTION    RADIAL
 FREQUENCY          1522.85         N 19 -- H 33         +73.0% ( 89.3%)      0.0%
 TRANSITION DIPOLE   0.3939         N 19 -- C 24          +5.2% ( 23.8%)     24.6%
 TRAVEL (Ang.)       0.2446         N 19 -- C 20          +5.1% ( 23.6%)     24.7%
 REDUCED MASS        0.7403         C 24 -- H 25          +2.7% ( 17.0%)      5.2%
 EFFECTIVE MASS      2.5675
 FORCE CONSTANT      1.0114

 VIBRATION         86   86A           ATOM PAIR      ENERGY CONTRIBUTION    RADIAL
 FREQUENCY          1528.32         C  4 -- C  5         +12.0% ( 48.2%)     98.8%
 TRANSITION DIPOLE   1.1917         C  1 -- C  2         +11.3% ( 46.9%)     99.9%
 TRAVEL (Ang.)       0.1907         C  6 -- H 10         +10.4% ( 44.9%)      0.0%
 REDUCED MASS        1.2136         C  3 -- C  4         +10.0% ( 43.9%)     35.8%
 EFFECTIVE MASS      9.7474
 FORCE CONSTANT      1.6702

 VIBRATION         87   87A           ATOM PAIR      ENERGY CONTRIBUTION    RADIAL
 FREQUENCY          1583.54         C  3 -- C 11         +15.7% ( 55.9%)     99.7%
 TRANSITION DIPOLE   1.1038         C  2 -- C  3         +15.7% ( 55.8%)     65.2%
 TRAVEL (Ang.)       0.1575         C  3 -- C  4         +14.8% ( 54.2%)     55.0%
 REDUCED MASS        1.7176         C  5 -- C  6          +8.3% ( 40.6%)     77.3%
 EFFECTIVE MASS     10.3706
 FORCE CONSTANT      2.5376

 VIBRATION         88   88A           ATOM PAIR      ENERGY CONTRIBUTION    RADIAL
 FREQUENCY          1653.90         C 11 -- N 16         +38.0% ( 92.9%)     99.9%
 TRANSITION DIPOLE   9.9369         C  3 -- C 11         +15.0% ( 58.3%)     40.4%
 TRAVEL (Ang.)       0.0896         C 11 -- C 12         +14.0% ( 56.4%)     26.7%
 REDUCED MASS        5.0824         N 16 -- O 17         +13.1% ( 54.6%)     40.1%
 EFFECTIVE MASS     12.6397         N 16 -- O 18         +13.0% ( 54.2%)     35.3%
 FORCE CONSTANT      8.1910

 VIBRATION         89   89A           ATOM PAIR      ENERGY CONTRIBUTION    RADIAL
 FREQUENCY          1688.15         C  5 -- C  6         +17.6% ( 59.8%)     87.7%
 TRANSITION DIPOLE   0.8353         C  1 -- C  6         +17.3% ( 59.2%)     86.6%
 TRAVEL (Ang.)       0.1253         C  2 -- C  3         +13.2% ( 51.7%)     90.8%
 REDUCED MASS        2.5435         C  3 -- C  4         +12.2% ( 49.6%)     85.8%
 EFFECTIVE MASS     11.9701
 FORCE CONSTANT      4.2707

 VIBRATION         90   90A           ATOM PAIR      ENERGY CONTRIBUTION    RADIAL
 FREQUENCY          1702.12         C  1 -- C  2         +16.9% ( 58.6%)     99.9%
 TRANSITION DIPOLE   1.7078         C  4 -- C  5         +16.6% ( 58.1%)    100.0%
 TRAVEL (Ang.)       0.1346         C  3 -- C  4          +9.2% ( 43.4%)     46.2%
 REDUCED MASS        2.1868         C  1 -- C  6          +8.9% ( 42.7%)     50.1%
 EFFECTIVE MASS     12.0083
 FORCE CONSTANT      3.7328

 VIBRATION         91   91A           ATOM PAIR      ENERGY CONTRIBUTION    RADIAL
 FREQUENCY          1857.29         H 32 -- O 38         +92.1% ( 98.5%)     99.5%
 TRANSITION DIPOLE   2.5687         H 36 -- O 38          +2.8% ( 17.1%)     29.4%
 TRAVEL (Ang.)       0.1472         H 37 -- O 38          +2.6% ( 16.5%)     28.6%
 REDUCED MASS        1.6758         C 11 -- N 16          +1.0% ( 10.0%)     97.5%
 EFFECTIVE MASS      2.9950
 FORCE CONSTANT      3.4060

 VIBRATION         92   92A           ATOM PAIR      ENERGY CONTRIBUTION    RADIAL
 FREQUENCY          2440.85         H 36 -- O 38         +51.1% ( 74.9%)     96.5%
 TRANSITION DIPOLE   2.5595         H 37 -- O 38         +48.4% ( 72.9%)     96.3%
 TRAVEL (Ang.)       0.2332         H 32 -- O 38          +0.4% (  7.0%)      0.1%
 REDUCED MASS        0.5079
 EFFECTIVE MASS      1.4440
 FORCE CONSTANT      1.7829

 VIBRATION         93   93A           ATOM PAIR      ENERGY CONTRIBUTION    RADIAL
 FREQUENCY          2629.99         C 23 -- H 28         +17.4% ( 43.2%)     99.0%
 TRANSITION DIPOLE   0.5370         C 24 -- H 26         +16.0% ( 41.4%)     98.9%
 TRAVEL (Ang.)       0.4401         C 21 -- H 30         +14.4% ( 39.3%)     98.8%
 REDUCED MASS        0.1324         C 20 -- H 31         +13.7% ( 38.3%)     98.8%
 EFFECTIVE MASS      1.4091
 FORCE CONSTANT      0.5395

 VIBRATION         94   94A           ATOM PAIR      ENERGY CONTRIBUTION    RADIAL
 FREQUENCY          2630.58         C 21 -- H 30         +17.7% ( 43.6%)     98.8%
 TRANSITION DIPOLE   0.1323         C 23 -- H 28         +15.7% ( 41.0%)     98.8%
 TRAVEL (Ang.)       0.4396         C 20 -- H 31         +14.7% ( 39.7%)     98.8%
 REDUCED MASS        0.1327         C 24 -- H 26         +12.3% ( 36.4%)     98.8%
 EFFECTIVE MASS      1.4221         C 21 -- H 29         +11.5% ( 35.2%)     97.8%
 FORCE CONSTANT      0.5409

 VIBRATION         95   95A           ATOM PAIR      ENERGY CONTRIBUTION    RADIAL
 FREQUENCY          2645.05         C 24 -- H 26         +24.3% ( 50.9%)     98.4%
 TRANSITION DIPOLE   0.5313         C 24 -- H 25         +24.3% ( 50.8%)     97.9%
 TRAVEL (Ang.)       0.3385         C 23 -- H 28         +22.3% ( 48.7%)     98.5%
 REDUCED MASS        0.2225         C 23 -- H 27         +21.2% ( 47.6%)     97.8%
 EFFECTIVE MASS      1.4532
 FORCE CONSTANT      0.9172

 VIBRATION         96   96A           ATOM PAIR      ENERGY CONTRIBUTION    RADIAL
 FREQUENCY          2646.31         C 20 -- H 31         +25.8% ( 52.4%)     98.4%
 TRANSITION DIPOLE   0.9220         C 20 -- H 34         +24.3% ( 50.8%)     98.0%
 TRAVEL (Ang.)       0.3380         C 21 -- H 29         +21.9% ( 48.2%)     98.2%
 REDUCED MASS        0.2230         C 21 -- H 30         +19.9% ( 46.0%)     98.3%
 EFFECTIVE MASS      1.4602
 FORCE CONSTANT      0.9201

 VIBRATION         97   97A           ATOM PAIR      ENERGY CONTRIBUTION    RADIAL
 FREQUENCY          2651.29         C 12 -- H 14         +65.7% ( 83.5%)     99.5%
 TRANSITION DIPOLE   0.8625         C 12 -- H 13         +26.0% ( 52.6%)     92.8%
 TRAVEL (Ang.)       0.2221         C 12 -- H 15          +6.9% ( 27.2%)     68.5%
 REDUCED MASS        0.5157         C 11 -- C 12          +0.8% (  9.3%)      0.1%
 EFFECTIVE MASS      1.4323
 FORCE CONSTANT      2.1358

 VIBRATION         98   98A           ATOM PAIR      ENERGY CONTRIBUTION    RADIAL
 FREQUENCY          2652.13         H 37 -- O 38         +50.7% ( 67.7%)     99.2%
 TRANSITION DIPOLE   1.6886         H 36 -- O 38         +47.3% ( 65.3%)     98.8%
 TRAVEL (Ang.)       0.2341         H 32 -- O 38          +0.9% (  9.0%)     32.0%
 REDUCED MASS        0.4639         C 12 -- H 13          +0.3% (  5.4%)     97.7%
 EFFECTIVE MASS      1.2331
 FORCE CONSTANT      1.9223

 VIBRATION         99   99A           ATOM PAIR      ENERGY CONTRIBUTION    RADIAL
 FREQUENCY          2663.22         C 12 -- H 15         +55.0% ( 76.5%)     98.9%
 TRANSITION DIPOLE   0.7895         C 12 -- H 13         +40.3% ( 65.5%)     96.5%
 TRAVEL (Ang.)       0.2294         C 12 -- H 14          +3.7% ( 19.7%)     47.0%
 REDUCED MASS        0.4810         C 11 -- C 12          +0.9% (  9.8%)      0.1%
 EFFECTIVE MASS      1.4458
 FORCE CONSTANT      2.0100

 VIBRATION        100  100A           ATOM PAIR      ENERGY CONTRIBUTION    RADIAL
 FREQUENCY          2714.11         N 22 -- H 35         +30.4% ( 54.7%)     99.2%
 TRANSITION DIPOLE   0.2964         C 23 -- H 27         +27.1% ( 51.7%)     97.8%
 TRAVEL (Ang.)       0.3448         C 23 -- H 28         +17.9% ( 42.0%)     94.6%
 REDUCED MASS        0.2090         C 21 -- H 29          +9.9% ( 31.2%)     96.9%
 EFFECTIVE MASS      1.2700
 FORCE CONSTANT      0.9071

 VIBRATION        101  101A           ATOM PAIR      ENERGY CONTRIBUTION    RADIAL
 FREQUENCY          2715.99         C 20 -- H 34         +30.0% ( 53.8%)     97.9%
 TRANSITION DIPOLE   0.8117         C 20 -- H 31         +18.3% ( 42.1%)     95.0%
 TRAVEL (Ang.)       0.3789         C 21 -- H 29         +16.7% ( 40.2%)     98.1%
 REDUCED MASS        0.1730         C 23 -- H 27          +9.7% ( 30.6%)     98.1%
 EFFECTIVE MASS      1.1991
 FORCE CONSTANT      0.7517

 VIBRATION        102  102A           ATOM PAIR      ENERGY CONTRIBUTION    RADIAL
 FREQUENCY          2716.37         C 20 -- H 34         +22.4% ( 46.6%)     96.5%
 TRANSITION DIPOLE   0.4363         C 20 -- H 31         +20.3% ( 44.3%)     95.7%
 TRAVEL (Ang.)       0.3923         C 24 -- H 25         +18.0% ( 41.8%)     97.6%
 REDUCED MASS        0.1613         C 24 -- H 26         +13.4% ( 36.0%)     95.2%
 EFFECTIVE MASS      1.2504         C 21 -- H 30         +10.8% ( 32.4%)     96.1%
 FORCE CONSTANT      0.7014

 VIBRATION        103  103A           ATOM PAIR      ENERGY CONTRIBUTION    RADIAL
 FREQUENCY          2719.60         C 24 -- H 25         +28.5% ( 52.5%)     96.6%
 TRANSITION DIPOLE   0.0998         C 24 -- H 26         +26.1% ( 50.2%)     96.0%
 TRAVEL (Ang.)       0.3670         C 21 -- H 29          +9.9% ( 30.9%)     96.5%
 REDUCED MASS        0.1841         C 23 -- H 28          +9.8% ( 30.8%)     96.0%
 EFFECTIVE MASS      1.2497
 FORCE CONSTANT      0.8021

 VIBRATION        104  104A           ATOM PAIR      ENERGY CONTRIBUTION    RADIAL
 FREQUENCY          2727.78         N 22 -- H 35         +68.4% ( 82.3%)     99.5%
 TRANSITION DIPOLE   1.1539         C 23 -- H 27          +9.3% ( 30.4%)     97.1%
 TRAVEL (Ang.)       0.2311         C 21 -- H 29          +7.6% ( 27.5%)     96.7%
 REDUCED MASS        0.4628         C 23 -- H 28          +6.9% ( 26.2%)     95.6%
 EFFECTIVE MASS      1.2903
 FORCE CONSTANT      2.0289

 VIBRATION        105  105A           ATOM PAIR      ENERGY CONTRIBUTION    RADIAL
 FREQUENCY          2730.24         C  5 -- H 39         +82.1% ( 91.6%)    100.0%
 TRANSITION DIPOLE   0.8024         C  4 -- H  9          +8.0% ( 28.6%)     99.6%
 TRAVEL (Ang.)       0.1927         C  6 -- H 10          +6.6% ( 26.0%)     99.7%
 REDUCED MASS        0.6653         C  4 -- C  5          +0.9% (  9.6%)      5.8%
 EFFECTIVE MASS      1.3742
 FORCE CONSTANT      2.9221

 VIBRATION        106  106A           ATOM PAIR      ENERGY CONTRIBUTION    RADIAL
 FREQUENCY          2740.32         C  1 -- H  7         +50.1% ( 71.5%)    100.0%
 TRANSITION DIPOLE   0.1976         C  2 -- H  8         +22.0% ( 47.3%)     99.8%
 TRAVEL (Ang.)       0.2740         C  6 -- H 10         +19.3% ( 44.4%)     99.8%
 REDUCED MASS        0.3278         C  4 -- H  9          +4.6% ( 21.8%)    100.0%
 EFFECTIVE MASS      1.3576
 FORCE CONSTANT      1.4505

 VIBRATION        107  107A           ATOM PAIR      ENERGY CONTRIBUTION    RADIAL
 FREQUENCY          2742.81         C  4 -- H  9         +47.2% ( 69.4%)    100.0%
 TRANSITION DIPOLE   1.4015         C  6 -- H 10         +29.6% ( 55.0%)    100.0%
 TRAVEL (Ang.)       0.2769         C  1 -- H  7         +10.1% ( 32.2%)     99.7%
 REDUCED MASS        0.3207         C  2 -- H  8          +9.8% ( 31.6%)    100.0%
 EFFECTIVE MASS      1.3704
 FORCE CONSTANT      1.4217

 VIBRATION        108  108A           ATOM PAIR      ENERGY CONTRIBUTION    RADIAL
 FREQUENCY          2744.70         C  2 -- H  8         +38.6% ( 62.7%)    100.0%
 TRANSITION DIPOLE   1.5609         C  4 -- H  9         +26.2% ( 51.6%)    100.0%
 TRAVEL (Ang.)       0.3049         C  6 -- H 10         +22.1% ( 47.4%)    100.0%
 REDUCED MASS        0.2643         C  5 -- H 39          +5.8% ( 24.3%)    100.0%
 EFFECTIVE MASS      1.3772
 FORCE CONSTANT      1.1730

 VIBRATION        109  109A           ATOM PAIR      ENERGY CONTRIBUTION    RADIAL
 FREQUENCY          2754.48         C  1 -- H  7         +32.2% ( 57.3%)    100.0%
 TRANSITION DIPOLE   0.6242         C  2 -- H  8         +26.6% ( 52.0%)    100.0%
 TRAVEL (Ang.)       0.3269         C  6 -- H 10         +20.2% ( 45.4%)    100.0%
 REDUCED MASS        0.2291         C  4 -- H  9         +11.8% ( 34.7%)    100.0%
 EFFECTIVE MASS      1.4596
 FORCE CONSTANT      1.0242

 VIBRATION        110  110A           ATOM PAIR      ENERGY CONTRIBUTION    RADIAL
 FREQUENCY          2771.32         N 19 -- H 33         +97.5% ( 99.0%)     99.4%
 TRANSITION DIPOLE   0.7867         N 19 -- C 24          +0.5% (  7.4%)     13.8%
 TRAVEL (Ang.)       0.1633         N 19 -- C 20          +0.5% (  7.4%)     13.1%
 REDUCED MASS        0.9126         C 24 -- H 25          +0.3% (  5.8%)     87.8%
 EFFECTIVE MASS      1.3292
 FORCE CONSTANT      4.1296

 VIBRATION        111  111A           ATOM PAIR      ENERGY CONTRIBUTION    RADIAL
 FREQUENCY          2773.24         C 12 -- H 15         +37.8% ( 59.0%)     96.3%
 TRANSITION DIPOLE   0.5999         C 12 -- H 13         +32.4% ( 54.6%)     95.3%
 TRAVEL (Ang.)       0.2724         C 12 -- H 14         +29.1% ( 51.8%)     94.6%
 REDUCED MASS        0.3276         C 11 -- C 12          +0.3% (  5.0%)     98.6%
 EFFECTIVE MASS      1.1408
 FORCE CONSTANT      1.4845

      SYMMETRY NUMBER FOR POINT-GROUP C1  =  1


          SYSTEM IS A GROUND STATE



 Title: ASE calculation


          MOLECULE IS NOT LINEAR

          THERE ARE  111 GENUINE VIBRATIONS IN THIS SYSTEM
          THIS THERMODYNAMICS CALCULATION IS LIMITED TO
          MOLECULES WHICH HAVE NO INTERNAL ROTATIONS




                    CALCULATED THERMODYNAMIC PROPERTIES
                                          *
   TEMP. (K)   PARTITION FUNCTION   H.O.F.    ENTHALPY  HEAT CAPACITY ENTROPY
                                   KCAL/MOL   CAL/MOLE    CAL/K/MOL  CAL/K/MOL


 298.00  VIB.     0.3863D+11                 11956.6123    69.2814    88.5657
         ROT.     0.7828D+07                   888.2803     2.9808    34.5242
         INT.     0.3024D+18                 12844.8926    72.2622   123.0899
         TRA.     0.3967D+28                  1480.4672     4.9680    42.5215
         TOT.                      -53.108   14325.3598    77.2302   165.6115

   *: NOTE: HEATS OF FORMATION ARE RELATIVE TO THE
            ELEMENTS IN THEIR STANDARD STATE AT 298K
              (=  Standard Enthalpy of Formation).

            Hvib:  Zero-point energy is not included.
                   frequencies of less than zero cm-1 are not included.
            Hrot = (3/2)RT
            Htra = (3/2)RT + pV = (5/2)RT

            Heat capacity is Cp, not Cv

          For more information, see: HTTP://OpenMOPAC.net/Manual/thermochemistry.html


           FORCE CONSTANT IN CARTESIAN COORDINATES (Millidynes/A)

    ATOM   CHEMICAL       X               Y               Z
   NUMBER   SYMBOL  FORCE CONSTANT  FORCE CONSTANT  FORCE CONSTANT

      1       C       11.414967       10.223809        2.390213
      2       C       11.312031       10.020509        2.451136
      3       C       11.505452       11.522675        2.793404
      4       C       11.445490        9.830331        2.378978
      5       C       11.330902       10.348422        2.357899
      6       C        9.785591       11.866049        2.259470
      7       H        1.741416        3.393739        0.388594
      8       H        1.746145        3.394728        0.377874
      9       H        1.733701        3.411409        0.360732
     10       H        4.216569        0.941417        0.386593
     11       C       11.009641        5.605074        8.430875
     12       C        6.578832        6.335287        6.756624
     13       H        3.783938        0.776949        0.822084
     14       H        0.555135        1.729105        2.998072
     15       H        1.282013        3.181642        0.932955
     16       N       13.088106        6.819659        9.599231
     17       O        3.216221        2.857187        5.627780
     18       O        9.768115        0.822076        1.153198
     19       N        5.284314        8.059646        6.310502
     20       C        6.953236        7.141408        6.827723
     21       C        6.713794        7.342848        6.898725
     22       N        5.241270        7.768069        6.426604
     23       C        6.855652        7.100959        6.897650
     24       C        6.680801        7.435504        6.890053
     25       H        2.716801        1.121672        1.720963
     26       H        2.707098        1.057184        1.789371
     27       H        0.718261        3.931722        0.885654
     28       H        3.281582        0.675489        1.571119
     29       H        2.810954        1.096284        1.647523
     30       H        2.631036        1.106369        1.818060
     31       H        3.207609        0.696438        1.641741
     32       H        0.617918        3.699911        0.394142
     33       H        0.744980        2.127736        3.174786
     34       H        0.722485        3.950174        0.873711
     35       H        0.610554        1.879481        3.301888
     36       H        1.888604        0.543358        2.138212
     37       H        2.884891        0.702423        0.894253
     38       O        4.366603        4.387704        3.800672
     39       H        1.741584        3.321832        0.357476

 **********************
 *                    *
 * JOB ENDED NORMALLY *
 *                    *
 **********************



 TOTAL JOB TIME:            15.17 SECONDS

 == MOPAC DONE ==
