
                                 *****************
                                 * O   R   C   A *
                                 *****************

                                            #,                                       
                                            ###                                      
                                            ####                                     
                                            #####                                    
                                            ######                                   
                                           ########,                                 
                                     ,,################,,,,,                         
                               ,,#################################,,                 
                          ,,##########################################,,             
                       ,#########################################, ''#####,          
                    ,#############################################,,   '####,        
                  ,##################################################,,,,####,       
                ,###########''''           ''''###############################       
              ,#####''   ,,,,##########,,,,          '''####'''          '####       
            ,##' ,,,,###########################,,,                        '##       
           ' ,,###''''                  '''############,,,                           
         ,,##''                                '''############,,,,        ,,,,,,###''
      ,#''                                            '''#######################'''  
     '                                                          ''''####''''         
             ,#######,   #######,   ,#######,      ##                                
            ,#'     '#,  ##    ##  ,#'     '#,    #''#        ######   ,####,        
            ##       ##  ##   ,#'  ##            #'  '#       #        #'  '#        
            ##       ##  #######   ##           ,######,      #####,   #    #        
            '#,     ,#'  ##    ##  '#,     ,#' ,#      #,         ##   #,  ,#        
             '#######'   ##     ##  '#######'  #'      '#     #####' # '####'        



                  #######################################################
                  #                        -***-                        #
                  #          Department of theory and spectroscopy      #
                  #    Directorship and core code : Frank Neese         #
                  #        Max Planck Institute fuer Kohlenforschung    #
                  #                Kaiser Wilhelm Platz 1               #
                  #                 D-45470 Muelheim/Ruhr               #
                  #                      Germany                        #
                  #                                                     #
                  #                  All rights reserved                #
                  #                        -***-                        #
                  #######################################################


                         Program Version 5.0.4 -  RELEASE  -


 With contributions from (in alphabetic order):
   Daniel Aravena         : Magnetic Suceptibility
   Michael Atanasov       : Ab Initio Ligand Field Theory (pilot matlab implementation)
   Alexander A. Auer      : GIAO ZORA, VPT2 properties, NMR spectrum
   Ute Becker             : Parallelization
   Giovanni Bistoni       : ED, misc. LED, open-shell LED, HFLD
   Martin Brehm           : Molecular dynamics
   Dmytro Bykov           : SCF Hessian
   Vijay G. Chilkuri      : MRCI spin determinant printing, contributions to CSF-ICE
   Dipayan Datta          : RHF DLPNO-CCSD density
   Achintya Kumar Dutta   : EOM-CC, STEOM-CC
   Dmitry Ganyushin       : Spin-Orbit,Spin-Spin,Magnetic field MRCI
   Miquel Garcia          : C-PCM and meta-GGA Hessian, CC/C-PCM, Gaussian charge scheme
   Yang Guo               : DLPNO-NEVPT2, F12-NEVPT2, CIM, IAO-localization
   Andreas Hansen         : Spin unrestricted coupled pair/coupled cluster methods
   Benjamin Helmich-Paris : MC-RPA, TRAH-SCF, COSX integrals
   Lee Huntington         : MR-EOM, pCC
   Robert Izsak           : Overlap fitted RIJCOSX, COSX-SCS-MP3, EOM
   Marcus Kettner         : VPT2
   Christian Kollmar      : KDIIS, OOCD, Brueckner-CCSD(T), CCSD density, CASPT2, CASPT2-K
   Simone Kossmann        : Meta GGA functionals, TD-DFT gradient, OOMP2, MP2 Hessian
   Martin Krupicka        : Initial AUTO-CI
   Lucas Lang             : DCDCAS
   Marvin Lechner         : AUTO-CI (C++ implementation), FIC-MRCC
   Dagmar Lenk            : GEPOL surface, SMD
   Dimitrios Liakos       : Extrapolation schemes; Compound Job, initial MDCI parallelization
   Dimitrios Manganas     : Further ROCIS development; embedding schemes
   Dimitrios Pantazis     : SARC Basis sets
   Anastasios Papadopoulos: AUTO-CI, single reference methods and gradients
   Taras Petrenko         : DFT Hessian,TD-DFT gradient, ASA, ECA, R-Raman, ABS, FL, XAS/XES, NRVS
   Peter Pinski           : DLPNO-MP2, DLPNO-MP2 Gradient
   Christoph Reimann      : Effective Core Potentials
   Marius Retegan         : Local ZFS, SOC
   Christoph Riplinger    : Optimizer, TS searches, QM/MM, DLPNO-CCSD(T), (RO)-DLPNO pert. Triples
   Tobias Risthaus        : Range-separated hybrids, TD-DFT gradient, RPA, STAB
   Michael Roemelt        : Original ROCIS implementation
   Masaaki Saitow         : Open-shell DLPNO-CCSD energy and density
   Barbara Sandhoefer     : DKH picture change effects
   Avijit Sen             : IP-ROCIS
   Kantharuban Sivalingam : CASSCF convergence, NEVPT2, FIC-MRCI
   Bernardo de Souza      : ESD, SOC TD-DFT
   Georgi Stoychev        : AutoAux, RI-MP2 NMR, DLPNO-MP2 response
   Willem Van den Heuvel  : Paramagnetic NMR
   Boris Wezisla          : Elementary symmetry handling
   Frank Wennmohs         : Technical directorship


 We gratefully acknowledge several colleagues who have allowed us to
 interface, adapt or use parts of their codes:
   Stefan Grimme, W. Hujo, H. Kruse, P. Pracht,  : VdW corrections, initial TS optimization,
                  C. Bannwarth, S. Ehlert          DFT functionals, gCP, sTDA/sTD-DF
   Ed Valeev, F. Pavosevic, A. Kumar             : LibInt (2-el integral package), F12 methods
   Garnet Chan, S. Sharma, J. Yang, R. Olivares  : DMRG
   Ulf Ekstrom                                   : XCFun DFT Library
   Mihaly Kallay                                 : mrcc  (arbitrary order and MRCC methods)
   Jiri Pittner, Ondrej Demel                    : Mk-CCSD
   Frank Weinhold                                : gennbo (NPA and NBO analysis)
   Christopher J. Cramer and Donald G. Truhlar   : smd solvation model
   Lars Goerigk                                  : TD-DFT with DH, B97 family of functionals
   V. Asgeirsson, H. Jonsson                     : NEB implementation
   FAccTs GmbH                                   : IRC, NEB, NEB-TS, DLPNO-Multilevel, CI-OPT
                                                   MM, QMMM, 2- and 3-layer-ONIOM, Crystal-QMMM,
                                                   LR-CPCM, SF, NACMEs, symmetry and pop. for TD-DFT,
                                                   nearIR, NL-DFT gradient (VV10), updates on ESD,
                                                   ML-optimized integration grids
   S Lehtola, MJT Oliveira, MAL Marques          : LibXC Library
   Liviu Ungur et al                             : ANISO software


 Your calculation uses the libint2 library for the computation of 2-el integrals
 For citations please refer to: http://libint.valeyev.net

 Your ORCA version has been built with support for libXC version: 5.1.0
 For citations please refer to: https://tddft.org/programs/libxc/

 This ORCA versions uses:
   CBLAS   interface :  Fast vector & matrix operations
   LAPACKE interface :  Fast linear algebra routines
   SCALAPACK package :  Parallel linear algebra routines
   Shared memory     :  Shared parallel matrices
   BLAS/LAPACK       :  OpenBLAS 0.3.15  USE64BITINT DYNAMIC_ARCH NO_AFFINITY Prescott SINGLE_THREADED
        Core in use  :  Prescott
   Copyright (c) 2011-2014, The OpenBLAS Project


Your calculation utilizes the atom-pairwise dispersion correction
with the Becke-Johnson damping scheme (D3BJ)
Cite in your paper:
S.Grimme, S.Ehrlich, L.Goerigk, J Comput Chem, (2011), 32, 1456–1465 
S.Grimme, J.Antony, S.Ehrlich and H.Krieg, J.Chem.Phys., 132, (2010), 154104 
   

================================================================================

----- Orbital basis set information -----
Your calculation utilizes the basis: def2-TZVP
   F. Weigend and R. Ahlrichs, Phys. Chem. Chem. Phys. 7, 3297 (2005).

----- AuxJ basis set information -----
Your calculation utilizes the auxiliary basis: def2/J
   F. Weigend, Phys. Chem. Chem. Phys. 8, 1057 (2006).

================================================================================
                                        WARNINGS
                       Please study these warnings very carefully!
================================================================================

WARNING: Gradients needed for Numerical Frequencies
  ===> : Setting RunTyp to EnGrad

WARNING: your system is open-shell and RHF/RKS was chosen
  ===> : WILL SWITCH to UHF/UKS


INFO   : the flag for use of the SHARK integral package has been found!

================================================================================
                                       INPUT FILE
================================================================================
NAME = /home/rudenko/mop_saddle_orca_4_serv/for_orca/m-o2nc6h4chno2ch3_piperazine/orca/start_freq_D/start_f_D.inp
|  1> !  NUMFREQ B3LYP def2-TZVP CPCM D3 
|  2> %pal nprocs 102 end
|  3> %cpcm epsilon 78.4 end 
|  4> *xyz 0 2 
|  5> C   -0.80964770706359 0.54247280019439 0.86507697686808
|  6> C   0.45240604522728 0.88234729797537 1.34255991163073
|  7> C   1.55617065502628 0.07318068469352 1.07395139383753
|  8> C   1.39382626093555 -1.07691417182265 0.30970995218422
|  9> C   0.12899376918857 -1.39041974285126 -0.16410431720046
| 10> C   -0.98393743735359 -0.60254750104181 0.10313885782892
| 11> H   -1.65924843667344 1.17468705487395 1.08485453681655
| 12> H   0.58980874304343 1.78072022801115 1.93069450352152
| 13> H   2.22764790544236 -1.72196446005153 0.07761379989804
| 14> H   -1.95362417192967 -0.88158309103552 -0.27955689530787
| 15> N   -0.03602421108992 -2.60073378888749 -0.97790207095785
| 16> O   -1.16119622902068 -2.88720503308164 -1.36552363861398
| 17> O   0.9578058037732 -3.26897043219216 -1.23218632874871
| 18> C   2.91189500868049 0.45237451023558 1.62488630049071
| 19> C   3.5946316564845 -0.63239149448858 2.43162257668665
| 20> H   4.56838028586139 -0.29389788369555 2.7839196164227
| 21> H   3.72193211030634 -1.54970461381742 1.86024272400379
| 22> H   2.96733325170434 -0.84538058038653 3.29804468943435
| 23> N   3.77873310160417 0.88444973889506 0.43455939413224
| 24> O   3.54139960999298 1.98199394748111 -0.04363056138516
| 25> O   4.63284385957967 0.12364011999619 0.01596098125862
| 26> H   2.81130311868858 1.37045765227886 2.20221379082832 M = 2
| 27> C   6.68360672407149 3.49814706632981 5.26902218305535
| 28> N   7.50171675671424 3.03330353616702 4.24693068448434
| 29> C   7.1329147645429 3.39415352789182 2.87868758985609
| 30> C   5.64189766953409 3.16185178480313 2.6675420497826
| 31> N   4.81592081426386 3.83914675474531 3.67805355631953
| 32> C   5.21115867699826 3.40620180517325 5.03364575687377
| 33> H   7.07029651867437 3.37584092821926 6.27342494617531
| 34> H   8.49145497911468 3.1119127995191 4.43287043552417
| 35> H   7.71130604217841 2.78395758805911 2.18332178305248
| 36> H   7.36294560277131 4.45033362950797 2.6772590344181
| 37> H   5.34867778028929 3.50575929805496 1.67566449554966
| 38> H   5.42785816743892 2.09205678471477 2.73162848017809
| 39> H   4.9679190105692 4.84220779373307 3.60201191379011
| 40> H   4.66762553526015 4.00058170376884 5.76887593222174
| 41> H   4.85693229352207 2.36691230906867 5.13840241888428
| 42> H   1.91948398649741 2.70426981359704 4.15527847514571
| 43> H   3.1017600961775 3.45882753425359 3.47192835869056
| 44> O   2.14251159897304 3.19774408110998 3.35712570236867
| 45> *
| 46> 
| 47>                          ****END OF INPUT****
================================================================================

                     *******************************
                     * Energy+Gradient Calculation *
                     *******************************

---------------------------------
CARTESIAN COORDINATES (ANGSTROEM)
---------------------------------
  C     -0.809648    0.542473    0.865077
  C      0.452406    0.882347    1.342560
  C      1.556171    0.073181    1.073951
  C      1.393826   -1.076914    0.309710
  C      0.128994   -1.390420   -0.164104
  C     -0.983937   -0.602548    0.103139
  H     -1.659248    1.174687    1.084855
  H      0.589809    1.780720    1.930695
  H      2.227648   -1.721964    0.077614
  H     -1.953624   -0.881583   -0.279557
  N     -0.036024   -2.600734   -0.977902
  O     -1.161196   -2.887205   -1.365524
  O      0.957806   -3.268970   -1.232186
  C      2.911895    0.452375    1.624886
  C      3.594632   -0.632391    2.431623
  H      4.568380   -0.293898    2.783920
  H      3.721932   -1.549705    1.860243
  H      2.967333   -0.845381    3.298045
  N      3.778733    0.884450    0.434559
  O      3.541400    1.981994   -0.043631
  O      4.632844    0.123640    0.015961
  H      2.811303    1.370458    2.202214
  C      6.683607    3.498147    5.269022
  N      7.501717    3.033304    4.246931
  C      7.132915    3.394154    2.878688
  C      5.641898    3.161852    2.667542
  N      4.815921    3.839147    3.678054
  C      5.211159    3.406202    5.033646
  H      7.070297    3.375841    6.273425
  H      8.491455    3.111913    4.432870
  H      7.711306    2.783958    2.183322
  H      7.362946    4.450334    2.677259
  H      5.348678    3.505759    1.675664
  H      5.427858    2.092057    2.731628
  H      4.967919    4.842208    3.602012
  H      4.667626    4.000582    5.768876
  H      4.856932    2.366912    5.138402
  H      1.919484    2.704270    4.155278
  H      3.101760    3.458828    3.471928
  O      2.142512    3.197744    3.357126

----------------------------
CARTESIAN COORDINATES (A.U.)
----------------------------
  NO LB      ZA    FRAG     MASS         X           Y           Z
   0 C     6.0000    0    12.011   -1.530012    1.025125    1.634759
   1 C     6.0000    0    12.011    0.854924    1.667395    2.537071
   2 C     6.0000    0    12.011    2.940736    0.138291    2.029474
   3 C     6.0000    0    12.011    2.633950   -2.035073    0.585267
   4 C     6.0000    0    12.011    0.243763   -2.627513   -0.310112
   5 C     6.0000    0    12.011   -1.859372   -1.138650    0.194904
   6 H     1.0000    0     1.008   -3.135525    2.219837    2.050078
   7 H     1.0000    0     1.008    1.114577    3.365074    3.648484
   8 H     1.0000    0     1.008    4.209644   -3.254041    0.146669
   9 H     1.0000    0     1.008   -3.691815   -1.665951   -0.528286
  10 N     7.0000    0    14.007   -0.068076   -4.914675   -1.847967
  11 O     8.0000    0    15.999   -2.194343   -5.456027   -2.580466
  12 O     8.0000    0    15.999    1.809991   -6.177459   -2.328495
  13 C     6.0000    0    12.011    5.502684    0.854864    3.070590
  14 C     6.0000    0    12.011    6.792869   -1.195047    4.595101
  15 H     1.0000    0     1.008    8.632988   -0.555387    5.260846
  16 H     1.0000    0     1.008    7.033432   -2.928517    3.515349
  17 H     1.0000    0     1.008    5.607447   -1.597538    6.232401
  18 N     7.0000    0    14.007    7.140771    1.671368    0.821198
  19 O     8.0000    0    15.999    6.692275    3.745426   -0.082450
  20 O     8.0000    0    15.999    8.754806    0.233646    0.030162
  21 H     1.0000    0     2.000    5.312593    2.589790    4.161581
  22 C     6.0000    0    12.011   12.630186    6.610540    9.957009
  23 N     7.0000    0    14.007   14.176190    5.732113    8.025536
  24 C     6.0000    0    12.011   13.479255    6.414021    5.439931
  25 C     6.0000    0    12.011   10.661641    5.975034    5.040924
  26 N     7.0000    0    14.007    9.100771    7.254936    6.950514
  27 C     6.0000    0    12.011    9.847663    6.436789    9.512212
  28 H     1.0000    0     1.008   13.360924    6.379415   11.855055
  29 H     1.0000    0     1.008   16.046524    5.880663    8.376911
  30 H     1.0000    0     1.008   14.572257    5.260917    4.125880
  31 H     1.0000    0     1.008   13.913951    8.409912    5.059286
  32 H     1.0000    0     1.008   10.107536    6.624925    3.166547
  33 H     1.0000    0     1.008   10.257165    3.953414    5.162030
  34 H     1.0000    0     1.008    9.388006    9.150447    6.806816
  35 H     1.0000    0     1.008    8.820534    7.560004   10.901596
  36 H     1.0000    0     1.008    9.178272    4.472816    9.710173
  37 H     1.0000    0     1.008    3.627299    5.110329    7.852338
  38 H     1.0000    0     1.008    5.861477    6.536237    6.560994
  39 O     8.0000    0    15.999    4.048760    6.042861    6.344048

--------------------------------
INTERNAL COORDINATES (ANGSTROEM)
--------------------------------
 C      0   0   0     0.000000000000     0.00000000     0.00000000
 C      1   0   0     1.391504330178     0.00000000     0.00000000
 C      2   1   0     1.394703358326   120.66259241     0.00000000
 C      3   2   1     1.390373641299   119.56189403     0.65939727
 C      4   3   2     1.386573812358   118.77478901   359.83676189
 C      1   2   3     1.386361459928   120.28762743   359.40112562
 H      1   2   3     1.081581452980   119.99629056   179.63124551
 H      2   1   3     1.082522850090   120.28150471   180.09857237
 H      4   3   2     1.079452191205   121.48623413   179.59743143
 H      6   1   2     1.079170636723   121.42715314   180.23206112
 N      5   4   3     1.467773077784   118.58484207   179.60086245
 O     11   5   4     1.224062222028   118.15778364   178.29699177
 O     11   5   4     1.224295223244   118.29209559   358.30743767
 C      3   2   1     1.511722776103   119.60482417   181.06737473
 C     14   3   2     1.514486723148   114.75580095   125.88996073
 H     15  14   3     1.089439085937   110.64898999   179.25324245
 H     15  14   3     1.088183670383   112.13742984    57.19743573
 H     15  14   3     1.090667188839   107.68309729   297.72174252
 N     14   3   2     1.534592918844   107.12850722   249.75091787
 O     19  14   3     1.220490110406   116.56789576    74.85317208
 O     19  14   3     1.218015227474   119.13088548   255.88530323
 H     14   3   2     1.089175107655   108.77081780     0.51367860
 C     16  15  14     5.002951384393   140.71708282    52.50222881
 N     23  16  15     1.389264036998    68.27935830   216.80937758
 C     24  23  16     1.462298461996   117.21291532    74.90651838
 C     25  24  23     1.523705521596   109.80591211   313.71588909
 N     26  25  24     1.470408020447   112.59562685    53.40144487
 C     27  26  25     1.476917232516   110.20783476   303.41161659
 H     23  16  15     1.083195596018   121.73190738   109.16127439
 H     24  23  16     1.010116209246   114.55294638   211.75965693
 H     25  24  23     1.091058733664   108.94302104   192.95362277
 H     25  24  23     1.099547205231   110.83528338    74.21628515
 H     26  25  24     1.089986864008   109.95237344   175.41435038
 H     26  25  24     1.092877541737   109.43639852   293.92320537
 H     27  26  25     1.017357966015   108.59349507    62.15878150
 H     28  27  26     1.090540760707   109.00530696   173.65630715
 H     28  27  26     1.102983656134   106.10764701   288.37259106
 H     22  14   3     2.527619019423   152.49368387    64.55667083
 H     38  22  14     1.560160740110    69.47634038   164.34135297
 O     38  22  14     0.964523725636    63.19141416   205.74126211

---------------------------
INTERNAL COORDINATES (A.U.)
---------------------------
 C      0   0   0     0.000000000000     0.00000000     0.00000000
 C      1   0   0     2.629562098201     0.00000000     0.00000000
 C      2   1   0     2.635607385296   120.66259241     0.00000000
 C      3   2   1     2.627425405877   119.56189403     0.65939727
 C      4   3   2     2.620244769824   118.77478901   359.83676189
 C      1   2   3     2.619843481886   120.28762743   359.40112562
 H      1   2   3     2.043892737661   119.99629056   179.63124551
 H      2   1   3     2.045671720382   120.28150471   180.09857237
 H      4   3   2     2.039869016040   121.48623413   179.59743143
 H      6   1   2     2.039336955176   121.42715314   180.23206112
 N      5   4   3     2.773689143755   118.58484207   179.60086245
 O     11   5   4     2.313142370512   118.15778364   178.29699177
 O     11   5   4     2.313582678999   118.29209559   358.30743767
 C      3   2   1     2.856742037246   119.60482417   181.06737473
 C     14   3   2     2.861965140209   114.75580095   125.88996073
 H     15  14   3     2.058741512011   110.64898999   179.25324245
 H     15  14   3     2.056369120429   112.13742984    57.19743573
 H     15  14   3     2.061062290159   107.68309729   297.72174252
 N     14   3   2     2.899960343670   107.12850722   249.75091787
 O     19  14   3     2.306392057827   116.56789576    74.85317208
 O     19  14   3     2.301715206872   119.13088548   255.88530323
 H     14   3   2     2.058242665353   108.77081780     0.51367860
 C     16  15  14     9.454207977825   140.71708282    52.50222881
 N     23  16  15     2.625328557632    68.27935830   216.80937758
 C     24  23  16     2.763343619226   117.21291532    74.90651838
 C     25  24  23     2.879386144561   109.80591211   313.71588909
 N     26  25  24     2.778668463766   112.59562685    53.40144487
 C     27  26  25     2.790969091924   110.20783476   303.41161659
 H     23  16  15     2.046943025943   121.73190738   109.16127439
 H     24  23  16     1.908842998910   114.55294638   211.75965693
 H     25  24  23     2.061802202648   108.94302104   192.95362277
 H     25  24  23     2.077843089206   110.83528338    74.21628515
 H     26  25  24     2.059776662548   109.95237344   175.41435038
 H     26  25  24     2.065239251795   109.43639852   293.92320537
 H     27  26  25     1.922527935931   108.59349507    62.15878150
 H     28  27  26     2.060823375615   109.00530696   173.65630715
 H     28  27  26     2.084337040285   106.10764701   288.37259106
 H     22  14   3     4.776507717601   152.49368387    64.55667083
 H     38  22  14     2.948276523705    69.47634038   164.34135297
 O     38  22  14     1.822685691122    63.19141416   205.74126211

---------------------
BASIS SET INFORMATION
---------------------
There are 4 groups of distinct atoms

 Group   1 Type C   : 11s6p2d1f contracted to 5s3p2d1f pattern {62111/411/11/1}
 Group   2 Type H   : 5s1p contracted to 3s1p pattern {311/1}
 Group   3 Type N   : 11s6p2d1f contracted to 5s3p2d1f pattern {62111/411/11/1}
 Group   4 Type O   : 11s6p2d1f contracted to 5s3p2d1f pattern {62111/411/11/1}

Atom   0C    basis set group =>   1
Atom   1C    basis set group =>   1
Atom   2C    basis set group =>   1
Atom   3C    basis set group =>   1
Atom   4C    basis set group =>   1
Atom   5C    basis set group =>   1
Atom   6H    basis set group =>   2
Atom   7H    basis set group =>   2
Atom   8H    basis set group =>   2
Atom   9H    basis set group =>   2
Atom  10N    basis set group =>   3
Atom  11O    basis set group =>   4
Atom  12O    basis set group =>   4
Atom  13C    basis set group =>   1
Atom  14C    basis set group =>   1
Atom  15H    basis set group =>   2
Atom  16H    basis set group =>   2
Atom  17H    basis set group =>   2
Atom  18N    basis set group =>   3
Atom  19O    basis set group =>   4
Atom  20O    basis set group =>   4
Atom  21H    basis set group =>   2
Atom  22C    basis set group =>   1
Atom  23N    basis set group =>   3
Atom  24C    basis set group =>   1
Atom  25C    basis set group =>   1
Atom  26N    basis set group =>   3
Atom  27C    basis set group =>   1
Atom  28H    basis set group =>   2
Atom  29H    basis set group =>   2
Atom  30H    basis set group =>   2
Atom  31H    basis set group =>   2
Atom  32H    basis set group =>   2
Atom  33H    basis set group =>   2
Atom  34H    basis set group =>   2
Atom  35H    basis set group =>   2
Atom  36H    basis set group =>   2
Atom  37H    basis set group =>   2
Atom  38H    basis set group =>   2
Atom  39O    basis set group =>   4
---------------------------------
AUXILIARY/J BASIS SET INFORMATION
---------------------------------
There are 4 groups of distinct atoms

 Group   1 Type C   : 12s5p4d2f1g contracted to 6s4p3d1f1g pattern {711111/2111/211/2/1}
 Group   2 Type H   : 5s2p1d contracted to 3s1p1d pattern {311/2/1}
 Group   3 Type N   : 12s5p4d2f1g contracted to 6s4p3d1f1g pattern {711111/2111/211/2/1}
 Group   4 Type O   : 12s5p4d2f1g contracted to 6s4p3d1f1g pattern {711111/2111/211/2/1}

Atom   0C    basis set group =>   1
Atom   1C    basis set group =>   1
Atom   2C    basis set group =>   1
Atom   3C    basis set group =>   1
Atom   4C    basis set group =>   1
Atom   5C    basis set group =>   1
Atom   6H    basis set group =>   2
Atom   7H    basis set group =>   2
Atom   8H    basis set group =>   2
Atom   9H    basis set group =>   2
Atom  10N    basis set group =>   3
Atom  11O    basis set group =>   4
Atom  12O    basis set group =>   4
Atom  13C    basis set group =>   1
Atom  14C    basis set group =>   1
Atom  15H    basis set group =>   2
Atom  16H    basis set group =>   2
Atom  17H    basis set group =>   2
Atom  18N    basis set group =>   3
Atom  19O    basis set group =>   4
Atom  20O    basis set group =>   4
Atom  21H    basis set group =>   2
Atom  22C    basis set group =>   1
Atom  23N    basis set group =>   3
Atom  24C    basis set group =>   1
Atom  25C    basis set group =>   1
Atom  26N    basis set group =>   3
Atom  27C    basis set group =>   1
Atom  28H    basis set group =>   2
Atom  29H    basis set group =>   2
Atom  30H    basis set group =>   2
Atom  31H    basis set group =>   2
Atom  32H    basis set group =>   2
Atom  33H    basis set group =>   2
Atom  34H    basis set group =>   2
Atom  35H    basis set group =>   2
Atom  36H    basis set group =>   2
Atom  37H    basis set group =>   2
Atom  38H    basis set group =>   2
Atom  39O    basis set group =>   4


           ************************************************************
           *        Program running with 102 parallel MPI-processes   *
           *              working on a common directory               *
           ************************************************************
------------------------------------------------------------------------------
                           ORCA GTO INTEGRAL CALCULATION
                           -- RI-GTO INTEGRALS CHOSEN --
------------------------------------------------------------------------------
------------------------------------------------------------------------------
                   ___                                                        
                  /   \      - P O W E R E D   B Y -                         
                 /     \                                                     
                 |  |  |   _    _      __       _____    __    __             
                 |  |  |  | |  | |    /  \     |  _  \  |  |  /  |          
                  \  \/   | |  | |   /    \    | | | |  |  | /  /          
                 / \  \   | |__| |  /  /\  \   | |_| |  |  |/  /          
                |  |  |   |  __  | /  /__\  \  |    /   |      \           
                |  |  |   | |  | | |   __   |  |    \   |  |\   \          
                \     /   | |  | | |  |  |  |  | |\  \  |  | \   \       
                 \___/    |_|  |_| |__|  |__|  |_| \__\ |__|  \__/        
                                                                              
                      - O R C A' S   B I G   F R I E N D -                    
                                      &                                       
                       - I N T E G R A L  F E E D E R -                       
                                                                              
 v1 FN, 2020, v2 2021                                                         
------------------------------------------------------------------------------


Reading SHARK input file /home/rudenko/mop_saddle_orca_4_serv/for_orca/m-o2nc6h4chno2ch3_piperazine/orca/start_freq_D/start_f_D.SHARKINP.tmp ... ok
----------------------
SHARK INTEGRAL PACKAGE
----------------------

Number of atoms                             ...     40
Number of basis functions                   ...    765
Number of shells                            ...    307
Maximum angular momentum                    ...      3
Integral batch strategy                     ... SHARK/LIBINT Hybrid
RI-J (if used) integral strategy            ... SPLIT-RIJ (Revised 2003 algorithm where possible)
Printlevel                                  ...      1
Contraction scheme used                     ... SEGMENTED contraction
Coulomb Range Separation                    ... NOT USED
Exchange Range Separation                   ... NOT USED
Finite Nucleus Model                        ... NOT USED
Auxiliary Coulomb fitting basis             ... AVAILABLE
   # of basis functions in Aux-J            ...   1238
   # of shells in Aux-J                     ...    410
   Maximum angular momentum in Aux-J        ...      4
Auxiliary J/K fitting basis                 ... NOT available
Auxiliary Correlation fitting basis         ... NOT available
Auxiliary 'external' fitting basis          ... NOT available
Integral threshold                          ...     2.500000e-11
Primitive cut-off                           ...     2.500000e-12
Primitive pair pre-selection threshold      ...     2.500000e-12

Calculating pre-screening integrals         ... done (  0.1 sec) Dimension = 307
Organizing shell pair data                  ... done (  0.8 sec)
Shell pair information
Total number of shell pairs                 ...     47278
Shell pairs after pre-screening             ...     30560
Total number of primitive shell pairs       ...    143364
Primitive shell pairs kept                  ...     61574
          la=0 lb=0:   8477 shell pairs
          la=1 lb=0:   9031 shell pairs
          la=1 lb=1:   2462 shell pairs
          la=2 lb=0:   4158 shell pairs
          la=2 lb=1:   2270 shell pairs
          la=2 lb=2:    539 shell pairs
          la=3 lb=0:   1958 shell pairs
          la=3 lb=1:   1070 shell pairs
          la=3 lb=2:    479 shell pairs
          la=3 lb=3:    116 shell pairs

Calculating one electron integrals          ... done (  0.3 sec)
Calculating RI/J V-Matrix + Cholesky decomp.... done (  0.2 sec)
Calculating Nuclear repulsion               ... done (  0.0 sec) ENN=   1692.924898812610 Eh

SHARK setup successfully completed in   2.0 seconds

Maximum memory used throughout the entire GTOINT-calculation: 47.8 MB


           ************************************************************
           *        Program running with 102 parallel MPI-processes   *
           *              working on a common directory               *
           ************************************************************
-------------------------------------------------------------------------------
                                 ORCA SCF
-------------------------------------------------------------------------------

------------
SCF SETTINGS
------------
Hamiltonian:
 Density Functional     Method          .... DFT(GTOs)
 Exchange Functional    Exchange        .... B88
   X-Alpha parameter    XAlpha          ....  0.666667
   Becke's b parameter  XBeta           ....  0.004200
 Correlation Functional Correlation     .... LYP
 LDA part of GGA corr.  LDAOpt          .... VWN-5
 Gradients option       PostSCFGGA      .... off
 Hybrid DFT is turned on
   Fraction HF Exchange ScalHFX         ....  0.200000
   Scaling of DF-GGA-X  ScalDFX         ....  0.720000
   Scaling of DF-GGA-C  ScalDFC         ....  0.810000
   Scaling of DF-LDA-C  ScalLDAC        ....  1.000000
   Perturbative correction              ....  0.000000
   Density functional embedding theory  .... OFF
   NL short-range parameter             ....  4.800000
 RI-approximation to the Coulomb term is turned on
   Number of AuxJ basis functions       .... 1238
   RIJ-COSX (HFX calculated with COS-X)).... on


General Settings:
 Integral files         IntName         .... /home/rudenko/mop_saddle_orca_4_serv/for_orca/m-o2nc6h4chno2ch3_piperazine/orca/start_freq_D/start_f_D
 Hartree-Fock type      HFTyp           .... UHF
 Total Charge           Charge          ....    0
 Multiplicity           Mult            ....    2
 Number of Electrons    NEL             ....  159
 Basis Dimension        Dim             ....  765
 Nuclear Repulsion      ENuc            ....   1692.9248988126 Eh

Convergence Acceleration:
 DIIS                   CNVDIIS         .... on
   Start iteration      DIISMaxIt       ....    12
   Startup error        DIISStart       ....  0.200000
   # of expansion vecs  DIISMaxEq       ....     5
   Bias factor          DIISBfac        ....   1.050
   Max. coefficient     DIISMaxC        ....  10.000
 Trust-Rad. Augm. Hess. CNVTRAH         .... auto
   Auto Start mean grad. ratio tolernc. ....  1.125000
   Auto Start start iteration           ....    20
   Auto Start num. interpolation iter.  ....    10
   Max. Number of Micro iterations      ....    16
   Max. Number of Macro iterations      .... Maxiter - #DIIS iter
   Number of Davidson start vectors     ....     2
   Converg. threshold I  (grad. norm)   ....   1.000e-05
   Converg. threshold II (energy diff.) ....   1.000e-08
   Grad. Scal. Fac. for Micro threshold ....   0.100
   Minimum threshold for Micro iter.    ....   0.010
   NR start threshold (gradient norm)   ....   0.001
   Initial trust radius                 ....   0.400
   Minimum AH scaling param. (alpha)    ....   1.000
   Maximum AH scaling param. (alpha)    .... 1000.000
   Orbital update algorithm             .... Taylor
   White noise on init. David. guess    .... on
   Maximum white noise                  ....   0.010
   Quad. conv. algorithm                .... NR
 SOSCF                  CNVSOSCF        .... off
 Level Shifting         CNVShift        .... on
   Level shift para.    LevelShift      ....    0.2500
   Turn off err/grad.   ShiftErr        ....    0.0010
 Zerner damping         CNVZerner       .... off
 Static damping         CNVDamp         .... on
   Fraction old density DampFac         ....    0.7000
   Max. Damping (<1)    DampMax         ....    0.9800
   Min. Damping (>=0)   DampMin         ....    0.0000
   Turn off err/grad.   DampErr         ....    0.1000
 Fernandez-Rico         CNVRico         .... off

SCF Procedure:
 Maximum # iterations   MaxIter         ....   125
 SCF integral mode      SCFMode         .... Direct
   Integral package                     .... SHARK and LIBINT hybrid scheme
 Reset frequency        DirectResetFreq ....    20
 Integral Threshold     Thresh          ....  2.500e-11 Eh
 Primitive CutOff       TCut            ....  2.500e-12 Eh

Convergence Tolerance:
 Convergence Check Mode ConvCheckMode   .... Total+1el-Energy
 Convergence forced     ConvForced      .... 0
 Energy Change          TolE            ....  1.000e-08 Eh
 1-El. energy change                    ....  1.000e-05 Eh
 DIIS Error             TolErr          ....  5.000e-07


Diagonalization of the overlap matrix:
Smallest eigenvalue                        ... 6.932e-06
Time for diagonalization                   ...    0.253 sec
Threshold for overlap eigenvalues          ... 1.000e-08
Number of eigenvalues below threshold      ... 0
Time for construction of square roots      ...    0.572 sec
Total time needed                          ...    0.830 sec

Time for model grid setup =    0.302 sec

------------------------------
INITIAL GUESS: MODEL POTENTIAL
------------------------------
Loading Hartree-Fock densities                     ... done
Calculating cut-offs                               ... done
Initializing the effective Hamiltonian             ... done
Setting up the integral package (SHARK)            ... done
Starting the Coulomb interaction                   ... done (   0.1 sec)
Reading the grid                                   ... done
Mapping shells                                     ... done
Starting the XC term evaluation                    ... done (   0.1 sec)
  promolecular density results
     # of electrons  =    158.986428424
     EX              =   -134.643797401
     EC              =     -5.467780220
     EX+EC           =   -140.111577621
Transforming the Hamiltonian                       ... done (   0.6 sec)
Diagonalizing the Hamiltonian                      ... done (   0.4 sec)
Back transforming the eigenvectors                 ... done (   0.2 sec)
Now organizing SCF variables                       ... done
                      ------------------
                      INITIAL GUESS DONE (   1.9 sec)
                      ------------------
-------------------
DFT GRID GENERATION
-------------------

General Integration Accuracy     IntAcc      ... 4.388
Radial Grid Type                 RadialGrid  ... OptM3 with GC (2021)
Angular Grid (max. ang.)         AngularGrid ... 4 (Lebedev-302)
Angular grid pruning method      GridPruning ... 4 (adaptive)
Weight generation scheme         WeightScheme... Becke
Basis function cutoff            BFCut       ... 1.0000e-11
Integration weight cutoff        WCut        ... 1.0000e-14
Angular grids for H and He will be reduced by one unit
Partially contracted basis set               ... off
Rotationally invariant grid construction     ... off

Total number of grid points                  ...   186406
Total number of batches                      ...     2932
Average number of points per batch           ...       63
Average number of grid points per atom       ...     4660
Time for grid setup =    1.522 sec

--------------------
COSX GRID GENERATION
--------------------

GRIDX 1
-------
General Integration Accuracy     IntAcc      ... 3.816
Radial Grid Type                 RadialGrid  ... OptM3 with GC (2021)
Angular Grid (max. ang.)         AngularGrid ... 1 (Lebedev-50)
Angular grid pruning method      GridPruning ... 4 (adaptive)
Weight generation scheme         WeightScheme... Becke
Basis function cutoff            BFCut       ... 1.0000e-11
Integration weight cutoff        WCut        ... 1.0000e-14
Angular grids for H and He will be reduced by one unit
Partially contracted basis set               ... on
Rotationally invariant grid construction     ... off

Total number of grid points                  ...    23652
Total number of batches                      ...      389
Average number of points per batch           ...       60
Average number of grid points per atom       ...      591
UseSFitting                                  ... on

GRIDX 2
-------
General Integration Accuracy     IntAcc      ... 4.020
Radial Grid Type                 RadialGrid  ... OptM3 with GC (2021)
Angular Grid (max. ang.)         AngularGrid ... 2 (Lebedev-110)
Angular grid pruning method      GridPruning ... 4 (adaptive)
Weight generation scheme         WeightScheme... Becke
Basis function cutoff            BFCut       ... 1.0000e-11
Integration weight cutoff        WCut        ... 1.0000e-14
Angular grids for H and He will be reduced by one unit
Partially contracted basis set               ... on
Rotationally invariant grid construction     ... off

Total number of grid points                  ...    51105
Total number of batches                      ...      815
Average number of points per batch           ...       62
Average number of grid points per atom       ...     1278
UseSFitting                                  ... on

GRIDX 3
-------
General Integration Accuracy     IntAcc      ... 4.338
Radial Grid Type                 RadialGrid  ... OptM3 with GC (2021)
Angular Grid (max. ang.)         AngularGrid ... 3 (Lebedev-194)
Angular grid pruning method      GridPruning ... 4 (adaptive)
Weight generation scheme         WeightScheme... Becke
Basis function cutoff            BFCut       ... 1.0000e-11
Integration weight cutoff        WCut        ... 1.0000e-14
Angular grids for H and He will be reduced by one unit
Partially contracted basis set               ... on
Rotationally invariant grid construction     ... off

Total number of grid points                  ...   111701
Total number of batches                      ...     1766
Average number of points per batch           ...       63
Average number of grid points per atom       ...     2793
UseSFitting                                  ... on

Time for X-Grid setup             =    3.058 sec


--------------------
CPCM SOLVATION MODEL
--------------------
CPCM parameters:
  Epsilon                                         ...      78.4000
  Refrac                                          ...       1.3300
  Rsolv                                           ...       1.3000
  Surface type                                    ... GAUSSIAN VDW
  Epsilon function type                           ...         CPCM
Radii:
 Radius for C  used is    3.8550 Bohr (=   2.0400 Ang.)
 Radius for H  used is    2.4944 Bohr (=   1.3200 Ang.)
 Radius for N  used is    3.5149 Bohr (=   1.8600 Ang.)
 Radius for O  used is    3.4469 Bohr (=   1.8240 Ang.)
Calculating surface                               ...        done! (  0.0s)
GEPOL surface points                              ...         2217
GEPOL Volume                                      ...    2409.5968
GEPOL Surface-area                                ...    1302.2840
Calculating surface distance matrix               ...        done! (  0.3s)
Performing Cholesky decomposition & store         ...        done! (  0.8s)
Overall time for CPCM initialization              ...                 1.1s
--------------
SCF ITERATIONS
--------------
ITER       Energy         Delta-E        Max-DP      RMS-DP      [F,P]     Damp
               ***  Starting incremental Fock matrix formation  ***
  0  -1062.7676072956   0.000000000000 0.08111838  0.00048228  0.1727393 0.7000
  1  -1063.1077847858  -0.340177490200 0.07211571  0.00040125  0.0693443 0.7000
                               ***Turning on DIIS***
  2  -1063.2264299501  -0.118645164320 0.07873407  0.00060255  0.0174416 0.0000
  3  -1063.4368007458  -0.210370795673 0.07004563  0.00032988  0.0392491 0.0000
  4  -1063.4727320437  -0.035931297889 0.01850865  0.00010900  0.0087529 0.0000
  5  -1063.4755412748  -0.002809231178 0.00620559  0.00004141  0.0020424 0.0000
  6  -1063.4757262373  -0.000184962488 0.00595190  0.00002897  0.0009938 0.0000
               *** Restarting incremental Fock matrix formation ***
                                   *** Resetting DIIS ***
  7  -1063.4757210535   0.000005183839 0.00147945  0.00001605  0.0007899 0.0000
  8  -1063.4757122143   0.000008839200 0.00046390  0.00000340  0.0012697 0.0000
  9  -1063.4757297923  -0.000017578023 0.00040220  0.00000330  0.0003445 0.0000
 10  -1063.4757310826  -0.000001290274 0.00015057  0.00000079  0.0000991 0.0000
 11  -1063.4757312222  -0.000000139644 0.00008794  0.00000055  0.0000743 0.0000
 12  -1063.4757313325  -0.000000110242 0.00006015  0.00000043  0.0000253 0.0000
 13  -1063.4757313252   0.000000007262 0.00007326  0.00000040  0.0000363 0.0000
 14  -1063.4757313260  -0.000000000767 0.00005257  0.00000030  0.0000059 0.0000
 15  -1063.4757313284  -0.000000002418 0.00006718  0.00000045  0.0000052 0.0000
 16  -1063.4757313623  -0.000000033885 0.00002472  0.00000021  0.0000020 0.0000
                 **** Energy Check signals convergence ****

               *****************************************************
               *                     SUCCESS                       *
               *           SCF CONVERGED AFTER  17 CYCLES          *
               *****************************************************

Old exchange energy                            =    -27.282932846 Eh
New exchange energy                            =    -27.282970724 Eh
Exchange energy change after final integration =     -0.000037878 Eh
Total energy after final integration           =  -1063.475769245 Eh
Final COS-X integration done in                =     4.816 sec

----------------
TOTAL SCF ENERGY
----------------

Total Energy       :        -1063.47576924 Eh          -28938.64689 eV

Components:
Nuclear Repulsion  :         1692.92489881 Eh           46066.82849 eV
Electronic Energy  :        -2756.40066806 Eh          -75005.47538 eV
One Electron Energy:        -4812.74393225 Eh         -130961.42035 eV
Two Electron Energy:         2056.34326419 Eh           55955.94496 eV
Max COSX asymmetry :            0.00000059 Eh               0.00002 eV
CPCM Dielectric    :           -0.03509311 Eh              -0.95493 eV

Virial components:
Potential Energy   :        -2122.57184656 Eh          -57758.11631 eV
Kinetic Energy     :         1059.09607731 Eh           28819.46942 eV
Virial Ratio       :            2.00413531


DFT components:
N(Alpha)           :       80.000041122383 electrons
N(Beta)            :       79.000004320406 electrons
N(Total)           :      159.000045442789 electrons
E(X)               :     -108.606455267977 Eh       
E(C)               :       -6.433603409928 Eh       
E(XC)              :     -115.040058677906 Eh       
DFET-embed. en.    :        0.000000000000 Eh       
CPCM Solvation Model Properties:
Surface-charge          :           -0.03182827
Charge-correction       :            0.00003983 Eh               0.00108 eV
Free-energy (cav+disp)  :  This term is not implemented in the current solvation scheme

---------------
SCF CONVERGENCE
---------------

  Last Energy change         ...   -4.2289e-09  Tolerance :   1.0000e-08
  Last MAX-Density change    ...    0.0000e+00  Tolerance :   1.0000e-07
  Last RMS-Density change    ...    0.0000e+00  Tolerance :   5.0000e-09
  Last DIIS Error            ...    9.7209e-07  Tolerance :   5.0000e-07

             **** THE GBW FILE WAS UPDATED (/home/rudenko/mop_saddle_orca_4_serv/for_orca/m-o2nc6h4chno2ch3_piperazine/orca/start_freq_D/start_f_D.gbw) ****
             **** DENSITY /home/rudenko/mop_saddle_orca_4_serv/for_orca/m-o2nc6h4chno2ch3_piperazine/orca/start_freq_D/start_f_D.scfp WAS UPDATED ****
             **** ENERGY FILE WAS UPDATED (/home/rudenko/mop_saddle_orca_4_serv/for_orca/m-o2nc6h4chno2ch3_piperazine/orca/start_freq_D/start_f_D.en.tmp) ****
----------------------
UHF SPIN CONTAMINATION
----------------------

Warning: in a DFT calculation there is little theoretical justification to 
         calculate <S**2> as in Hartree-Fock theory. We will do it anyways
         but you should keep in mind that the values have only limited relevance

Expectation value of <S**2>     :     0.753733
Ideal value S*(S+1) for S=0.5   :     0.750000
Deviation                       :     0.003733

             **** THE GBW FILE WAS UPDATED (/home/rudenko/mop_saddle_orca_4_serv/for_orca/m-o2nc6h4chno2ch3_piperazine/orca/start_freq_D/start_f_D.gbw) ****
             **** DENSITY /home/rudenko/mop_saddle_orca_4_serv/for_orca/m-o2nc6h4chno2ch3_piperazine/orca/start_freq_D/start_f_D.scfp WAS UPDATED ****
----------------
ORBITAL ENERGIES
----------------
                 SPIN UP ORBITALS
  NO   OCC          E(Eh)            E(eV) 
   0   1.0000     -19.174653      -521.7688 
   1   1.0000     -19.171450      -521.6817 
   2   1.0000     -19.171009      -521.6697 
   3   1.0000     -19.170988      -521.6691 
   4   1.0000     -19.099940      -519.7358 
   5   1.0000     -14.564343      -396.3159 
   6   1.0000     -14.554714      -396.0539 
   7   1.0000     -14.323228      -389.7549 
   8   1.0000     -14.311471      -389.4349 
   9   1.0000     -10.242664      -278.7171 
  10   1.0000     -10.237450      -278.5752 
  11   1.0000     -10.210285      -277.8360 
  12   1.0000     -10.204513      -277.6789 
  13   1.0000     -10.202336      -277.6197 
  14   1.0000     -10.196936      -277.4727 
  15   1.0000     -10.193798      -277.3873 
  16   1.0000     -10.192179      -277.3433 
  17   1.0000     -10.190781      -277.3052 
  18   1.0000     -10.190414      -277.2953 
  19   1.0000     -10.178999      -276.9846 
  20   1.0000     -10.170940      -276.7653 
  21   1.0000      -1.244758       -33.8716 
  22   1.0000      -1.243673       -33.8421 
  23   1.0000      -1.070830       -29.1388 
  24   1.0000      -1.069361       -29.0988 
  25   1.0000      -0.981549       -26.7093 
  26   1.0000      -0.943303       -25.6686 
  27   1.0000      -0.902373       -24.5548 
  28   1.0000      -0.890176       -24.2229 
  29   1.0000      -0.850145       -23.1336 
  30   1.0000      -0.807038       -21.9606 
  31   1.0000      -0.765254       -20.8236 
  32   1.0000      -0.760164       -20.6851 
  33   1.0000      -0.711436       -19.3592 
  34   1.0000      -0.703271       -19.1370 
  35   1.0000      -0.674278       -18.3480 
  36   1.0000      -0.645202       -17.5568 
  37   1.0000      -0.638304       -17.3691 
  38   1.0000      -0.610382       -16.6093 
  39   1.0000      -0.593063       -16.1381 
  40   1.0000      -0.575742       -15.6667 
  41   1.0000      -0.567706       -15.4481 
  42   1.0000      -0.552268       -15.0280 
  43   1.0000      -0.550341       -14.9755 
  44   1.0000      -0.538213       -14.6455 
  45   1.0000      -0.531492       -14.4626 
  46   1.0000      -0.530124       -14.4254 
  47   1.0000      -0.525520       -14.3001 
  48   1.0000      -0.512161       -13.9366 
  49   1.0000      -0.504796       -13.7362 
  50   1.0000      -0.485330       -13.2065 
  51   1.0000      -0.463401       -12.6098 
  52   1.0000      -0.455468       -12.3939 
  53   1.0000      -0.455077       -12.3833 
  54   1.0000      -0.450238       -12.2516 
  55   1.0000      -0.447472       -12.1763 
  56   1.0000      -0.422037       -11.4842 
  57   1.0000      -0.420736       -11.4488 
  58   1.0000      -0.409316       -11.1381 
  59   1.0000      -0.405231       -11.0269 
  60   1.0000      -0.395019       -10.7490 
  61   1.0000      -0.393511       -10.7080 
  62   1.0000      -0.391221       -10.6457 
  63   1.0000      -0.378069       -10.2878 
  64   1.0000      -0.367788       -10.0080 
  65   1.0000      -0.366286        -9.9671 
  66   1.0000      -0.355542        -9.6748 
  67   1.0000      -0.349345        -9.5062 
  68   1.0000      -0.333111        -9.0644 
  69   1.0000      -0.332806        -9.0561 
  70   1.0000      -0.330669        -8.9980 
  71   1.0000      -0.323487        -8.8025 
  72   1.0000      -0.312143        -8.4938 
  73   1.0000      -0.311244        -8.4694 
  74   1.0000      -0.302660        -8.2358 
  75   1.0000      -0.295045        -8.0286 
  76   1.0000      -0.286416        -7.7938 
  77   1.0000      -0.278283        -7.5725 
  78   1.0000      -0.245115        -6.6699 
  79   1.0000      -0.145240        -3.9522 
  80   0.0000      -0.105424        -2.8687 
  81   0.0000      -0.082874        -2.2551 
  82   0.0000      -0.038351        -1.0436 
  83   0.0000      -0.008824        -0.2401 
  84   0.0000       0.028532         0.7764 
  85   0.0000       0.045715         1.2440 
  86   0.0000       0.059207         1.6111 
  87   0.0000       0.061083         1.6621 
  88   0.0000       0.070609         1.9214 
  89   0.0000       0.080393         2.1876 
  90   0.0000       0.084026         2.2865 
  91   0.0000       0.089767         2.4427 
  92   0.0000       0.092800         2.5252 
  93   0.0000       0.094750         2.5783 
  94   0.0000       0.105680         2.8757 
  95   0.0000       0.106305         2.8927 
  96   0.0000       0.114143         3.1060 
  97   0.0000       0.117612         3.2004 
  98   0.0000       0.125909         3.4262 
  99   0.0000       0.126671         3.4469 
 100   0.0000       0.129233         3.5166 
 101   0.0000       0.135009         3.6738 
 102   0.0000       0.140069         3.8115 
 103   0.0000       0.149487         4.0677 
 104   0.0000       0.156774         4.2660 
 105   0.0000       0.163505         4.4492 
 106   0.0000       0.170575         4.6416 
 107   0.0000       0.172769         4.7013 
 108   0.0000       0.175768         4.7829 
 109   0.0000       0.180742         4.9182 
 110   0.0000       0.183929         5.0050 
 111   0.0000       0.191326         5.2062 
 112   0.0000       0.195942         5.3318 
 113   0.0000       0.202746         5.5170 
 114   0.0000       0.208538         5.6746 
 115   0.0000       0.214542         5.8380 
 116   0.0000       0.220632         6.0037 
 117   0.0000       0.222221         6.0469 
 118   0.0000       0.226468         6.1625 
 119   0.0000       0.228126         6.2076 
 120   0.0000       0.233029         6.3411 
 121   0.0000       0.239690         6.5223 
 122   0.0000       0.243908         6.6371 
 123   0.0000       0.245567         6.6822 
 124   0.0000       0.247219         6.7272 
 125   0.0000       0.258396         7.0313 
 126   0.0000       0.265597         7.2273 
 127   0.0000       0.268731         7.3125 
 128   0.0000       0.275637         7.5005 
 129   0.0000       0.282198         7.6790 
 130   0.0000       0.287585         7.8256 
 131   0.0000       0.294388         8.0107 
 132   0.0000       0.302719         8.2374 
 133   0.0000       0.306811         8.3487 
 134   0.0000       0.309460         8.4208 
 135   0.0000       0.311267         8.4700 
 136   0.0000       0.317468         8.6387 
 137   0.0000       0.319645         8.6980 
 138   0.0000       0.325646         8.8613 
 139   0.0000       0.332449         9.0464 
 140   0.0000       0.334207         9.0942 
 141   0.0000       0.342377         9.3166 
 142   0.0000       0.352987         9.6053 
 143   0.0000       0.355256         9.6670 
 144   0.0000       0.355908         9.6847 
 145   0.0000       0.360133         9.7997 
 146   0.0000       0.368742        10.0340 
 147   0.0000       0.372997        10.1498 
 148   0.0000       0.377094        10.2612 
 149   0.0000       0.383728        10.4418 
 150   0.0000       0.386466        10.5163 
 151   0.0000       0.396942        10.8013 
 152   0.0000       0.401773        10.9328 
 153   0.0000       0.407448        11.0872 
 154   0.0000       0.412498        11.2246 
 155   0.0000       0.417585        11.3631 
 156   0.0000       0.420783        11.4501 
 157   0.0000       0.423520        11.5246 
 158   0.0000       0.424508        11.5515 
 159   0.0000       0.426134        11.5957 
 160   0.0000       0.433273        11.7900 
 161   0.0000       0.435080        11.8391 
 162   0.0000       0.441056        12.0018 
 163   0.0000       0.444424        12.0934 
 164   0.0000       0.448428        12.2024 
 165   0.0000       0.450463        12.2577 
 166   0.0000       0.453887        12.3509 
 167   0.0000       0.459412        12.5012 
 168   0.0000       0.466089        12.6829 
 169   0.0000       0.469661        12.7801 
 170   0.0000       0.471759        12.8372 
 171   0.0000       0.475793        12.9470 
 172   0.0000       0.476958        12.9787 
 173   0.0000       0.485662        13.2155 
 174   0.0000       0.494929        13.4677 
 175   0.0000       0.497878        13.5480 
 176   0.0000       0.501445        13.6450 
 177   0.0000       0.502786        13.6815 
 178   0.0000       0.506136        13.7727 
 179   0.0000       0.510773        13.8988 
 180   0.0000       0.515219        14.0198 
 181   0.0000       0.524112        14.2618 
 182   0.0000       0.525788        14.3074 
 183   0.0000       0.528794        14.3892 
 184   0.0000       0.534942        14.5565 
 185   0.0000       0.540069        14.6960 
 186   0.0000       0.549619        14.9559 
 187   0.0000       0.554423        15.0866 
 188   0.0000       0.561554        15.2807 
 189   0.0000       0.565377        15.3847 
 190   0.0000       0.574010        15.6196 
 191   0.0000       0.580293        15.7906 
 192   0.0000       0.593970        16.1627 
 193   0.0000       0.599389        16.3102 
 194   0.0000       0.603436        16.4203 
 195   0.0000       0.610120        16.6022 
 196   0.0000       0.617782        16.8107 
 197   0.0000       0.623731        16.9726 
 198   0.0000       0.631183        17.1754 
 199   0.0000       0.632842        17.2205 
 200   0.0000       0.640532        17.4298 
 201   0.0000       0.642116        17.4729 
 202   0.0000       0.643362        17.5068 
 203   0.0000       0.649769        17.6811 
 204   0.0000       0.659101        17.9351 
 205   0.0000       0.663106        18.0440 
 206   0.0000       0.675484        18.3809 
 207   0.0000       0.680800        18.5255 
 208   0.0000       0.682950        18.5840 
 209   0.0000       0.687136        18.6979 
 210   0.0000       0.709262        19.3000 
 211   0.0000       0.710603        19.3365 
 212   0.0000       0.712905        19.3991 
 213   0.0000       0.723311        19.6823 
 214   0.0000       0.727988        19.8096 
 215   0.0000       0.735567        20.0158 
 216   0.0000       0.739748        20.1296 
 217   0.0000       0.744566        20.2607 
 218   0.0000       0.757408        20.6101 
 219   0.0000       0.761514        20.7219 
 220   0.0000       0.769352        20.9351 
 221   0.0000       0.781371        21.2622 
 222   0.0000       0.786496        21.4016 
 223   0.0000       0.791647        21.5418 
 224   0.0000       0.801631        21.8135 
 225   0.0000       0.812596        22.1118 
 226   0.0000       0.819587        22.3021 
 227   0.0000       0.828594        22.5472 
 228   0.0000       0.832830        22.6625 
 229   0.0000       0.844043        22.9676 
 230   0.0000       0.851172        23.1616 
 231   0.0000       0.854187        23.2436 
 232   0.0000       0.867348        23.6017 
 233   0.0000       0.876302        23.8454 
 234   0.0000       0.881155        23.9774 
 235   0.0000       0.891367        24.2553 
 236   0.0000       0.896119        24.3846 
 237   0.0000       0.907122        24.6841 
 238   0.0000       0.921271        25.0691 
 239   0.0000       0.934392        25.4261 
 240   0.0000       0.936193        25.4751 
 241   0.0000       0.944004        25.6876 
 242   0.0000       0.969684        26.3864 
 243   0.0000       0.973236        26.4831 
 244   0.0000       0.989651        26.9298 
 245   0.0000       0.992666        27.0118 
 246   0.0000       1.004321        27.3290 
 247   0.0000       1.014021        27.5929 
 248   0.0000       1.025322        27.9004 
 249   0.0000       1.030847        28.0508 
 250   0.0000       1.041705        28.3462 
 251   0.0000       1.044086        28.4110 
 252   0.0000       1.054114        28.6839 
 253   0.0000       1.061564        28.8866 
 254   0.0000       1.084918        29.5221 
 255   0.0000       1.086417        29.5629 
 256   0.0000       1.088438        29.6179 
 257   0.0000       1.098198        29.8835 
 258   0.0000       1.101088        29.9621 
 259   0.0000       1.115770        30.3617 
 260   0.0000       1.125087        30.6152 
 261   0.0000       1.127063        30.6689 
 262   0.0000       1.136287        30.9199 
 263   0.0000       1.141054        31.0497 
 264   0.0000       1.153826        31.3972 
 265   0.0000       1.157864        31.5071 
 266   0.0000       1.165888        31.7254 
 267   0.0000       1.170707        31.8566 
 268   0.0000       1.182853        32.1871 
 269   0.0000       1.194014        32.4908 
 270   0.0000       1.209623        32.9155 
 271   0.0000       1.225436        33.3458 
 272   0.0000       1.231041        33.4983 
 273   0.0000       1.237804        33.6824 
 274   0.0000       1.241042        33.7705 
 275   0.0000       1.255311        34.1588 
 276   0.0000       1.263687        34.3867 
 277   0.0000       1.266141        34.4535 
 278   0.0000       1.279853        34.8266 
 279   0.0000       1.280780        34.8518 
 280   0.0000       1.292208        35.1628 
 281   0.0000       1.305250        35.5177 
 282   0.0000       1.316226        35.8163 
 283   0.0000       1.332905        36.2702 
 284   0.0000       1.339851        36.4592 
 285   0.0000       1.355207        36.8770 
 286   0.0000       1.361157        37.0390 
 287   0.0000       1.369986        37.2792 
 288   0.0000       1.376201        37.4483 
 289   0.0000       1.385109        37.6907 
 290   0.0000       1.395090        37.9623 
 291   0.0000       1.402144        38.1543 
 292   0.0000       1.404564        38.2201 
 293   0.0000       1.415179        38.5090 
 294   0.0000       1.429128        38.8885 
 295   0.0000       1.438819        39.1523 
 296   0.0000       1.442101        39.2416 
 297   0.0000       1.447955        39.4009 
 298   0.0000       1.465952        39.8906 
 299   0.0000       1.466974        39.9184 
 300   0.0000       1.472754        40.0757 
 301   0.0000       1.484281        40.3894 
 302   0.0000       1.485649        40.4266 
 303   0.0000       1.496512        40.7222 
 304   0.0000       1.501311        40.8528 
 305   0.0000       1.504485        40.9391 
 306   0.0000       1.506659        40.9983 
 307   0.0000       1.513258        41.1779 
 308   0.0000       1.525533        41.5119 
 309   0.0000       1.535246        41.7762 
 310   0.0000       1.536490        41.8100 
 311   0.0000       1.551335        42.2140 
 312   0.0000       1.557335        42.3772 
 313   0.0000       1.574486        42.8439 
 314   0.0000       1.588773        43.2327 
 315   0.0000       1.592710        43.3398 
 316   0.0000       1.594843        43.3979 
 317   0.0000       1.605252        43.6811 
 318   0.0000       1.610719        43.8299 
 319   0.0000       1.614317        43.9278 
 320   0.0000       1.625783        44.2398 
 321   0.0000       1.630582        44.3704 
 322   0.0000       1.637066        44.5468 
 323   0.0000       1.641842        44.6768 
 324   0.0000       1.646591        44.8060 
 325   0.0000       1.654119        45.0109 
 326   0.0000       1.663643        45.2700 
 327   0.0000       1.665239        45.3135 
 328   0.0000       1.671333        45.4793 
 329   0.0000       1.678652        45.6785 
 330   0.0000       1.691794        46.0361 
 331   0.0000       1.697701        46.1968 
 332   0.0000       1.707448        46.4620 
 333   0.0000       1.710268        46.5387 
 334   0.0000       1.718326        46.7580 
 335   0.0000       1.730488        47.0890 
 336   0.0000       1.737894        47.2905 
 337   0.0000       1.743042        47.4306 
 338   0.0000       1.753133        47.7052 
 339   0.0000       1.764121        48.0042 
 340   0.0000       1.771952        48.2173 
 341   0.0000       1.778328        48.3908 
 342   0.0000       1.784809        48.5671 
 343   0.0000       1.790475        48.7213 
 344   0.0000       1.802481        49.0480 
 345   0.0000       1.811731        49.2997 
 346   0.0000       1.823549        49.6213 
 347   0.0000       1.831877        49.8479 
 348   0.0000       1.837684        50.0059 
 349   0.0000       1.846687        50.2509 
 350   0.0000       1.854946        50.4756 
 351   0.0000       1.864795        50.7436 
 352   0.0000       1.874774        51.0152 
 353   0.0000       1.898520        51.6614 
 354   0.0000       1.909072        51.9485 
 355   0.0000       1.917571        52.1798 
 356   0.0000       1.926044        52.4103 
 357   0.0000       1.940103        52.7929 
 358   0.0000       1.947243        52.9872 
 359   0.0000       1.953725        53.1636 
 360   0.0000       1.954730        53.1909 
 361   0.0000       1.959345        53.3165 
 362   0.0000       1.963239        53.4224 
 363   0.0000       1.970601        53.6228 
 364   0.0000       1.973944        53.7137 
 365   0.0000       1.979236        53.8578 
 366   0.0000       1.996825        54.3364 
 367   0.0000       2.005187        54.5639 
 368   0.0000       2.006323        54.5948 
 369   0.0000       2.029568        55.2274 
 370   0.0000       2.034515        55.3620 
 371   0.0000       2.040384        55.5217 
 372   0.0000       2.049503        55.7698 
 373   0.0000       2.057043        55.9750 
 374   0.0000       2.071125        56.3582 
 375   0.0000       2.076163        56.4953 
 376   0.0000       2.086458        56.7754 
 377   0.0000       2.095009        57.0081 
 378   0.0000       2.106040        57.3083 
 379   0.0000       2.112472        57.4833 
 380   0.0000       2.120300        57.6963 
 381   0.0000       2.123537        57.7844 
 382   0.0000       2.132073        58.0167 
 383   0.0000       2.143978        58.3406 
 384   0.0000       2.147514        58.4368 
 385   0.0000       2.153814        58.6082 
 386   0.0000       2.157831        58.7176 
 387   0.0000       2.161931        58.8291 
 388   0.0000       2.173617        59.1471 
 389   0.0000       2.186117        59.4873 
 390   0.0000       2.198412        59.8218 
 391   0.0000       2.207991        60.0825 
 392   0.0000       2.211373        60.1745 
 393   0.0000       2.218541        60.3696 
 394   0.0000       2.222493        60.4771 
 395   0.0000       2.237007        60.8721 
 396   0.0000       2.246042        61.1179 
 397   0.0000       2.257152        61.4202 
 398   0.0000       2.270616        61.7866 
 399   0.0000       2.274139        61.8825 
 400   0.0000       2.292000        62.3685 
 401   0.0000       2.305922        62.7473 
 402   0.0000       2.320250        63.1372 
 403   0.0000       2.334863        63.5348 
 404   0.0000       2.340901        63.6992 
 405   0.0000       2.349848        63.9426 
 406   0.0000       2.362521        64.2875 
 407   0.0000       2.378043        64.7098 
 408   0.0000       2.384898        64.8964 
 409   0.0000       2.399627        65.2972 
 410   0.0000       2.408591        65.5411 
 411   0.0000       2.424539        65.9750 
 412   0.0000       2.436160        66.2913 
 413   0.0000       2.446745        66.5793 
 414   0.0000       2.451147        66.6991 
 415   0.0000       2.457826        66.8808 
 416   0.0000       2.467218        67.1364 
 417   0.0000       2.473545        67.3086 
 418   0.0000       2.480736        67.5043 
 419   0.0000       2.491081        67.7858 
 420   0.0000       2.501147        68.0597 
 421   0.0000       2.506355        68.2014 
 422   0.0000       2.518411        68.5295 
 423   0.0000       2.520521        68.5869 
 424   0.0000       2.532875        68.9230 
 425   0.0000       2.547258        69.3144 
 426   0.0000       2.557581        69.5953 
 427   0.0000       2.561057        69.6899 
 428   0.0000       2.573106        70.0178 
 429   0.0000       2.579763        70.1989 
 430   0.0000       2.591135        70.5084 
 431   0.0000       2.594474        70.5992 
 432   0.0000       2.602755        70.8246 
 433   0.0000       2.609221        71.0005 
 434   0.0000       2.616776        71.2061 
 435   0.0000       2.624415        71.4140 
 436   0.0000       2.626668        71.4753 
 437   0.0000       2.635555        71.7171 
 438   0.0000       2.639913        71.8357 
 439   0.0000       2.645895        71.9985 
 440   0.0000       2.649952        72.1089 
 441   0.0000       2.665043        72.5195 
 442   0.0000       2.672493        72.7222 
 443   0.0000       2.674786        72.7846 
 444   0.0000       2.678993        72.8991 
 445   0.0000       2.686794        73.1114 
 446   0.0000       2.698572        73.4319 
 447   0.0000       2.699922        73.4686 
 448   0.0000       2.706429        73.6457 
 449   0.0000       2.717310        73.9418 
 450   0.0000       2.718492        73.9739 
 451   0.0000       2.720586        74.0309 
 452   0.0000       2.733753        74.3892 
 453   0.0000       2.741943        74.6121 
 454   0.0000       2.746540        74.7372 
 455   0.0000       2.756898        75.0190 
 456   0.0000       2.761246        75.1373 
 457   0.0000       2.767778        75.3151 
 458   0.0000       2.777193        75.5713 
 459   0.0000       2.783706        75.7485 
 460   0.0000       2.792837        75.9970 
 461   0.0000       2.799265        76.1719 
 462   0.0000       2.808970        76.4360 
 463   0.0000       2.810105        76.4668 
 464   0.0000       2.816220        76.6332 
 465   0.0000       2.828303        76.9620 
 466   0.0000       2.829724        77.0007 
 467   0.0000       2.845720        77.4360 
 468   0.0000       2.855236        77.6949 
 469   0.0000       2.858786        77.7915 
 470   0.0000       2.867427        78.0267 
 471   0.0000       2.870968        78.1230 
 472   0.0000       2.872614        78.1678 
 473   0.0000       2.883287        78.4582 
 474   0.0000       2.907805        79.1254 
 475   0.0000       2.918723        79.4225 
 476   0.0000       2.928500        79.6885 
 477   0.0000       2.943504        80.0968 
 478   0.0000       2.947041        80.1931 
 479   0.0000       2.954843        80.4054 
 480   0.0000       2.958881        80.5153 
 481   0.0000       2.964492        80.6679 
 482   0.0000       2.974254        80.9336 
 483   0.0000       2.993089        81.4461 
 484   0.0000       3.006888        81.8216 
 485   0.0000       3.011573        81.9491 
 486   0.0000       3.022647        82.2504 
 487   0.0000       3.028728        82.4159 
 488   0.0000       3.042047        82.7783 
 489   0.0000       3.049389        82.9781 
 490   0.0000       3.062994        83.3483 
 491   0.0000       3.072632        83.6106 
 492   0.0000       3.077572        83.7450 
 493   0.0000       3.081507        83.8521 
 494   0.0000       3.093299        84.1730 
 495   0.0000       3.098222        84.3069 
 496   0.0000       3.102117        84.4129 
 497   0.0000       3.116620        84.8075 
 498   0.0000       3.118439        84.8570 
 499   0.0000       3.124220        85.0143 
 500   0.0000       3.134547        85.2954 
 501   0.0000       3.137826        85.3846 
 502   0.0000       3.151585        85.7590 
 503   0.0000       3.155588        85.8679 
 504   0.0000       3.166270        86.1586 
 505   0.0000       3.179654        86.5228 
 506   0.0000       3.187175        86.7274 
 507   0.0000       3.193697        86.9049 
 508   0.0000       3.196683        86.9862 
 509   0.0000       3.205084        87.2148 
 510   0.0000       3.209945        87.3471 
 511   0.0000       3.216693        87.5307 
 512   0.0000       3.221462        87.6604 
 513   0.0000       3.226087        87.7863 
 514   0.0000       3.233441        87.9864 
 515   0.0000       3.238263        88.1176 
 516   0.0000       3.249301        88.4180 
 517   0.0000       3.253261        88.5257 
 518   0.0000       3.264312        88.8264 
 519   0.0000       3.269718        88.9736 
 520   0.0000       3.282157        89.3120 
 521   0.0000       3.291005        89.5528 
 522   0.0000       3.295498        89.6751 
 523   0.0000       3.305293        89.9416 
 524   0.0000       3.319558        90.3298 
 525   0.0000       3.320570        90.3573 
 526   0.0000       3.323407        90.4345 
 527   0.0000       3.340894        90.9104 
 528   0.0000       3.355312        91.3027 
 529   0.0000       3.357870        91.3723 
 530   0.0000       3.363129        91.5154 
 531   0.0000       3.371492        91.7430 
 532   0.0000       3.376764        91.8864 
 533   0.0000       3.392253        92.3079 
 534   0.0000       3.400522        92.5329 
 535   0.0000       3.411628        92.8351 
 536   0.0000       3.425479        93.2120 
 537   0.0000       3.435354        93.4807 
 538   0.0000       3.438348        93.5622 
 539   0.0000       3.442339        93.6708 
 540   0.0000       3.448313        93.8334 
 541   0.0000       3.461808        94.2006 
 542   0.0000       3.470138        94.4273 
 543   0.0000       3.487163        94.8905 
 544   0.0000       3.499050        95.2140 
 545   0.0000       3.499931        95.2380 
 546   0.0000       3.516983        95.7020 
 547   0.0000       3.520019        95.7846 
 548   0.0000       3.525674        95.9385 
 549   0.0000       3.537894        96.2710 
 550   0.0000       3.542853        96.4059 
 551   0.0000       3.548976        96.5725 
 552   0.0000       3.586490        97.5934 
 553   0.0000       3.599045        97.9350 
 554   0.0000       3.601206        97.9938 
 555   0.0000       3.624163        98.6185 
 556   0.0000       3.634618        98.9030 
 557   0.0000       3.646508        99.2265 
 558   0.0000       3.650449        99.3338 
 559   0.0000       3.666257        99.7639 
 560   0.0000       3.678998       100.1106 
 561   0.0000       3.700495       100.6956 
 562   0.0000       3.705820       100.8405 
 563   0.0000       3.723732       101.3279 
 564   0.0000       3.738791       101.7377 
 565   0.0000       3.753207       102.1299 
 566   0.0000       3.763899       102.4209 
 567   0.0000       3.774215       102.7016 
 568   0.0000       3.783117       102.9438 
 569   0.0000       3.798632       103.3660 
 570   0.0000       3.809302       103.6564 
 571   0.0000       3.821452       103.9870 
 572   0.0000       3.830070       104.2215 
 573   0.0000       3.832089       104.2765 
 574   0.0000       3.865830       105.1946 
 575   0.0000       3.878903       105.5503 
 576   0.0000       3.896039       106.0166 
 577   0.0000       3.905490       106.2738 
 578   0.0000       3.929512       106.9275 
 579   0.0000       3.938045       107.1597 
 580   0.0000       3.953033       107.5675 
 581   0.0000       3.976342       108.2018 
 582   0.0000       3.979585       108.2900 
 583   0.0000       3.985674       108.4557 
 584   0.0000       3.992741       108.6480 
 585   0.0000       4.002121       108.9033 
 586   0.0000       4.016062       109.2826 
 587   0.0000       4.036849       109.8483 
 588   0.0000       4.046702       110.1163 
 589   0.0000       4.056815       110.3916 
 590   0.0000       4.068947       110.7217 
 591   0.0000       4.071910       110.8023 
 592   0.0000       4.076604       110.9300 
 593   0.0000       4.101214       111.5997 
 594   0.0000       4.114693       111.9665 
 595   0.0000       4.135815       112.5413 
 596   0.0000       4.152607       112.9982 
 597   0.0000       4.168979       113.4437 
 598   0.0000       4.171340       113.5079 
 599   0.0000       4.183669       113.8434 
 600   0.0000       4.187903       113.9586 
 601   0.0000       4.195033       114.1527 
 602   0.0000       4.221591       114.8753 
 603   0.0000       4.224166       114.9454 
 604   0.0000       4.237428       115.3063 
 605   0.0000       4.242028       115.4315 
 606   0.0000       4.249248       115.6279 
 607   0.0000       4.257300       115.8470 
 608   0.0000       4.273873       116.2980 
 609   0.0000       4.284227       116.5797 
 610   0.0000       4.299631       116.9989 
 611   0.0000       4.312529       117.3499 
 612   0.0000       4.323965       117.6611 
 613   0.0000       4.344195       118.2116 
 614   0.0000       4.352560       118.4392 
 615   0.0000       4.408368       119.9578 
 616   0.0000       4.415178       120.1431 
 617   0.0000       4.442285       120.8807 
 618   0.0000       4.466306       121.5344 
 619   0.0000       4.479835       121.9025 
 620   0.0000       4.514809       122.8542 
 621   0.0000       4.517175       122.9186 
 622   0.0000       4.536112       123.4339 
 623   0.0000       4.569778       124.3500 
 624   0.0000       4.582837       124.7053 
 625   0.0000       4.593926       125.0071 
 626   0.0000       4.604727       125.3010 
 627   0.0000       4.619256       125.6963 
 628   0.0000       4.634423       126.1091 
 629   0.0000       4.660341       126.8143 
 630   0.0000       4.670162       127.0816 
 631   0.0000       4.682030       127.4045 
 632   0.0000       4.688280       127.5746 
 633   0.0000       4.704929       128.0276 
 634   0.0000       4.722863       128.5156 
 635   0.0000       4.726868       128.6246 
 636   0.0000       4.732268       128.7716 
 637   0.0000       4.756686       129.4360 
 638   0.0000       4.770969       129.8247 
 639   0.0000       4.775994       129.9614 
 640   0.0000       4.800833       130.6373 
 641   0.0000       4.805130       130.7542 
 642   0.0000       4.814189       131.0007 
 643   0.0000       4.826202       131.3276 
 644   0.0000       4.874927       132.6535 
 645   0.0000       4.878933       132.7625 
 646   0.0000       4.901624       133.3800 
 647   0.0000       4.908397       133.5643 
 648   0.0000       4.924833       134.0115 
 649   0.0000       4.936849       134.3385 
 650   0.0000       4.986058       135.6775 
 651   0.0000       5.013376       136.4209 
 652   0.0000       5.021541       136.6431 
 653   0.0000       5.028138       136.8226 
 654   0.0000       5.061503       137.7305 
 655   0.0000       5.071191       137.9941 
 656   0.0000       5.081227       138.2672 
 657   0.0000       5.086130       138.4006 
 658   0.0000       5.089060       138.4804 
 659   0.0000       5.104662       138.9049 
 660   0.0000       5.112799       139.1263 
 661   0.0000       5.117431       139.2524 
 662   0.0000       5.121504       139.3632 
 663   0.0000       5.129029       139.5680 
 664   0.0000       5.129633       139.5844 
 665   0.0000       5.136576       139.7733 
 666   0.0000       5.149071       140.1133 
 667   0.0000       5.154061       140.2491 
 668   0.0000       5.169355       140.6653 
 669   0.0000       5.179509       140.9416 
 670   0.0000       5.199834       141.4947 
 671   0.0000       5.223359       142.1348 
 672   0.0000       5.243337       142.6784 
 673   0.0000       5.271332       143.4402 
 674   0.0000       5.272874       143.4822 
 675   0.0000       5.278426       143.6333 
 676   0.0000       5.287159       143.8709 
 677   0.0000       5.290861       143.9717 
 678   0.0000       5.323220       144.8522 
 679   0.0000       5.338098       145.2570 
 680   0.0000       5.351675       145.6265 
 681   0.0000       5.371460       146.1649 
 682   0.0000       5.382932       146.4770 
 683   0.0000       5.398294       146.8951 
 684   0.0000       5.403788       147.0446 
 685   0.0000       5.410816       147.2358 
 686   0.0000       5.426343       147.6583 
 687   0.0000       5.438956       148.0015 
 688   0.0000       5.458887       148.5439 
 689   0.0000       5.476418       149.0209 
 690   0.0000       5.492920       149.4699 
 691   0.0000       5.511979       149.9886 
 692   0.0000       5.516415       150.1093 
 693   0.0000       5.548196       150.9741 
 694   0.0000       5.563847       151.4000 
 695   0.0000       5.581321       151.8755 
 696   0.0000       5.597118       152.3053 
 697   0.0000       5.603397       152.4762 
 698   0.0000       5.613860       152.7609 
 699   0.0000       5.622422       152.9939 
 700   0.0000       5.707758       155.3160 
 701   0.0000       5.764718       156.8659 
 702   0.0000       5.808054       158.0452 
 703   0.0000       5.835251       158.7852 
 704   0.0000       5.868942       159.7020 
 705   0.0000       5.955319       162.0525 
 706   0.0000       5.956853       162.0942 
 707   0.0000       6.097937       165.9333 
 708   0.0000       6.219778       169.2488 
 709   0.0000       6.244871       169.9316 
 710   0.0000       6.261545       170.3853 
[...]


-----------
IR SPECTRUM
-----------

 Mode   freq       eps      Int      T**2         TX        TY        TZ
       cm**-1   L/(mol*cm) km/mol    a.u.
----------------------------------------------------------------------------
  7:     13.65   0.000201    1.02  0.004604  ( 0.018092 -0.064199 -0.012454)
  8:     22.03   0.000472    2.38  0.006683  (-0.073937 -0.006468 -0.034266)
  9:     26.61   0.000275    1.39  0.003220  (-0.015992 -0.017804 -0.051456)
 10:     33.43   0.001178    5.95  0.010994  (-0.036600  0.027389  0.094363)
 11:     38.02   0.000818    4.14  0.006718  (-0.017214  0.065086  0.046748)
 12:     47.21   0.000846    4.27  0.005590  (-0.047325  0.036578  0.044858)
 13:     49.30   0.000261    1.32  0.001651  (-0.003521  0.022294  0.033793)
 14:     52.76   0.000322    1.63  0.001902  (-0.028120  0.031394  0.011228)
 15:     62.95   0.000717    3.62  0.003553  (-0.046911  0.003169  0.036632)
 16:     89.18   0.003774   19.07  0.013208  ( 0.061811 -0.089031 -0.038216)
 17:     93.22   0.011467   57.95  0.038387  ( 0.025237 -0.167405 -0.098617)
 18:    143.38   0.000352    1.78  0.000767  ( 0.011171  0.015693  0.019898)
 19:    163.43   0.027261  137.76  0.052053  ( 0.069038 -0.194299 -0.097644)
 20:    180.49   0.001592    8.05  0.002753  ( 0.042308 -0.011011 -0.029012)
 21:    187.88   0.001836    9.28  0.003050  ( 0.040489  0.033459  0.017049)
 22:    229.68   0.000044    0.22  0.000059  (-0.003202  0.006792 -0.001744)
 23:    235.89   0.001017    5.14  0.001346  ( 0.029506 -0.005035  0.021206)
 24:    249.56   0.000068    0.34  0.000085  ( 0.006915 -0.001036  0.005980)
 25:    279.82   0.001109    5.60  0.001236  (-0.014274 -0.020616 -0.024648)
 26:    286.08   0.000155    0.79  0.000170  ( 0.009796  0.001241 -0.008488)
 27:    301.91   0.000350    1.77  0.000362  (-0.008181 -0.010859  0.013296)
 28:    369.95   0.000120    0.60  0.000101  ( 0.004572  0.008913 -0.000788)
 29:    391.65   0.005194   26.25  0.004139  (-0.027257 -0.047255 -0.034098)
 30:    397.99   0.000753    3.81  0.000591  (-0.006934 -0.013688 -0.018848)
 31:    438.15   0.000081    0.41  0.000058  (-0.002479 -0.003114  0.006467)
 32:    450.95   0.022914  115.80  0.015856  (-0.011880  0.122301  0.027528)
 33:    470.97   0.001981   10.01  0.001313  ( 0.008703 -0.009167  0.033958)
 34:    494.07   0.006329   31.98  0.003997  (-0.046333 -0.037474 -0.021126)
 35:    511.19   0.012023   60.76  0.007339  ( 0.057690  0.055285 -0.030903)
 36:    514.05   0.006974   35.24  0.004234  ( 0.055387  0.033862 -0.004406)
 37:    526.95   0.010314   52.12  0.006108  ( 0.056840 -0.052579 -0.010617)
 38:    549.69   0.000898    4.54  0.000510  ( 0.001519 -0.000482 -0.022517)
 39:    586.51   0.002890   14.60  0.001537  ( 0.011733  0.033666 -0.016321)
 40:    634.49   0.003598   18.19  0.001770  ( 0.028381 -0.003149 -0.030894)
 41:    670.96   0.018913   95.58  0.008796  (-0.076632  0.052369 -0.013463)
 42:    689.36   0.001755    8.87  0.000795  ( 0.014396  0.019043  0.014989)
 43:    697.45   0.007452   37.66  0.003334  ( 0.012111  0.035952 -0.043532)
 44:    739.78   0.013247   66.95  0.005588  ( 0.025674 -0.067280  0.020059)
 45:    752.12   0.013080   66.10  0.005427  (-0.013599 -0.029862  0.065957)
 46:    787.28   0.001281    6.47  0.000508  (-0.004334 -0.021724 -0.004133)
 47:    811.53   0.004976   25.15  0.001914  ( 0.006029  0.037331  0.021992)
 48:    825.22   0.007131   36.04  0.002697  (-0.033202 -0.031237 -0.024873)
 49:    835.75   0.002374   11.99  0.000886  (-0.004845 -0.013681  0.025993)
 50:    862.67   0.003739   18.89  0.001353  (-0.021771 -0.001850  0.029582)
 51:    866.44   0.006154   31.10  0.002216  ( 0.010500  0.044185  0.012401)
 52:    884.89   0.004543   22.96  0.001602  (-0.030394 -0.000304  0.026041)
 53:    888.38   0.009524   48.13  0.003346  ( 0.050408  0.008834  0.026957)
 54:    903.36   0.019106   96.56  0.006600  (-0.039588  0.070724  0.005579)
 55:    922.07   0.020545  103.82  0.006953  ( 0.064660 -0.052037 -0.008023)
 56:    926.08   0.004110   20.77  0.001385  (-0.018979 -0.014401 -0.028587)
 57:    941.89   0.003251   16.43  0.001077  (-0.014930 -0.017759  0.023211)
 58:    973.58   0.000312    1.58  0.000100  ( 0.004664 -0.005172  0.007174)
 59:    983.59   0.001084    5.48  0.000344  ( 0.018277  0.002229 -0.002224)
 60:    986.05   0.013705   69.26  0.004337  (-0.058840  0.028014  0.009504)
 61:   1019.08   0.000140    0.71  0.000043  (-0.002677 -0.004674  0.003733)
 62:   1024.95   0.000438    2.22  0.000133  ( 0.006429 -0.007967 -0.005354)
 63:   1055.86   0.001423    7.19  0.000421  (-0.017767 -0.008094  0.006275)
 64:   1058.40   0.002060   10.41  0.000608  ( 0.021437  0.012143  0.000728)
 65:   1091.03   0.010383   52.47  0.002970  (-0.014972  0.045745  0.025556)
 66:   1107.50   0.007076   35.76  0.001994  (-0.016609  0.011103  0.039933)
 67:   1120.12   0.008522   43.07  0.002374  ( 0.027160  0.029393  0.027796)
 68:   1127.86   0.010174   51.41  0.002815  ( 0.026573  0.044850  0.009863)
 69:   1133.01   0.000714    3.61  0.000197  (-0.006152  0.012468  0.001841)
 70:   1134.72   0.004800   24.26  0.001320  (-0.016941  0.017402 -0.027022)
 71:   1154.04   0.004672   23.61  0.001263  (-0.006269 -0.014773 -0.031713)
 72:   1194.06   0.000930    4.70  0.000243  ( 0.007875  0.012614  0.004674)
 73:   1202.49   0.010396   52.53  0.002698  ( 0.026733 -0.017592 -0.040911)
 74:   1220.58   0.002931   14.81  0.000749  (-0.008427  0.006253  0.025281)
 75:   1261.40   0.000607    3.07  0.000150  ( 0.012070  0.001871 -0.000945)
 76:   1267.55   0.002868   14.49  0.000706  ( 0.009286 -0.008702  0.023326)
 77:   1328.47   0.004321   21.84  0.001015  ( 0.012101 -0.029435 -0.001478)
 78:   1333.10   0.002773   14.01  0.000649  (-0.015143 -0.010858 -0.017377)
 79:   1352.97   0.005232   26.44  0.001207  (-0.027855  0.018504  0.009408)
 80:   1355.61   0.002177   11.00  0.000501  (-0.017431  0.000329  0.014044)
 81:   1360.04   0.011297   57.09  0.002592  (-0.012523  0.010305  0.048261)
 82:   1361.80   0.128740  650.60  0.029501  ( 0.033262  0.141060  0.092179)
 83:   1391.69   0.003967   20.05  0.000890  (-0.028906 -0.001101  0.007265)
 84:   1399.85   0.016228   82.01  0.003618  ( 0.049370  0.007038 -0.033625)
 85:   1420.41   0.022623  114.33  0.004970  (-0.035125 -0.040249  0.046005)
 86:   1440.59   0.001060    5.35  0.000230  ( 0.010235 -0.011130  0.000946)
 87:   1461.44   0.000500    2.53  0.000107  ( 0.003095  0.007176  0.006766)
 88:   1465.30   0.006314   31.91  0.001345  (-0.031463 -0.015520 -0.010675)
 89:   1469.32   0.005018   25.36  0.001066  (-0.019692 -0.001312  0.026004)
 90:   1473.40   0.001070    5.41  0.000227  ( 0.006942 -0.011489 -0.006814)
 91:   1482.51   0.004520   22.84  0.000951  ( 0.009528  0.019856  0.021597)
 92:   1484.94   0.001537    7.77  0.000323  ( 0.008041  0.000636 -0.016062)
 93:   1489.14   0.001319    6.66  0.000276  (-0.000008 -0.000652 -0.016611)
 94:   1505.66   0.004353   22.00  0.000902  ( 0.019250  0.000450 -0.023054)
 95:   1510.78   0.019504   98.56  0.004029  (-0.055109  0.029731  0.010380)
 96:   1548.27   0.100823  509.52  0.020322  ( 0.140784 -0.017148  0.014404)
 97:   1560.29   0.131517  664.63  0.026304  ( 0.085837 -0.137601  0.001395)
 98:   1618.98   0.001868    9.44  0.000360  (-0.006771  0.015632  0.008360)
 99:   1646.94   0.020012  101.13  0.003792  (-0.038747  0.015130 -0.045405)
100:   1652.65   0.001076    5.44  0.000203  (-0.014029 -0.001591 -0.001945)
101:   2288.98   0.006960   35.17  0.000949  (-0.003842  0.023185  0.019914)
102:   2912.50   0.022760  115.02  0.002439  ( 0.022167  0.040719 -0.017008)
103:   2955.95   0.025728  130.02  0.002716  ( 0.021033  0.037056 -0.030010)
104:   3041.57   0.134950  681.98  0.013846  (-0.116978 -0.012600 -0.001767)
105:   3054.33   0.049188  248.58  0.005026  (-0.067586 -0.011991 -0.017719)
106:   3055.94   0.250141  1264.11  0.025544  ( 0.149264  0.053064  0.021167)
107:   3076.53   0.019432   98.20  0.001971  ( 0.003604  0.029211  0.033239)
108:   3079.49   0.017069   86.26  0.001730  (-0.040368 -0.007379  0.006756)
109:   3099.79   0.007872   39.78  0.000793  (-0.005031  0.017858 -0.021173)
110:   3121.51   0.003107   15.70  0.000311  ( 0.017316  0.000618 -0.003230)
111:   3136.56   0.003324   16.80  0.000331  ( 0.008128  0.012288  0.010659)
112:   3167.30   0.005883   29.73  0.000580  (-0.001165 -0.000397 -0.024044)
113:   3188.83   0.000908    4.59  0.000089  (-0.003499  0.007141  0.005059)
114:   3201.77   0.000613    3.10  0.000060  (-0.007521  0.001027 -0.001454)
115:   3228.40   0.001613    8.15  0.000156  ( 0.006538 -0.009541 -0.004708)
116:   3232.41   0.000876    4.43  0.000085  ( 0.007023  0.004372  0.004021)
117:   3459.64   0.000296    1.49  0.000027  ( 0.000055  0.005110  0.000745)
118:   3561.90   0.007757   39.20  0.000680  (-0.026063  0.000451 -0.000398)
119:   3810.86   0.013423   67.83  0.001099  (-0.020453 -0.013547  0.022300)

* The epsilon (eps) is given for a Dirac delta lineshape.
** The dipole moment derivative (T) already includes vibrational overlap.

The first frequency considered to be a vibration is 7
The total number of vibrations considered is 113


--------------------------
THERMOCHEMISTRY AT 298.15K
--------------------------

Temperature         ... 298.15 K
Pressure            ... 1.00 atm
Total Mass          ... 300.30 AMU

Throughout the following assumptions are being made:
  (1) The electronic state is orbitally nondegenerate
      but the spin degeneracy is treated
  (2) There are no thermally accessible electronically excited states
  (3) Hindered rotations indicated by low frequency modes are not
      treated as such but are treated as vibrations and this may
      cause some error
  (4) All equations used are the standard statistical mechanics
      equations for an ideal gas
  (5) All vibrations are strictly harmonic

freq.      13.65  E(vib)   ...       0.57 
freq.      22.03  E(vib)   ...       0.56 
freq.      26.61  E(vib)   ...       0.56 
freq.      33.43  E(vib)   ...       0.55 
freq.      38.02  E(vib)   ...       0.54 
freq.      47.21  E(vib)   ...       0.53 
freq.      49.30  E(vib)   ...       0.52 
freq.      52.76  E(vib)   ...       0.52 
freq.      62.95  E(vib)   ...       0.51 
freq.      89.18  E(vib)   ...       0.47 
freq.      93.22  E(vib)   ...       0.47 
freq.     143.38  E(vib)   ...       0.41 
freq.     163.43  E(vib)   ...       0.39 
freq.     180.49  E(vib)   ...       0.37 
freq.     187.88  E(vib)   ...       0.36 
freq.     229.68  E(vib)   ...       0.32 
freq.     235.89  E(vib)   ...       0.32 
freq.     249.56  E(vib)   ...       0.31 
freq.     279.82  E(vib)   ...       0.28 
freq.     286.08  E(vib)   ...       0.27 
freq.     301.91  E(vib)   ...       0.26 
freq.     369.95  E(vib)   ...       0.21 
freq.     391.65  E(vib)   ...       0.20 
freq.     397.99  E(vib)   ...       0.20 
freq.     438.15  E(vib)   ...       0.17 
freq.     450.95  E(vib)   ...       0.17 
freq.     470.97  E(vib)   ...       0.15 
freq.     494.07  E(vib)   ...       0.14 
freq.     511.19  E(vib)   ...       0.14 
freq.     514.05  E(vib)   ...       0.13 
freq.     526.95  E(vib)   ...       0.13 
freq.     549.69  E(vib)   ...       0.12 
freq.     586.51  E(vib)   ...       0.11 
freq.     634.49  E(vib)   ...       0.09 
freq.     670.96  E(vib)   ...       0.08 
freq.     689.36  E(vib)   ...       0.07 
freq.     697.45  E(vib)   ...       0.07 
freq.     739.78  E(vib)   ...       0.06 
freq.     752.12  E(vib)   ...       0.06 
freq.     787.28  E(vib)   ...       0.05 
freq.     811.53  E(vib)   ...       0.05 
freq.     825.22  E(vib)   ...       0.04 
freq.     835.75  E(vib)   ...       0.04 
freq.     862.67  E(vib)   ...       0.04 
freq.     866.44  E(vib)   ...       0.04 
freq.     884.89  E(vib)   ...       0.04 
freq.     888.38  E(vib)   ...       0.04 
freq.     903.36  E(vib)   ...       0.03 
freq.     922.07  E(vib)   ...       0.03 
freq.     926.08  E(vib)   ...       0.03 
freq.     941.89  E(vib)   ...       0.03 
freq.     973.58  E(vib)   ...       0.03 
freq.     983.59  E(vib)   ...       0.02 
freq.     986.05  E(vib)   ...       0.02 
freq.    1019.08  E(vib)   ...       0.02 
freq.    1024.95  E(vib)   ...       0.02 
freq.    1055.86  E(vib)   ...       0.02 
freq.    1058.40  E(vib)   ...       0.02 
freq.    1091.03  E(vib)   ...       0.02 
freq.    1107.50  E(vib)   ...       0.02 
freq.    1120.12  E(vib)   ...       0.01 
freq.    1127.86  E(vib)   ...       0.01 
freq.    1133.01  E(vib)   ...       0.01 
freq.    1134.72  E(vib)   ...       0.01 
freq.    1154.04  E(vib)   ...       0.01 
freq.    1194.06  E(vib)   ...       0.01 
freq.    1202.49  E(vib)   ...       0.01 
freq.    1220.58  E(vib)   ...       0.01 
freq.    1261.40  E(vib)   ...       0.01 
freq.    1267.55  E(vib)   ...       0.01 
freq.    1328.47  E(vib)   ...       0.01 
freq.    1333.10  E(vib)   ...       0.01 
freq.    1352.97  E(vib)   ...       0.01 
freq.    1355.61  E(vib)   ...       0.01 
freq.    1360.04  E(vib)   ...       0.01 
freq.    1361.80  E(vib)   ...       0.01 
freq.    1391.69  E(vib)   ...       0.00 
freq.    1399.85  E(vib)   ...       0.00 
freq.    1420.41  E(vib)   ...       0.00 
freq.    1440.59  E(vib)   ...       0.00 
freq.    1461.44  E(vib)   ...       0.00 
freq.    1465.30  E(vib)   ...       0.00 
freq.    1469.32  E(vib)   ...       0.00 
freq.    1473.40  E(vib)   ...       0.00 
freq.    1482.51  E(vib)   ...       0.00 
freq.    1484.94  E(vib)   ...       0.00 
freq.    1489.14  E(vib)   ...       0.00 
freq.    1505.66  E(vib)   ...       0.00 
freq.    1510.78  E(vib)   ...       0.00 
freq.    1548.27  E(vib)   ...       0.00 
freq.    1560.29  E(vib)   ...       0.00 
freq.    1618.98  E(vib)   ...       0.00 
freq.    1646.94  E(vib)   ...       0.00 
freq.    1652.65  E(vib)   ...       0.00 
freq.    2288.98  E(vib)   ...       0.00 
freq.    2912.50  E(vib)   ...       0.00 
freq.    2955.95  E(vib)   ...       0.00 
freq.    3041.57  E(vib)   ...       0.00 
freq.    3054.33  E(vib)   ...       0.00 
freq.    3055.94  E(vib)   ...       0.00 
freq.    3076.53  E(vib)   ...       0.00 
freq.    3079.49  E(vib)   ...       0.00 
freq.    3099.79  E(vib)   ...       0.00 
freq.    3121.51  E(vib)   ...       0.00 
freq.    3136.56  E(vib)   ...       0.00 
freq.    3167.30  E(vib)   ...       0.00 
freq.    3188.83  E(vib)   ...       0.00 
freq.    3201.77  E(vib)   ...       0.00 
freq.    3228.40  E(vib)   ...       0.00 
freq.    3232.41  E(vib)   ...       0.00 
freq.    3459.64  E(vib)   ...       0.00 
freq.    3561.90  E(vib)   ...       0.00 
freq.    3810.86  E(vib)   ...       0.00 

------------
INNER ENERGY
------------

The inner energy is: U= E(el) + E(ZPE) + E(vib) + E(rot) + E(trans)
    E(el)   - is the total energy from the electronic structure calculation
              = E(kin-el) + E(nuc-el) + E(el-el) + E(nuc-nuc)
    E(ZPE)  - the the zero temperature vibrational energy from the frequency calculation
    E(vib)  - the the finite temperature correction to E(ZPE) due to population
              of excited vibrational states
    E(rot)  - is the rotational thermal energy
    E(trans)- is the translational thermal energy

Summary of contributions to the inner energy U:
Electronic energy                ...  -1063.55055534 Eh
Zero point energy                ...      0.31673955 Eh     198.76 kcal/mol
Thermal vibrational correction   ...      0.01952084 Eh      12.25 kcal/mol
Thermal rotational correction    ...      0.00141627 Eh       0.89 kcal/mol
Thermal translational correction ...      0.00141627 Eh       0.89 kcal/mol
-----------------------------------------------------------------------
Total thermal energy                  -1063.21146240 Eh


Summary of corrections to the electronic energy:
(perhaps to be used in another calculation)
Total thermal correction                  0.02235339 Eh      14.03 kcal/mol
Non-thermal (ZPE) correction              0.31673955 Eh     198.76 kcal/mol
-----------------------------------------------------------------------
Total correction                          0.33909294 Eh     212.78 kcal/mol


--------
ENTHALPY
--------

The enthalpy is H = U + kB*T
                kB is Boltzmann's constant
Total free energy                 ...  -1063.21146240 Eh 
Thermal Enthalpy correction       ...      0.00094421 Eh       0.59 kcal/mol
-----------------------------------------------------------------------
Total Enthalpy                    ...  -1063.21051819 Eh


Note: Only C1 symmetry has been detected, increase convergence thresholds 
      if your molecule has a higher symmetry. Symmetry factor of 1.0 is   
      used for the rotational entropy correction. 
 

Note: Rotational entropy computed according to Herzberg 
Infrared and Raman Spectra, Chapter V,1, Van Nostrand Reinhold, 1945 
Point Group:  C1, Symmetry Number:   1  
Rotational constants in cm-1:     0.022808     0.003885     0.003597 

Vibrational entropy computed according to the QRRHO of S. Grimme
Chem.Eur.J. 2012 18 9955


-------
ENTROPY
-------

The entropy contributions are T*S = T*(S(el)+S(vib)+S(rot)+S(trans))
     S(el)   - electronic entropy
     S(vib)  - vibrational entropy
     S(rot)  - rotational entropy
     S(trans)- translational entropy
The entropies will be listed as multiplied by the temperature to get
units of energy

Electronic entropy                ...      0.00065446 Eh      0.41 kcal/mol
Vibrational entropy               ...      0.03609427 Eh     22.65 kcal/mol
Rotational entropy                ...      0.01657276 Eh     10.40 kcal/mol
Translational entropy             ...      0.02042859 Eh     12.82 kcal/mol
-----------------------------------------------------------------------
Final entropy term                ...      0.07375007 Eh     46.28 kcal/mol

In case the symmetry of your molecule has not been determined correctly
or in case you have a reason to use a different symmetry number we print 
out the resulting rotational entropy values for sn=1,12 :
 --------------------------------------------------------
|  sn= 1 | S(rot)=       0.01657276 Eh     10.40 kcal/mol|
|  sn= 2 | S(rot)=       0.01591831 Eh      9.99 kcal/mol|
|  sn= 3 | S(rot)=       0.01553547 Eh      9.75 kcal/mol|
|  sn= 4 | S(rot)=       0.01526385 Eh      9.58 kcal/mol|
|  sn= 5 | S(rot)=       0.01505316 Eh      9.45 kcal/mol|
|  sn= 6 | S(rot)=       0.01488102 Eh      9.34 kcal/mol|
|  sn= 7 | S(rot)=       0.01473547 Eh      9.25 kcal/mol|
|  sn= 8 | S(rot)=       0.01460939 Eh      9.17 kcal/mol|
|  sn= 9 | S(rot)=       0.01449818 Eh      9.10 kcal/mol|
|  sn=10 | S(rot)=       0.01439870 Eh      9.04 kcal/mol|
|  sn=11 | S(rot)=       0.01430871 Eh      8.98 kcal/mol|
|  sn=12 | S(rot)=       0.01422656 Eh      8.93 kcal/mol|
 --------------------------------------------------------


-------------------
GIBBS FREE ENERGY
-------------------

The Gibbs free energy is G = H - T*S

Total enthalpy                    ...  -1063.21051819 Eh 
Total entropy correction          ...     -0.07375007 Eh    -46.28 kcal/mol
-----------------------------------------------------------------------
Final Gibbs free energy         ...  -1063.28426827 Eh

For completeness - the Gibbs free energy minus the electronic energy
G-E(el)                           ...      0.26628708 Eh    167.10 kcal/mol



Timings for individual modules:

Sum of individual times         ...     7428.323 sec (= 123.805 min)
GTO integral calculation        ...       11.582 sec (=   0.193 min)   0.2 %
SCF iterations                  ...      313.073 sec (=   5.218 min)   4.2 %
SCF Gradient evaluation         ...       45.619 sec (=   0.760 min)   0.6 %
Numerical frequency calculation ...     7058.048 sec (= 117.634 min)  95.0 %
                             ****ORCA TERMINATED NORMALLY****
TOTAL RUN TIME: 0 days 2 hours 0 minutes 49 seconds 34 msec
