
                                 *****************
                                 * O   R   C   A *
                                 *****************

                                            #,                                       
                                            ###                                      
                                            ####                                     
                                            #####                                    
                                            ######                                   
                                           ########,                                 
                                     ,,################,,,,,                         
                               ,,#################################,,                 
                          ,,##########################################,,             
                       ,#########################################, ''#####,          
                    ,#############################################,,   '####,        
                  ,##################################################,,,,####,       
                ,###########''''           ''''###############################       
              ,#####''   ,,,,##########,,,,          '''####'''          '####       
            ,##' ,,,,###########################,,,                        '##       
           ' ,,###''''                  '''############,,,                           
         ,,##''                                '''############,,,,        ,,,,,,###''
      ,#''                                            '''#######################'''  
     '                                                          ''''####''''         
             ,#######,   #######,   ,#######,      ##                                
            ,#'     '#,  ##    ##  ,#'     '#,    #''#        ######   ,####,        
            ##       ##  ##   ,#'  ##            #'  '#       #        #'  '#        
            ##       ##  #######   ##           ,######,      #####,   #    #        
            '#,     ,#'  ##    ##  '#,     ,#' ,#      #,         ##   #,  ,#        
             '#######'   ##     ##  '#######'  #'      '#     #####' # '####'        



                  #######################################################
                  #                        -***-                        #
                  #          Department of theory and spectroscopy      #
                  #    Directorship and core code : Frank Neese         #
                  #        Max Planck Institute fuer Kohlenforschung    #
                  #                Kaiser Wilhelm Platz 1               #
                  #                 D-45470 Muelheim/Ruhr               #
                  #                      Germany                        #
                  #                                                     #
                  #                  All rights reserved                #
                  #                        -***-                        #
                  #######################################################


                         Program Version 5.0.4 -  RELEASE  -


 With contributions from (in alphabetic order):
   Daniel Aravena         : Magnetic Suceptibility
   Michael Atanasov       : Ab Initio Ligand Field Theory (pilot matlab implementation)
   Alexander A. Auer      : GIAO ZORA, VPT2 properties, NMR spectrum
   Ute Becker             : Parallelization
   Giovanni Bistoni       : ED, misc. LED, open-shell LED, HFLD
   Martin Brehm           : Molecular dynamics
   Dmytro Bykov           : SCF Hessian
   Vijay G. Chilkuri      : MRCI spin determinant printing, contributions to CSF-ICE
   Dipayan Datta          : RHF DLPNO-CCSD density
   Achintya Kumar Dutta   : EOM-CC, STEOM-CC
   Dmitry Ganyushin       : Spin-Orbit,Spin-Spin,Magnetic field MRCI
   Miquel Garcia          : C-PCM and meta-GGA Hessian, CC/C-PCM, Gaussian charge scheme
   Yang Guo               : DLPNO-NEVPT2, F12-NEVPT2, CIM, IAO-localization
   Andreas Hansen         : Spin unrestricted coupled pair/coupled cluster methods
   Benjamin Helmich-Paris : MC-RPA, TRAH-SCF, COSX integrals
   Lee Huntington         : MR-EOM, pCC
   Robert Izsak           : Overlap fitted RIJCOSX, COSX-SCS-MP3, EOM
   Marcus Kettner         : VPT2
   Christian Kollmar      : KDIIS, OOCD, Brueckner-CCSD(T), CCSD density, CASPT2, CASPT2-K
   Simone Kossmann        : Meta GGA functionals, TD-DFT gradient, OOMP2, MP2 Hessian
   Martin Krupicka        : Initial AUTO-CI
   Lucas Lang             : DCDCAS
   Marvin Lechner         : AUTO-CI (C++ implementation), FIC-MRCC
   Dagmar Lenk            : GEPOL surface, SMD
   Dimitrios Liakos       : Extrapolation schemes; Compound Job, initial MDCI parallelization
   Dimitrios Manganas     : Further ROCIS development; embedding schemes
   Dimitrios Pantazis     : SARC Basis sets
   Anastasios Papadopoulos: AUTO-CI, single reference methods and gradients
   Taras Petrenko         : DFT Hessian,TD-DFT gradient, ASA, ECA, R-Raman, ABS, FL, XAS/XES, NRVS
   Peter Pinski           : DLPNO-MP2, DLPNO-MP2 Gradient
   Christoph Reimann      : Effective Core Potentials
   Marius Retegan         : Local ZFS, SOC
   Christoph Riplinger    : Optimizer, TS searches, QM/MM, DLPNO-CCSD(T), (RO)-DLPNO pert. Triples
   Tobias Risthaus        : Range-separated hybrids, TD-DFT gradient, RPA, STAB
   Michael Roemelt        : Original ROCIS implementation
   Masaaki Saitow         : Open-shell DLPNO-CCSD energy and density
   Barbara Sandhoefer     : DKH picture change effects
   Avijit Sen             : IP-ROCIS
   Kantharuban Sivalingam : CASSCF convergence, NEVPT2, FIC-MRCI
   Bernardo de Souza      : ESD, SOC TD-DFT
   Georgi Stoychev        : AutoAux, RI-MP2 NMR, DLPNO-MP2 response
   Willem Van den Heuvel  : Paramagnetic NMR
   Boris Wezisla          : Elementary symmetry handling
   Frank Wennmohs         : Technical directorship


 We gratefully acknowledge several colleagues who have allowed us to
 interface, adapt or use parts of their codes:
   Stefan Grimme, W. Hujo, H. Kruse, P. Pracht,  : VdW corrections, initial TS optimization,
                  C. Bannwarth, S. Ehlert          DFT functionals, gCP, sTDA/sTD-DF
   Ed Valeev, F. Pavosevic, A. Kumar             : LibInt (2-el integral package), F12 methods
   Garnet Chan, S. Sharma, J. Yang, R. Olivares  : DMRG
   Ulf Ekstrom                                   : XCFun DFT Library
   Mihaly Kallay                                 : mrcc  (arbitrary order and MRCC methods)
   Jiri Pittner, Ondrej Demel                    : Mk-CCSD
   Frank Weinhold                                : gennbo (NPA and NBO analysis)
   Christopher J. Cramer and Donald G. Truhlar   : smd solvation model
   Lars Goerigk                                  : TD-DFT with DH, B97 family of functionals
   V. Asgeirsson, H. Jonsson                     : NEB implementation
   FAccTs GmbH                                   : IRC, NEB, NEB-TS, DLPNO-Multilevel, CI-OPT
                                                   MM, QMMM, 2- and 3-layer-ONIOM, Crystal-QMMM,
                                                   LR-CPCM, SF, NACMEs, symmetry and pop. for TD-DFT,
                                                   nearIR, NL-DFT gradient (VV10), updates on ESD,
                                                   ML-optimized integration grids
   S Lehtola, MJT Oliveira, MAL Marques          : LibXC Library
   Liviu Ungur et al                             : ANISO software


 Your calculation uses the libint2 library for the computation of 2-el integrals
 For citations please refer to: http://libint.valeyev.net

 Your ORCA version has been built with support for libXC version: 5.1.0
 For citations please refer to: https://tddft.org/programs/libxc/

 This ORCA versions uses:
   CBLAS   interface :  Fast vector & matrix operations
   LAPACKE interface :  Fast linear algebra routines
   SCALAPACK package :  Parallel linear algebra routines
   Shared memory     :  Shared parallel matrices
   BLAS/LAPACK       :  OpenBLAS 0.3.15  USE64BITINT DYNAMIC_ARCH NO_AFFINITY Prescott SINGLE_THREADED
        Core in use  :  Prescott
   Copyright (c) 2011-2014, The OpenBLAS Project


Your calculation utilizes the atom-pairwise dispersion correction
with the Becke-Johnson damping scheme (D3BJ)
Cite in your paper:
S.Grimme, S.Ehrlich, L.Goerigk, J Comput Chem, (2011), 32, 1456–1465 
S.Grimme, J.Antony, S.Ehrlich and H.Krieg, J.Chem.Phys., 132, (2010), 154104 
   

================================================================================

----- Orbital basis set information -----
Your calculation utilizes the basis: def2-TZVP
   F. Weigend and R. Ahlrichs, Phys. Chem. Chem. Phys. 7, 3297 (2005).

----- AuxJ basis set information -----
Your calculation utilizes the auxiliary basis: def2/J
   F. Weigend, Phys. Chem. Chem. Phys. 8, 1057 (2006).

================================================================================
                                        WARNINGS
                       Please study these warnings very carefully!
================================================================================

WARNING: Gradients needed for Numerical Frequencies
  ===> : Setting RunTyp to EnGrad

INFO   : the flag for use of the SHARK integral package has been found!

================================================================================
                                       INPUT FILE
================================================================================
NAME = /home/rudenko/mop_saddle_orca_4_serv/for_orca/mcl-morpholine/orca/start_freq_D/start_f_D.inp
|  1> !  NUMFREQ B3LYP def2-TZVP CPCM D3 
|  2> %pal nprocs 102 end
|  3> %cpcm epsilon 78.4 end 
|  4> *xyz 0 1 
|  5> C   1.91590610834929 2.4466790286102 3.06360207221881
|  6> C   1.83437898866437 1.05940621377929 3.02039215102569
|  7> C   1.10966306766904 0.43488998564079 2.0091551176576
|  8> C   0.46862030263943 1.20238291788308 1.03733663901476
|  9> C   0.57530604195674 2.58317245901569 1.09121214014026
| 10> C   1.29052404610454 3.2222842799732 2.09609097152783
| 11> H   2.47861269934489 2.92887279569789 3.85233485365567
| 12> H   2.3386323408879 0.46118741182478 3.76790545305342
| 13> H   -0.10300048173437 0.73649359003506 0.24585542243766
| 14> Cl   -0.21640479945331 3.54520297776748 -0.13927763766602
| 15> H   1.35576947630731 4.3011636909866 2.11711434711003
| 16> C   0.98667945528309 -1.07224654531049 2.00329774411727
| 17> C   -0.41227526958926 -1.58200450855177 2.2852650662888
| 18> H   -0.4453623364569 -2.6703151175657 2.24499146473694
| 19> H   -1.1351497909728 -1.17343580475886 1.58140706566103
| 20> H   -0.6858470093982 -1.26090722109581 3.29081446616662
| 21> N   1.49038054043537 -1.58340703289882 0.64651099548132
| 22> O   2.6975482925112 -1.55098366917555 0.45911249318232
| 23> O   0.68362176236212 -1.97503662166446 -0.17506691321333
| 24> N   5.02174335565843 -0.35027032597264 2.20505671613472
| 25> C   6.08607445778077 -1.26281778566513 1.76874719104968
| 26> C   7.32088606440457 -1.02863579250783 2.62085126284908
| 27> O   7.75117947408599 0.33101171603101 2.54292311004462
| 28> C   6.71480554988436 1.2264730166069 2.94909201466279
| 29> C   5.46906498905957 1.04279238359735 2.1007394955081
| 30> H   4.67978635584874 1.70767936570402 2.4535259260506
| 31> H   5.70142620382948 1.31335996207626 1.06058649087438
| 32> H   7.11272763034234 2.2350050431712 2.83995918317207
| 33> H   6.47300690584361 1.05120259552811 4.00559589334534
| 34> H   8.15302750162311 -1.63986470122953 2.27207025348218
| 35> H   7.10576604653022 -1.28414114320019 3.66651140514812
| 36> H   6.34247952444548 -1.10406025491711 0.71193828478245
| 37> H   1.70706645378517 -1.48928476220721 2.70329070088838 M = 2
| 38> H   4.1988633898255 -0.49579670752279 1.62957910059099
| 39> H   5.74558748730894 -2.29296583514373 1.88788101648128
| 40> H   3.42347693999979 -1.69918450556506 4.62676312476173
| 41> H   4.44342939912268 -0.81098989772794 3.85806057579165
| 42> O   4.13815883571016 -1.06794120124836 4.77085434178472
| 43> *
| 44> 
| 45>                          ****END OF INPUT****
================================================================================

                     *******************************
                     * Energy+Gradient Calculation *
                     *******************************

---------------------------------
CARTESIAN COORDINATES (ANGSTROEM)
---------------------------------
  C      1.915906    2.446679    3.063602
  C      1.834379    1.059406    3.020392
  C      1.109663    0.434890    2.009155
  C      0.468620    1.202383    1.037337
  C      0.575306    2.583172    1.091212
  C      1.290524    3.222284    2.096091
  H      2.478613    2.928873    3.852335
  H      2.338632    0.461187    3.767905
  H     -0.103000    0.736494    0.245855
  Cl    -0.216405    3.545203   -0.139278
  H      1.355769    4.301164    2.117114
  C      0.986679   -1.072247    2.003298
  C     -0.412275   -1.582005    2.285265
  H     -0.445362   -2.670315    2.244991
  H     -1.135150   -1.173436    1.581407
  H     -0.685847   -1.260907    3.290814
  N      1.490381   -1.583407    0.646511
  O      2.697548   -1.550984    0.459112
  O      0.683622   -1.975037   -0.175067
  N      5.021743   -0.350270    2.205057
  C      6.086074   -1.262818    1.768747
  C      7.320886   -1.028636    2.620851
  O      7.751179    0.331012    2.542923
  C      6.714806    1.226473    2.949092
  C      5.469065    1.042792    2.100739
  H      4.679786    1.707679    2.453526
  H      5.701426    1.313360    1.060586
  H      7.112728    2.235005    2.839959
  H      6.473007    1.051203    4.005596
  H      8.153028   -1.639865    2.272070
  H      7.105766   -1.284141    3.666511
  H      6.342480   -1.104060    0.711938
  H      1.707066   -1.489285    2.703291
  H      4.198863   -0.495797    1.629579
  H      5.745587   -2.292966    1.887881
  H      3.423477   -1.699185    4.626763
  H      4.443429   -0.810990    3.858061
  O      4.138159   -1.067941    4.770854

----------------------------
CARTESIAN COORDINATES (A.U.)
----------------------------
  NO LB      ZA    FRAG     MASS         X           Y           Z
   0 C     6.0000    0    12.011    3.620538    4.623553    5.789369
   1 C     6.0000    0    12.011    3.466474    2.001988    5.707714
   2 C     6.0000    0    12.011    2.096959    0.821823    3.796753
   3 C     6.0000    0    12.011    0.885564    2.272174    1.960282
   4 C     6.0000    0    12.011    1.087171    4.881489    2.062092
   5 C     6.0000    0    12.011    2.438737    6.089235    3.961038
   6 H     1.0000    0     1.008    4.683899    5.534767    7.279858
   7 H     1.0000    0     1.008    4.419375    0.871518    7.120309
   8 H     1.0000    0     1.008   -0.194643    1.391771    0.464599
   9 Cl   17.0000    0    35.453   -0.408946    6.699463   -0.263197
  10 H     1.0000    0     1.008    2.562033    8.128021    4.000766
  11 C     6.0000    0    12.011    1.864554   -2.026252    3.785684
  12 C     6.0000    0    12.011   -0.779087   -2.989555    4.318525
  13 H     1.0000    0     1.008   -0.841613   -5.046164    4.242419
  14 H     1.0000    0     1.008   -2.145122   -2.217472    2.988426
  15 H     1.0000    0     1.008   -1.296063   -2.382769    6.218738
  16 N     7.0000    0    14.007    2.816411   -2.992206    1.221729
  17 O     8.0000    0    15.999    5.097628   -2.930934    0.867597
  18 O     8.0000    0    15.999    1.291858   -3.732278   -0.330829
  19 N     7.0000    0    14.007    9.489720   -0.661915    4.166953
  20 C     6.0000    0    12.011   11.501014   -2.386380    3.342448
  21 C     6.0000    0    12.011   13.834470   -1.943840    4.952691
  22 O     8.0000    0    15.999   14.647606    0.625521    4.805428
  23 C     6.0000    0    12.011   12.689144    2.317698    5.572976
  24 C     6.0000    0    12.011   10.335035    1.970592    3.969822
  25 H     1.0000    0     1.008    8.843515    3.227046    4.636492
  26 H     1.0000    0     1.008   10.774134    2.481891    2.004218
  27 H     1.0000    0     1.008   13.441107    4.223547    5.366745
  28 H     1.0000    0     1.008   12.232210    1.986485    7.569479
  29 H     1.0000    0     1.008   15.406989   -3.098895    4.293591
  30 H     1.0000    0     1.008   13.427952   -2.426675    6.928702
  31 H     1.0000    0     1.008   11.985549   -2.086372    1.345368
  32 H     1.0000    0     2.000    3.225888   -2.814340    5.108479
  33 H     1.0000    0     1.008    7.934702   -0.936920    3.079458
  34 H     1.0000    0     1.008   10.857587   -4.333077    3.567578
  35 H     1.0000    0     1.008    6.469434   -3.210993    8.743315
  36 H     1.0000    0     1.008    8.396865   -1.532549    7.290678
  37 O     8.0000    0    15.999    7.819987   -2.018116    9.015608

--------------------------------
INTERNAL COORDINATES (ANGSTROEM)
--------------------------------
 C      0   0   0     0.000000000000     0.00000000     0.00000000
 C      1   0   0     1.390337955787     0.00000000     0.00000000
 C      2   1   0     1.392061070143   120.04910575     0.00000000
 C      3   2   1     1.394421881308   119.91281046     0.17909153
 C      4   3   2     1.385952442725   119.06966967     0.52364367
 C      1   2   3     1.388792266568   120.60969177   359.33186187
 H      1   2   3     1.082242550023   119.84841299   179.88137426
 H      2   1   3     1.082087480266   120.18701544   179.60137730
 H      4   3   2     1.081778952987   121.05009822   180.27056067
 Cl     5   4   3     1.751117891149   119.02666227   179.37343658
 H      6   1   2     1.081054916270   121.10615163   180.53058729
 C      3   2   1     1.512157333305   119.49135152   182.24976747
 C     12   3   2     1.515398651875   114.18148291   111.78496244
 H     13  12   3     1.089558029050   110.92567289   178.65623006
 H     13  12   3     1.088527466090   111.49885777    56.56254511
 H     13  12   3     1.090446954431   107.70588232   297.49679960
 N     12   3   2     1.534884395819   107.97831582   235.51627970
 O     17  12   3     1.222057058746   116.80067116    73.20205920
 O     17  12   3     1.216233415447   119.12270392   254.12579020
 N     18  17  12     3.145141722366   130.91800726   353.90425659
 C     20  18  17     1.468301591233    97.66848432   151.43278849
 C     21  20  18     1.518447318464   109.07879288   187.90338585
 O     22  21  20     1.428238972613   111.17382224   302.62428820
 C     23  22  21     1.428598974756   111.26215096    57.67306786
 C     20  18  17     1.466834155255   123.26044018   271.98399738
 H     25  20  18     1.090639136192   109.58917229    67.11437070
 H     25  20  18     1.099598482039   111.43218460   307.64693893
 H     24  23  22     1.089673715215   106.66322584   181.24478747
 H     24  23  22     1.097901065869   109.46908347    63.52562778
 H     22  21  20     1.089820325966   110.78363198   184.22961987
 H     22  21  20     1.097708859177   109.83401797    63.88193973
 H     21  20  18     1.098996167485   111.41279981    67.37286563
 H     12   3   2     1.087597554931   109.01481882   346.66378566
 H     20  18  17     1.014634836721    14.31986282   296.47899374
 H     21  20  18     1.091480301823   109.14851798   307.81565021
 H      8   2   1     2.565488477059   153.36189705   203.43597488
 H     36   8   2     1.555665866777    68.34832749    87.02057776
 O     36   8   2     0.964365387249    79.17516158   125.31494877

---------------------------
INTERNAL COORDINATES (A.U.)
---------------------------
 C      0   0   0     0.000000000000     0.00000000     0.00000000
 C      1   0   0     2.627357970034     0.00000000     0.00000000
 C      2   1   0     2.630614184264   120.04910575     0.00000000
 C      3   2   1     2.635075470819   119.91281046     0.17909153
 C      4   3   2     2.619070551390   119.06966967     0.52364367
 C      1   2   3     2.624437040722   120.60969177   359.33186187
 H      1   2   3     2.045142030021   119.84841299   179.88137426
 H      2   1   3     2.044848990648   120.18701544   179.60137730
 H      4   3   2     2.044265958585   121.05009822   180.27056067
 Cl     5   4   3     3.309133242481   119.02666227   179.37343658
 H      6   1   2     2.042897727480   121.10615163   180.53058729
 C      3   2   1     2.857563231347   119.49135152   182.24976747
 C     12   3   2     2.863688435756   114.18148291   111.78496244
 H     13  12   3     2.058966281920   110.92567289   178.65623006
 H     13  12   3     2.057018800161   111.49885777    56.56254511
 H     13  12   3     2.060646107444   107.70588232   297.49679960
 N     12   3   2     2.900511155327   107.97831582   235.51627970
 O     17  12   3     2.309353161055   116.80067116    73.20205920
 O     17  12   3     2.298348070119   119.12270392   254.12579020
 N     18  17  12     5.943456507640   130.91800726   353.90425659
 C     20  18  17     2.774687889430    97.66848432   151.43278849
 C     21  20  18     2.869449580683   109.07879288   187.90338585
 O     22  21  20     2.698980512032   111.17382224   302.62428820
 C     23  22  21     2.699660817489   111.26215096    57.67306786
 C     20  18  17     2.771914837314   123.26044018   271.98399738
 H     25  20  18     2.061009278339   109.58917229    67.11437070
 H     25  20  18     2.077939988329   111.43218460   307.64693893
 H     24  23  22     2.059184897089   106.66322584   181.24478747
 H     24  23  22     2.074732336633   109.46908347    63.52562778
 H     22  21  20     2.059461951256   110.78363198   184.22961987
 H     22  21  20     2.074369118624   109.83401797    63.88193973
 H     21  20  18     2.076801778775   111.41279981    67.37286563
 H     12   3   2     2.055261522742   109.01481882   346.66378566
 H     20  18  17     1.917381967339    14.31986282   296.47899374
 H     21  20  18     2.062598851015   109.14851798   307.81565021
 H      8   2   1     4.848070621372   153.36189705   203.43597488
 H     36   8   2     2.939782444098    68.34832749    87.02057776
 O     36   8   2     1.822386474934    79.17516158   125.31494877

---------------------
BASIS SET INFORMATION
---------------------
There are 5 groups of distinct atoms

 Group   1 Type C   : 11s6p2d1f contracted to 5s3p2d1f pattern {62111/411/11/1}
 Group   2 Type H   : 5s1p contracted to 3s1p pattern {311/1}
 Group   3 Type Cl  : 14s9p3d1f contracted to 5s5p2d1f pattern {73211/51111/21/1}
 Group   4 Type N   : 11s6p2d1f contracted to 5s3p2d1f pattern {62111/411/11/1}
 Group   5 Type O   : 11s6p2d1f contracted to 5s3p2d1f pattern {62111/411/11/1}

Atom   0C    basis set group =>   1
Atom   1C    basis set group =>   1
Atom   2C    basis set group =>   1
Atom   3C    basis set group =>   1
Atom   4C    basis set group =>   1
Atom   5C    basis set group =>   1
Atom   6H    basis set group =>   2
Atom   7H    basis set group =>   2
Atom   8H    basis set group =>   2
Atom   9Cl   basis set group =>   3
Atom  10H    basis set group =>   2
Atom  11C    basis set group =>   1
Atom  12C    basis set group =>   1
Atom  13H    basis set group =>   2
Atom  14H    basis set group =>   2
Atom  15H    basis set group =>   2
Atom  16N    basis set group =>   4
Atom  17O    basis set group =>   5
Atom  18O    basis set group =>   5
Atom  19N    basis set group =>   4
Atom  20C    basis set group =>   1
Atom  21C    basis set group =>   1
Atom  22O    basis set group =>   5
Atom  23C    basis set group =>   1
Atom  24C    basis set group =>   1
Atom  25H    basis set group =>   2
Atom  26H    basis set group =>   2
Atom  27H    basis set group =>   2
Atom  28H    basis set group =>   2
Atom  29H    basis set group =>   2
Atom  30H    basis set group =>   2
Atom  31H    basis set group =>   2
Atom  32H    basis set group =>   2
Atom  33H    basis set group =>   2
Atom  34H    basis set group =>   2
Atom  35H    basis set group =>   2
Atom  36H    basis set group =>   2
Atom  37O    basis set group =>   5
---------------------------------
AUXILIARY/J BASIS SET INFORMATION
---------------------------------
There are 5 groups of distinct atoms

 Group   1 Type C   : 12s5p4d2f1g contracted to 6s4p3d1f1g pattern {711111/2111/211/2/1}
 Group   2 Type H   : 5s2p1d contracted to 3s1p1d pattern {311/2/1}
 Group   3 Type Cl  : 14s5p5d2f1g contracted to 8s4p3d1f1g pattern {71111111/2111/311/2/1}
 Group   4 Type N   : 12s5p4d2f1g contracted to 6s4p3d1f1g pattern {711111/2111/211/2/1}
 Group   5 Type O   : 12s5p4d2f1g contracted to 6s4p3d1f1g pattern {711111/2111/211/2/1}

Atom   0C    basis set group =>   1
Atom   1C    basis set group =>   1
Atom   2C    basis set group =>   1
Atom   3C    basis set group =>   1
Atom   4C    basis set group =>   1
Atom   5C    basis set group =>   1
Atom   6H    basis set group =>   2
Atom   7H    basis set group =>   2
Atom   8H    basis set group =>   2
Atom   9Cl   basis set group =>   3
Atom  10H    basis set group =>   2
Atom  11C    basis set group =>   1
Atom  12C    basis set group =>   1
Atom  13H    basis set group =>   2
Atom  14H    basis set group =>   2
Atom  15H    basis set group =>   2
Atom  16N    basis set group =>   4
Atom  17O    basis set group =>   5
Atom  18O    basis set group =>   5
Atom  19N    basis set group =>   4
Atom  20C    basis set group =>   1
Atom  21C    basis set group =>   1
Atom  22O    basis set group =>   5
Atom  23C    basis set group =>   1
Atom  24C    basis set group =>   1
Atom  25H    basis set group =>   2
Atom  26H    basis set group =>   2
Atom  27H    basis set group =>   2
Atom  28H    basis set group =>   2
Atom  29H    basis set group =>   2
Atom  30H    basis set group =>   2
Atom  31H    basis set group =>   2
Atom  32H    basis set group =>   2
Atom  33H    basis set group =>   2
Atom  34H    basis set group =>   2
Atom  35H    basis set group =>   2
Atom  36H    basis set group =>   2
Atom  37O    basis set group =>   5


           ************************************************************
           *        Program running with 102 parallel MPI-processes   *
           *              working on a common directory               *
           ************************************************************
------------------------------------------------------------------------------
                           ORCA GTO INTEGRAL CALCULATION
                           -- RI-GTO INTEGRALS CHOSEN --
------------------------------------------------------------------------------
------------------------------------------------------------------------------
                   ___                                                        
                  /   \      - P O W E R E D   B Y -                         
                 /     \                                                     
                 |  |  |   _    _      __       _____    __    __             
                 |  |  |  | |  | |    /  \     |  _  \  |  |  /  |          
                  \  \/   | |  | |   /    \    | | | |  |  | /  /          
                 / \  \   | |__| |  /  /\  \   | |_| |  |  |/  /          
                |  |  |   |  __  | /  /__\  \  |    /   |      \           
                |  |  |   | |  | | |   __   |  |    \   |  |\   \          
                \     /   | |  | | |  |  |  |  | |\  \  |  | \   \       
                 \___/    |_|  |_| |__|  |__|  |_| \__\ |__|  \__/        
                                                                              
                      - O R C A' S   B I G   F R I E N D -                    
                                      &                                       
                       - I N T E G R A L  F E E D E R -                       
                                                                              
 v1 FN, 2020, v2 2021                                                         
------------------------------------------------------------------------------


Reading SHARK input file /home/rudenko/mop_saddle_orca_4_serv/for_orca/mcl-morpholine/orca/start_freq_D/start_f_D.SHARKINP.tmp ... ok
----------------------
SHARK INTEGRAL PACKAGE
----------------------

Number of atoms                             ...     38
Number of basis functions                   ...    709
Number of shells                            ...    287
Maximum angular momentum                    ...      3
Integral batch strategy                     ... SHARK/LIBINT Hybrid
RI-J (if used) integral strategy            ... SPLIT-RIJ (Revised 2003 algorithm where possible)
Printlevel                                  ...      1
Contraction scheme used                     ... SEGMENTED contraction
Coulomb Range Separation                    ... NOT USED
Exchange Range Separation                   ... NOT USED
Finite Nucleus Model                        ... NOT USED
Auxiliary Coulomb fitting basis             ... AVAILABLE
   # of basis functions in Aux-J            ...   1142
   # of shells in Aux-J                     ...    382
   Maximum angular momentum in Aux-J        ...      4
Auxiliary J/K fitting basis                 ... NOT available
Auxiliary Correlation fitting basis         ... NOT available
Auxiliary 'external' fitting basis          ... NOT available
Integral threshold                          ...     2.500000e-11
Primitive cut-off                           ...     2.500000e-12
Primitive pair pre-selection threshold      ...     2.500000e-12

Calculating pre-screening integrals         ... done (  0.1 sec) Dimension = 287
Organizing shell pair data                  ... done (  1.0 sec)
Shell pair information
Total number of shell pairs                 ...     41328
Shell pairs after pre-screening             ...     29532
Total number of primitive shell pairs       ...    126240
Primitive shell pairs kept                  ...     59844
          la=0 lb=0:   8260 shell pairs
          la=1 lb=0:   8765 shell pairs
          la=1 lb=1:   2383 shell pairs
          la=2 lb=0:   4002 shell pairs
          la=2 lb=1:   2144 shell pairs
          la=2 lb=2:    500 shell pairs
          la=3 lb=0:   1877 shell pairs
          la=3 lb=1:   1030 shell pairs
          la=3 lb=2:    458 shell pairs
          la=3 lb=3:    113 shell pairs

Calculating one electron integrals          ... done (  0.2 sec)
Calculating RI/J V-Matrix + Cholesky decomp.... done (  0.2 sec)
Calculating Nuclear repulsion               ... done (  0.0 sec) ENN=   1621.673371859191 Eh

SHARK setup successfully completed in   2.7 seconds

Maximum memory used throughout the entire GTOINT-calculation: 45.3 MB


           ************************************************************
           *        Program running with 102 parallel MPI-processes   *
           *              working on a common directory               *
           ************************************************************
-------------------------------------------------------------------------------
                                 ORCA SCF
-------------------------------------------------------------------------------

------------
SCF SETTINGS
------------
Hamiltonian:
 Density Functional     Method          .... DFT(GTOs)
 Exchange Functional    Exchange        .... B88
   X-Alpha parameter    XAlpha          ....  0.666667
   Becke's b parameter  XBeta           ....  0.004200
 Correlation Functional Correlation     .... LYP
 LDA part of GGA corr.  LDAOpt          .... VWN-5
 Gradients option       PostSCFGGA      .... off
 Hybrid DFT is turned on
   Fraction HF Exchange ScalHFX         ....  0.200000
   Scaling of DF-GGA-X  ScalDFX         ....  0.720000
   Scaling of DF-GGA-C  ScalDFC         ....  0.810000
   Scaling of DF-LDA-C  ScalLDAC        ....  1.000000
   Perturbative correction              ....  0.000000
   Density functional embedding theory  .... OFF
   NL short-range parameter             ....  4.800000
 RI-approximation to the Coulomb term is turned on
   Number of AuxJ basis functions       .... 1142
   RIJ-COSX (HFX calculated with COS-X)).... on


General Settings:
 Integral files         IntName         .... /home/rudenko/mop_saddle_orca_4_serv/for_orca/mcl-morpholine/orca/start_freq_D/start_f_D
 Hartree-Fock type      HFTyp           .... RHF
 Total Charge           Charge          ....    0
 Multiplicity           Mult            ....    1
 Number of Electrons    NEL             ....  154
 Basis Dimension        Dim             ....  709
 Nuclear Repulsion      ENuc            ....   1621.6733718592 Eh

Convergence Acceleration:
 DIIS                   CNVDIIS         .... on
   Start iteration      DIISMaxIt       ....    12
   Startup error        DIISStart       ....  0.200000
   # of expansion vecs  DIISMaxEq       ....     5
   Bias factor          DIISBfac        ....   1.050
   Max. coefficient     DIISMaxC        ....  10.000
 Trust-Rad. Augm. Hess. CNVTRAH         .... auto
   Auto Start mean grad. ratio tolernc. ....  1.125000
   Auto Start start iteration           ....    20
   Auto Start num. interpolation iter.  ....    10
   Max. Number of Micro iterations      ....    16
   Max. Number of Macro iterations      .... Maxiter - #DIIS iter
   Number of Davidson start vectors     ....     2
   Converg. threshold I  (grad. norm)   ....   1.000e-05
   Converg. threshold II (energy diff.) ....   1.000e-08
   Grad. Scal. Fac. for Micro threshold ....   0.100
   Minimum threshold for Micro iter.    ....   0.010
   NR start threshold (gradient norm)   ....   0.001
   Initial trust radius                 ....   0.400
   Minimum AH scaling param. (alpha)    ....   1.000
   Maximum AH scaling param. (alpha)    .... 1000.000
   Orbital update algorithm             .... Taylor
   White noise on init. David. guess    .... on
   Maximum white noise                  ....   0.010
   Quad. conv. algorithm                .... NR
 SOSCF                  CNVSOSCF        .... on
   Start iteration      SOSCFMaxIt      ....   150
   Startup grad/error   SOSCFStart      ....  0.003300
 Level Shifting         CNVShift        .... on
   Level shift para.    LevelShift      ....    0.2500
   Turn off err/grad.   ShiftErr        ....    0.0010
 Zerner damping         CNVZerner       .... off
 Static damping         CNVDamp         .... on
   Fraction old density DampFac         ....    0.7000
   Max. Damping (<1)    DampMax         ....    0.9800
   Min. Damping (>=0)   DampMin         ....    0.0000
   Turn off err/grad.   DampErr         ....    0.1000
 Fernandez-Rico         CNVRico         .... off

SCF Procedure:
 Maximum # iterations   MaxIter         ....   125
 SCF integral mode      SCFMode         .... Direct
   Integral package                     .... SHARK and LIBINT hybrid scheme
 Reset frequency        DirectResetFreq ....    20
 Integral Threshold     Thresh          ....  2.500e-11 Eh
 Primitive CutOff       TCut            ....  2.500e-12 Eh

Convergence Tolerance:
 Convergence Check Mode ConvCheckMode   .... Total+1el-Energy
 Convergence forced     ConvForced      .... 0
 Energy Change          TolE            ....  1.000e-08 Eh
 1-El. energy change                    ....  1.000e-05 Eh
 Orbital Gradient       TolG            ....  1.000e-05
 Orbital Rotation angle TolX            ....  1.000e-05
 DIIS Error             TolErr          ....  5.000e-07


Diagonalization of the overlap matrix:
Smallest eigenvalue                        ... 6.960e-06
Time for diagonalization                   ...    0.344 sec
Threshold for overlap eigenvalues          ... 1.000e-08
Number of eigenvalues below threshold      ... 0
Time for construction of square roots      ...    0.472 sec
Total time needed                          ...    0.820 sec

Time for model grid setup =    0.267 sec

------------------------------
INITIAL GUESS: MODEL POTENTIAL
------------------------------
Loading Hartree-Fock densities                     ... done
Calculating cut-offs                               ... done
Initializing the effective Hamiltonian             ... done
Setting up the integral package (SHARK)            ... done
Starting the Coulomb interaction                   ... done (   0.1 sec)
Reading the grid                                   ... done
Mapping shells                                     ... done
Starting the XC term evaluation                    ... done (   0.1 sec)
  promolecular density results
     # of electrons  =    153.994321704
     EX              =   -140.839597858
     EC              =     -5.377688855
     EX+EC           =   -146.217286713
Transforming the Hamiltonian                       ... done (   0.5 sec)
Diagonalizing the Hamiltonian                      ... done (   0.4 sec)
Back transforming the eigenvectors                 ... done (   0.2 sec)
Now organizing SCF variables                       ... done
                      ------------------
                      INITIAL GUESS DONE (   1.7 sec)
                      ------------------
-------------------
DFT GRID GENERATION
-------------------

General Integration Accuracy     IntAcc      ... 4.388
Radial Grid Type                 RadialGrid  ... OptM3 with GC (2021)
Angular Grid (max. ang.)         AngularGrid ... 4 (Lebedev-302)
Angular grid pruning method      GridPruning ... 4 (adaptive)
Weight generation scheme         WeightScheme... Becke
Basis function cutoff            BFCut       ... 1.0000e-11
Integration weight cutoff        WCut        ... 1.0000e-14
Angular grids for H and He will be reduced by one unit
Partially contracted basis set               ... off
Rotationally invariant grid construction     ... off

Total number of grid points                  ...   175320
Total number of batches                      ...     2758
Average number of points per batch           ...       63
Average number of grid points per atom       ...     4614
Time for grid setup =    1.776 sec

--------------------
COSX GRID GENERATION
--------------------

GRIDX 1
-------
General Integration Accuracy     IntAcc      ... 3.816
Radial Grid Type                 RadialGrid  ... OptM3 with GC (2021)
Angular Grid (max. ang.)         AngularGrid ... 1 (Lebedev-50)
Angular grid pruning method      GridPruning ... 4 (adaptive)
Weight generation scheme         WeightScheme... Becke
Basis function cutoff            BFCut       ... 1.0000e-11
Integration weight cutoff        WCut        ... 1.0000e-14
Angular grids for H and He will be reduced by one unit
Partially contracted basis set               ... on
Rotationally invariant grid construction     ... off

Total number of grid points                  ...    22199
Total number of batches                      ...      367
Average number of points per batch           ...       60
Average number of grid points per atom       ...      584
UseSFitting                                  ... on

GRIDX 2
-------
General Integration Accuracy     IntAcc      ... 4.020
Radial Grid Type                 RadialGrid  ... OptM3 with GC (2021)
Angular Grid (max. ang.)         AngularGrid ... 2 (Lebedev-110)
Angular grid pruning method      GridPruning ... 4 (adaptive)
Weight generation scheme         WeightScheme... Becke
Basis function cutoff            BFCut       ... 1.0000e-11
Integration weight cutoff        WCut        ... 1.0000e-14
Angular grids for H and He will be reduced by one unit
Partially contracted basis set               ... on
Rotationally invariant grid construction     ... off

Total number of grid points                  ...    47534
Total number of batches                      ...      760
Average number of points per batch           ...       62
Average number of grid points per atom       ...     1251
UseSFitting                                  ... on

GRIDX 3
-------
General Integration Accuracy     IntAcc      ... 4.338
Radial Grid Type                 RadialGrid  ... OptM3 with GC (2021)
Angular Grid (max. ang.)         AngularGrid ... 3 (Lebedev-194)
Angular grid pruning method      GridPruning ... 4 (adaptive)
Weight generation scheme         WeightScheme... Becke
Basis function cutoff            BFCut       ... 1.0000e-11
Integration weight cutoff        WCut        ... 1.0000e-14
Angular grids for H and He will be reduced by one unit
Partially contracted basis set               ... on
Rotationally invariant grid construction     ... off

Total number of grid points                  ...   104259
Total number of batches                      ...     1646
Average number of points per batch           ...       63
Average number of grid points per atom       ...     2744
UseSFitting                                  ... on

Time for X-Grid setup             =    4.643 sec


--------------------
CPCM SOLVATION MODEL
--------------------
CPCM parameters:
  Epsilon                                         ...      78.4000
  Refrac                                          ...       1.3300
  Rsolv                                           ...       1.3000
  Surface type                                    ... GAUSSIAN VDW
  Epsilon function type                           ...         CPCM
Radii:
 Radius for C  used is    3.8550 Bohr (=   2.0400 Ang.)
 Radius for H  used is    2.4944 Bohr (=   1.3200 Ang.)
 Radius for Cl used is    3.9684 Bohr (=   2.1000 Ang.)
 Radius for N  used is    3.5149 Bohr (=   1.8600 Ang.)
 Radius for O  used is    3.4469 Bohr (=   1.8240 Ang.)
Calculating surface                               ...        done! (  0.0s)
GEPOL surface points                              ...         2130
GEPOL Volume                                      ...    2316.2123
GEPOL Surface-area                                ...    1246.4678
Calculating surface distance matrix               ...        done! (  1.0s)
Performing Cholesky decomposition & store         ...        done! (  0.8s)
Overall time for CPCM initialization              ...                 1.9s
--------------
SCF ITERATIONS
--------------
ITER       Energy         Delta-E        Max-DP      RMS-DP      [F,P]     Damp
               ***  Starting incremental Fock matrix formation  ***
  0  -1338.4622976528   0.000000000000 0.14277009  0.00119902  0.3472934 0.7000
  1  -1338.7414817374  -0.279184084622 0.12509346  0.00104415  0.1389553 0.7000
                               ***Turning on DIIS***
  2  -1338.8440889560  -0.102607218574 0.12872690  0.00139588  0.0365826 0.0000
  3  -1339.0152934240  -0.171204467954 0.11718132  0.00090607  0.0790799 0.0000
  4  -1339.0491701873  -0.033876763348 0.02706748  0.00023108  0.0197667 0.0000
  5  -1339.0511958399  -0.002025652571 0.01062202  0.00008530  0.0079336 0.0000
                      *** Initiating the SOSCF procedure ***
                           *** Shutting down DIIS ***
                      *** Re-Reading the Fockian *** 
                      *** Removing any level shift *** 
ITER      Energy       Delta-E        Grad      Rot      Max-DP    RMS-DP
  6  -1339.05140027  -0.0002044342  0.000244  0.000244  0.003478  0.000039
               *** Restarting incremental Fock matrix formation ***
  7  -1339.05144993  -0.0000496584  0.000160  0.000401  0.000817  0.000017
  8  -1339.05144878   0.0000011502  0.000234  0.000351  0.001338  0.000014
  9  -1339.05145267  -0.0000038854  0.000116  0.000406  0.000249  0.000003
 10  -1339.05145228   0.0000003896  0.000265  0.000305  0.000298  0.000003
 11  -1339.05145278  -0.0000004997  0.000021  0.000045  0.000065  0.000001
 12  -1339.05145276   0.0000000199  0.000042  0.000034  0.000075  0.000001
 13  -1339.05145277  -0.0000000126  0.000005  0.000007  0.000097  0.000001
 14  -1339.05145274   0.0000000256  0.000006  0.000004  0.000045  0.000001
                  ***Gradient check signals convergence***
              ***Rediagonalizing the Fockian in SOSCF/NRSCF***

               *****************************************************
               *                     SUCCESS                       *
               *           SCF CONVERGED AFTER  15 CYCLES          *
               *****************************************************

Old exchange energy                            =    -28.527139223 Eh
New exchange energy                            =    -28.527096459 Eh
Exchange energy change after final integration =      0.000042763 Eh
Total energy after final integration           =  -1339.051410040 Eh
Final COS-X integration done in                =     3.523 sec

----------------
TOTAL SCF ENERGY
----------------

Total Energy       :        -1339.05141004 Eh          -36437.44131 eV

Components:
Nuclear Repulsion  :         1621.67337186 Eh           44127.97587 eV
Electronic Energy  :        -2960.72478190 Eh          -80565.41718 eV
One Electron Energy:        -5055.25514695 Eh         -137560.48599 eV
Two Electron Energy:         2094.53036505 Eh           56995.06881 eV
Max COSX asymmetry :            0.00000152 Eh               0.00004 eV
CPCM Dielectric    :           -0.02940763 Eh              -0.80022 eV

Virial components:
Potential Energy   :        -2673.77953545 Eh          -72757.24007 eV
Kinetic Energy     :         1334.72812541 Eh           36319.79876 eV
Virial Ratio       :            2.00323908


DFT components:
N(Alpha)           :       76.999977157953 electrons
N(Beta)            :       76.999977157953 electrons
N(Total)           :      153.999954315905 electrons
E(X)               :     -113.412667611131 Eh       
E(C)               :       -6.328900589172 Eh       
E(XC)              :     -119.741568200302 Eh       
DFET-embed. en.    :        0.000000000000 Eh       
CPCM Solvation Model Properties:
Surface-charge          :           -0.03195791
Charge-correction       :            0.00012018 Eh               0.00327 eV
Free-energy (cav+disp)  :  This term is not implemented in the current solvation scheme

---------------
SCF CONVERGENCE
---------------

  Last Energy change         ...   -5.8674e-08  Tolerance :   1.0000e-08
  Last MAX-Density change    ...    2.3315e-15  Tolerance :   1.0000e-07
  Last RMS-Density change    ...    1.5064e-17  Tolerance :   5.0000e-09
  Last Orbital Gradient      ...    4.9319e-07  Tolerance :   1.0000e-05
  Last Orbital Rotation      ...    1.8266e-06  Tolerance :   1.0000e-05

             **** THE GBW FILE WAS UPDATED (/home/rudenko/mop_saddle_orca_4_serv/for_orca/mcl-morpholine/orca/start_freq_D/start_f_D.gbw) ****
             **** DENSITY /home/rudenko/mop_saddle_orca_4_serv/for_orca/mcl-morpholine/orca/start_freq_D/start_f_D.scfp WAS UPDATED ****
             **** ENERGY FILE WAS UPDATED (/home/rudenko/mop_saddle_orca_4_serv/for_orca/mcl-morpholine/orca/start_freq_D/start_f_D.en.tmp) ****
             **** THE GBW FILE WAS UPDATED (/home/rudenko/mop_saddle_orca_4_serv/for_orca/mcl-morpholine/orca/start_freq_D/start_f_D.gbw) ****
             **** DENSITY /home/rudenko/mop_saddle_orca_4_serv/for_orca/mcl-morpholine/orca/start_freq_D/start_f_D.scfp WAS UPDATED ****
----------------
ORBITAL ENERGIES
----------------

  NO   OCC          E(Eh)            E(eV) 
   0   2.0000    -101.530854     -2762.7950 
   1   2.0000     -19.178681      -521.8784 
   2   2.0000     -19.175169      -521.7829 
   3   2.0000     -19.127716      -520.4916 
   4   2.0000     -19.099913      -519.7351 
   5   2.0000     -14.558517      -396.1574 
   6   2.0000     -14.307961      -389.3394 
   7   2.0000     -10.243338      -278.7354 
   8   2.0000     -10.242254      -278.7059 
   9   2.0000     -10.209224      -277.8071 
  10   2.0000     -10.209066      -277.8028 
  11   2.0000     -10.204590      -277.6810 
  12   2.0000     -10.192050      -277.3398 
  13   2.0000     -10.189186      -277.2618 
  14   2.0000     -10.188585      -277.2455 
  15   2.0000     -10.187604      -277.2188 
  16   2.0000     -10.186587      -277.1911 
  17   2.0000     -10.183494      -277.1070 
  18   2.0000     -10.172072      -276.7962 
  19   2.0000      -9.462988      -257.5010 
  20   2.0000      -7.224328      -196.5839 
  21   2.0000      -7.216182      -196.3623 
  22   2.0000      -7.215830      -196.3527 
  23   2.0000      -1.247673       -33.9509 
  24   2.0000      -1.074612       -29.2417 
  25   2.0000      -1.034591       -28.1527 
  26   2.0000      -0.981053       -26.6958 
  27   2.0000      -0.907036       -24.6817 
  28   2.0000      -0.902663       -24.5627 
  29   2.0000      -0.863887       -23.5075 
  30   2.0000      -0.827176       -22.5086 
  31   2.0000      -0.768446       -20.9105 
  32   2.0000      -0.758702       -20.6453 
  33   2.0000      -0.741783       -20.1849 
  34   2.0000      -0.705634       -19.2013 
  35   2.0000      -0.684274       -18.6200 
  36   2.0000      -0.645968       -17.5777 
  37   2.0000      -0.640494       -17.4287 
  38   2.0000      -0.615104       -16.7378 
  39   2.0000      -0.593853       -16.1596 
  40   2.0000      -0.567775       -15.4500 
  41   2.0000      -0.555079       -15.1045 
  42   2.0000      -0.551485       -15.0067 
  43   2.0000      -0.535818       -14.5803 
  44   2.0000      -0.521055       -14.1786 
  45   2.0000      -0.514262       -13.9938 
  46   2.0000      -0.503586       -13.7033 
  47   2.0000      -0.484952       -13.1962 
  48   2.0000      -0.472182       -12.8487 
  49   2.0000      -0.464510       -12.6400 
  50   2.0000      -0.461140       -12.5483 
  51   2.0000      -0.448979       -12.2173 
  52   2.0000      -0.447076       -12.1656 
  53   2.0000      -0.436392       -11.8748 
  54   2.0000      -0.431517       -11.7422 
  55   2.0000      -0.424412       -11.5488 
  56   2.0000      -0.415658       -11.3106 
  57   2.0000      -0.409945       -11.1552 
  58   2.0000      -0.400714       -10.9040 
  59   2.0000      -0.391517       -10.6537 
  60   2.0000      -0.383899       -10.4464 
  61   2.0000      -0.374661       -10.1950 
  62   2.0000      -0.368702       -10.0329 
  63   2.0000      -0.363245        -9.8844 
  64   2.0000      -0.355157        -9.6643 
  65   2.0000      -0.351150        -9.5553 
  66   2.0000      -0.341941        -9.3047 
  67   2.0000      -0.336174        -9.1477 
  68   2.0000      -0.323880        -8.8132 
  69   2.0000      -0.320435        -8.7195 
  70   2.0000      -0.316475        -8.6117 
  71   2.0000      -0.308206        -8.3867 
  72   2.0000      -0.296806        -8.0765 
  73   2.0000      -0.271258        -7.3813 
  74   2.0000      -0.264074        -7.1858 
  75   2.0000      -0.256741        -6.9863 
  76   2.0000      -0.242500        -6.5988 
  77   0.0000      -0.086407        -2.3513 
  78   0.0000      -0.034025        -0.9259 
  79   0.0000      -0.026221        -0.7135 
  80   0.0000       0.020629         0.5613 
  81   0.0000       0.030466         0.8290 
  82   0.0000       0.055101         1.4994 
  83   0.0000       0.058561         1.5935 
  84   0.0000       0.065751         1.7892 
  85   0.0000       0.074429         2.0253 
  86   0.0000       0.080813         2.1990 
  87   0.0000       0.087510         2.3813 
  88   0.0000       0.090964         2.4753 
  89   0.0000       0.097729         2.6594 
  90   0.0000       0.098786         2.6881 
  91   0.0000       0.102942         2.8012 
  92   0.0000       0.105021         2.8578 
  93   0.0000       0.116899         3.1810 
  94   0.0000       0.118661         3.2289 
  95   0.0000       0.123229         3.3532 
  96   0.0000       0.124112         3.3773 
  97   0.0000       0.136200         3.7062 
  98   0.0000       0.137444         3.7400 
  99   0.0000       0.138905         3.7798 
 100   0.0000       0.139134         3.7860 
 101   0.0000       0.151179         4.1138 
 102   0.0000       0.152580         4.1519 
 103   0.0000       0.164187         4.4677 
 104   0.0000       0.171625         4.6702 
 105   0.0000       0.174569         4.7503 
 106   0.0000       0.184069         5.0088 
 107   0.0000       0.190352         5.1797 
 108   0.0000       0.195619         5.3231 
 109   0.0000       0.198612         5.4045 
 110   0.0000       0.203456         5.5363 
 111   0.0000       0.205512         5.5923 
 112   0.0000       0.211523         5.7558 
 113   0.0000       0.217900         5.9294 
 114   0.0000       0.223716         6.0876 
 115   0.0000       0.235651         6.4124 
 116   0.0000       0.239062         6.5052 
 117   0.0000       0.240445         6.5429 
 118   0.0000       0.248765         6.7692 
 119   0.0000       0.254261         6.9188 
 120   0.0000       0.263127         7.1600 
 121   0.0000       0.268625         7.3097 
 122   0.0000       0.269531         7.3343 
 123   0.0000       0.276200         7.5158 
 124   0.0000       0.277484         7.5507 
 125   0.0000       0.286627         7.7995 
 126   0.0000       0.295478         8.0404 
 127   0.0000       0.299466         8.1489 
 128   0.0000       0.308196         8.3864 
 129   0.0000       0.311207         8.4684 
 130   0.0000       0.316877         8.6227 
 131   0.0000       0.317127         8.6295 
 132   0.0000       0.319909         8.7052 
 133   0.0000       0.326561         8.8862 
 134   0.0000       0.336787         9.1644 
 135   0.0000       0.345701         9.4070 
 136   0.0000       0.348754         9.4901 
 137   0.0000       0.351985         9.5780 
 138   0.0000       0.354100         9.6355 
 139   0.0000       0.358122         9.7450 
 140   0.0000       0.363133         9.8813 
 141   0.0000       0.366984         9.9861 
 142   0.0000       0.368967        10.0401 
 143   0.0000       0.371312        10.1039 
 144   0.0000       0.381864        10.3911 
 145   0.0000       0.387952        10.5567 
 146   0.0000       0.395364        10.7584 
 147   0.0000       0.397983        10.8297 
 148   0.0000       0.403442        10.9782 
 149   0.0000       0.410674        11.1750 
 150   0.0000       0.413966        11.2646 
 151   0.0000       0.418850        11.3975 
 152   0.0000       0.423163        11.5149 
 153   0.0000       0.427452        11.6316 
 154   0.0000       0.430956        11.7269 
 155   0.0000       0.434172        11.8144 
 156   0.0000       0.436384        11.8746 
 157   0.0000       0.440145        11.9770 
 158   0.0000       0.440373        11.9831 
 159   0.0000       0.448475        12.2036 
 160   0.0000       0.449602        12.2343 
 161   0.0000       0.452094        12.3021 
 162   0.0000       0.461010        12.5447 
 163   0.0000       0.465679        12.6718 
 164   0.0000       0.472883        12.8678 
 165   0.0000       0.474314        12.9067 
 166   0.0000       0.478108        13.0100 
 167   0.0000       0.483570        13.1586 
 168   0.0000       0.487298        13.2601 
 169   0.0000       0.489010        13.3066 
 170   0.0000       0.496883        13.5209 
 171   0.0000       0.507200        13.8016 
 172   0.0000       0.511331        13.9140 
 173   0.0000       0.515503        14.0276 
 174   0.0000       0.519738        14.1428 
 175   0.0000       0.524149        14.2628 
 176   0.0000       0.526557        14.3283 
 177   0.0000       0.538404        14.6507 
 178   0.0000       0.539355        14.6766 
 179   0.0000       0.553460        15.0604 
 180   0.0000       0.556489        15.1428 
 181   0.0000       0.563542        15.3347 
 182   0.0000       0.569734        15.5033 
 183   0.0000       0.575743        15.6668 
 184   0.0000       0.582437        15.8489 
 185   0.0000       0.586320        15.9546 
 186   0.0000       0.593937        16.1619 
 187   0.0000       0.604473        16.4486 
 188   0.0000       0.611246        16.6329 
 189   0.0000       0.617612        16.8061 
 190   0.0000       0.623338        16.9619 
 191   0.0000       0.637625        17.3507 
 192   0.0000       0.645968        17.5777 
 193   0.0000       0.650907        17.7121 
 194   0.0000       0.660151        17.9636 
 195   0.0000       0.661251        17.9936 
 196   0.0000       0.666939        18.1483 
 197   0.0000       0.675191        18.3729 
 198   0.0000       0.680784        18.5251 
 199   0.0000       0.691456        18.8155 
 200   0.0000       0.698442        19.0056 
 201   0.0000       0.704954        19.1828 
 202   0.0000       0.709788        19.3143 
 203   0.0000       0.718611        19.5544 
 204   0.0000       0.723890        19.6980 
 205   0.0000       0.735936        20.0258 
 206   0.0000       0.737020        20.0553 
 207   0.0000       0.744545        20.2601 
 208   0.0000       0.757805        20.6209 
 209   0.0000       0.759902        20.6780 
 210   0.0000       0.770265        20.9600 
 211   0.0000       0.773671        21.0526 
 212   0.0000       0.778515        21.1845 
 213   0.0000       0.794727        21.6256 
 214   0.0000       0.800459        21.7816 
 215   0.0000       0.810547        22.0561 
 216   0.0000       0.818490        22.2722 
 217   0.0000       0.824481        22.4353 
 218   0.0000       0.832636        22.6572 
 219   0.0000       0.853605        23.2278 
 220   0.0000       0.857102        23.3229 
 221   0.0000       0.859193        23.3798 
 222   0.0000       0.862287        23.4640 
 223   0.0000       0.886346        24.1187 
 224   0.0000       0.891638        24.2627 
 225   0.0000       0.892815        24.2947 
 226   0.0000       0.904050        24.6004 
 227   0.0000       0.910474        24.7753 
 228   0.0000       0.927883        25.2490 
 229   0.0000       0.931363        25.3437 
 230   0.0000       0.934461        25.4280 
 231   0.0000       0.943200        25.6658 
 232   0.0000       0.951424        25.8896 
 233   0.0000       0.964364        26.2417 
 234   0.0000       0.981977        26.7209 
 235   0.0000       0.985054        26.8047 
 236   0.0000       0.986793        26.8520 
 237   0.0000       1.014481        27.6054 
 238   0.0000       1.018317        27.7098 
 239   0.0000       1.031255        28.0619 
 240   0.0000       1.035865        28.1873 
 241   0.0000       1.045332        28.4449 
 242   0.0000       1.048255        28.5245 
 243   0.0000       1.062398        28.9093 
 244   0.0000       1.075006        29.2524 
 245   0.0000       1.089732        29.6531 
 246   0.0000       1.091905        29.7122 
 247   0.0000       1.106166        30.1003 
 248   0.0000       1.117138        30.3989 
 249   0.0000       1.128424        30.7060 
 250   0.0000       1.138125        30.9700 
 251   0.0000       1.142043        31.0766 
 252   0.0000       1.153908        31.3994 
 253   0.0000       1.164860        31.6975 
 254   0.0000       1.170414        31.8486 
 255   0.0000       1.174115        31.9493 
 256   0.0000       1.183656        32.2089 
 257   0.0000       1.203295        32.7433 
 258   0.0000       1.211248        32.9597 
 259   0.0000       1.217816        33.1384 
 260   0.0000       1.218861        33.1669 
 261   0.0000       1.235577        33.6218 
 262   0.0000       1.239660        33.7329 
 263   0.0000       1.250517        34.0283 
 264   0.0000       1.255221        34.1563 
 265   0.0000       1.261514        34.3275 
 266   0.0000       1.271169        34.5903 
 267   0.0000       1.280836        34.8533 
 268   0.0000       1.290087        35.1050 
 269   0.0000       1.294987        35.2384 
 270   0.0000       1.301145        35.4060 
 271   0.0000       1.318752        35.8851 
 272   0.0000       1.325776        36.0762 
 273   0.0000       1.333538        36.2874 
 274   0.0000       1.344292        36.5800 
 275   0.0000       1.357065        36.9276 
 276   0.0000       1.364034        37.1173 
 277   0.0000       1.378566        37.5127 
 278   0.0000       1.397857        38.0376 
 279   0.0000       1.407120        38.2897 
 280   0.0000       1.428562        38.8732 
 281   0.0000       1.449047        39.4306 
 282   0.0000       1.460977        39.7552 
 283   0.0000       1.465793        39.8862 
 284   0.0000       1.468866        39.9699 
 285   0.0000       1.477296        40.1993 
 286   0.0000       1.486286        40.4439 
 287   0.0000       1.489907        40.5424 
 288   0.0000       1.504453        40.9382 
 289   0.0000       1.512697        41.1626 
 290   0.0000       1.518637        41.3242 
 291   0.0000       1.527142        41.5556 
 292   0.0000       1.540966        41.9318 
 293   0.0000       1.549573        42.1660 
 294   0.0000       1.551676        42.2232 
 295   0.0000       1.563739        42.5515 
 296   0.0000       1.567759        42.6609 
 297   0.0000       1.574057        42.8323 
 298   0.0000       1.582339        43.0576 
 299   0.0000       1.586503        43.1709 
 300   0.0000       1.599663        43.5290 
 301   0.0000       1.602274        43.6001 
 302   0.0000       1.613016        43.8924 
 303   0.0000       1.614236        43.9256 
 304   0.0000       1.621431        44.1214 
 305   0.0000       1.626020        44.2463 
 306   0.0000       1.629839        44.3502 
 307   0.0000       1.636721        44.5374 
 308   0.0000       1.643160        44.7127 
 309   0.0000       1.648922        44.8695 
 310   0.0000       1.657591        45.1053 
 311   0.0000       1.661486        45.2113 
 312   0.0000       1.670607        45.4595 
 313   0.0000       1.680606        45.7316 
 314   0.0000       1.692488        46.0549 
 315   0.0000       1.695787        46.1447 
 316   0.0000       1.703943        46.3666 
 317   0.0000       1.719267        46.7836 
 318   0.0000       1.726948        46.9926 
 319   0.0000       1.744784        47.4780 
 320   0.0000       1.747081        47.5405 
 321   0.0000       1.750630        47.6371 
 322   0.0000       1.767943        48.1082 
 323   0.0000       1.775269        48.3075 
 324   0.0000       1.782429        48.5024 
 325   0.0000       1.789983        48.7079 
 326   0.0000       1.792039        48.7639 
 327   0.0000       1.794469        48.8300 
 328   0.0000       1.803798        49.0839 
 329   0.0000       1.815745        49.4089 
 330   0.0000       1.835288        49.9407 
 331   0.0000       1.844902        50.2023 
 332   0.0000       1.845684        50.2236 
 333   0.0000       1.854822        50.4723 
 334   0.0000       1.860005        50.6133 
 335   0.0000       1.865733        50.7692 
 336   0.0000       1.881558        51.1998 
 337   0.0000       1.891475        51.4697 
 338   0.0000       1.900450        51.7139 
 339   0.0000       1.917685        52.1829 
 340   0.0000       1.923211        52.3332 
 341   0.0000       1.929485        52.5039 
 342   0.0000       1.939348        52.7723 
 343   0.0000       1.947619        52.9974 
 344   0.0000       1.962253        53.3956 
 345   0.0000       1.967801        53.5466 
 346   0.0000       1.970426        53.6180 
 347   0.0000       1.974515        53.7293 
 348   0.0000       1.981861        53.9292 
 349   0.0000       1.985568        54.0301 
 350   0.0000       1.997890        54.3653 
 351   0.0000       2.008781        54.6617 
 352   0.0000       2.011081        54.7243 
 353   0.0000       2.029843        55.2348 
 354   0.0000       2.039534        55.4985 
 355   0.0000       2.048228        55.7351 
 356   0.0000       2.052540        55.8524 
 357   0.0000       2.057131        55.9774 
 358   0.0000       2.076478        56.5038 
 359   0.0000       2.080905        56.6243 
 360   0.0000       2.083902        56.7058 
 361   0.0000       2.088861        56.8408 
 362   0.0000       2.093220        56.9594 
 363   0.0000       2.125111        57.8272 
 364   0.0000       2.129897        57.9575 
 365   0.0000       2.134141        58.0729 
 366   0.0000       2.141508        58.2734 
 367   0.0000       2.153048        58.5874 
 368   0.0000       2.161697        58.8228 
 369   0.0000       2.169597        59.0377 
 370   0.0000       2.174505        59.1713 
 371   0.0000       2.178526        59.2807 
 372   0.0000       2.189160        59.5701 
 373   0.0000       2.196291        59.7641 
 374   0.0000       2.200181        59.8700 
 375   0.0000       2.217430        60.3393 
 376   0.0000       2.228321        60.6357 
 377   0.0000       2.233630        60.7802 
 378   0.0000       2.235930        60.8427 
 379   0.0000       2.248045        61.1724 
 380   0.0000       2.262125        61.5555 
 381   0.0000       2.267167        61.6928 
 382   0.0000       2.276167        61.9376 
 383   0.0000       2.283882        62.1476 
 384   0.0000       2.292561        62.3838 
 385   0.0000       2.297087        62.5069 
 386   0.0000       2.306277        62.7570 
 387   0.0000       2.312612        62.9294 
 388   0.0000       2.315816        63.0166 
 389   0.0000       2.328627        63.3652 
 390   0.0000       2.338545        63.6350 
 391   0.0000       2.346915        63.8628 
 392   0.0000       2.352627        64.0182 
 393   0.0000       2.369327        64.4727 
 394   0.0000       2.376979        64.6809 
 395   0.0000       2.398055        65.2544 
 396   0.0000       2.403797        65.4106 
 397   0.0000       2.414774        65.7093 
 398   0.0000       2.441946        66.4487 
 399   0.0000       2.446073        66.5610 
 400   0.0000       2.456557        66.8463 
 401   0.0000       2.457747        66.8787 
 402   0.0000       2.464994        67.0759 
 403   0.0000       2.472464        67.2792 
 404   0.0000       2.487690        67.6935 
 405   0.0000       2.504802        68.1591 
 406   0.0000       2.509874        68.2971 
 407   0.0000       2.513476        68.3952 
 408   0.0000       2.523683        68.6729 
 409   0.0000       2.528816        68.8126 
 410   0.0000       2.546662        69.2982 
 411   0.0000       2.549185        69.3668 
 412   0.0000       2.560883        69.6852 
 413   0.0000       2.576829        70.1191 
 414   0.0000       2.580720        70.2250 
 415   0.0000       2.592716        70.5514 
 416   0.0000       2.597925        70.6931 
 417   0.0000       2.598984        70.7219 
 418   0.0000       2.604859        70.8818 
 419   0.0000       2.617065        71.2139 
 420   0.0000       2.620266        71.3011 
 421   0.0000       2.623474        71.3884 
 422   0.0000       2.628976        71.5381 
 423   0.0000       2.633627        71.6646 
 424   0.0000       2.638851        71.8068 
 425   0.0000       2.647321        72.0373 
 426   0.0000       2.655022        72.2468 
 427   0.0000       2.661238        72.4160 
 428   0.0000       2.664256        72.4981 
 429   0.0000       2.675869        72.8141 
 430   0.0000       2.687749        73.1374 
 431   0.0000       2.694682        73.3260 
 432   0.0000       2.700793        73.4923 
 433   0.0000       2.710001        73.7429 
 434   0.0000       2.717293        73.9413 
 435   0.0000       2.723399        74.1075 
 436   0.0000       2.724200        74.1293 
 437   0.0000       2.730892        74.3113 
 438   0.0000       2.736014        74.4507 
 439   0.0000       2.745885        74.7193 
 440   0.0000       2.754190        74.9453 
 441   0.0000       2.762014        75.1582 
 442   0.0000       2.770856        75.3988 
 443   0.0000       2.775224        75.5177 
 444   0.0000       2.784724        75.7762 
 445   0.0000       2.793381        76.0118 
 446   0.0000       2.807085        76.3847 
 447   0.0000       2.816367        76.6373 
 448   0.0000       2.829273        76.9884 
 449   0.0000       2.838570        77.2414 
 450   0.0000       2.844626        77.4062 
 451   0.0000       2.859177        77.8021 
 452   0.0000       2.870228        78.1029 
 453   0.0000       2.871747        78.1442 
 454   0.0000       2.888168        78.5910 
 455   0.0000       2.894440        78.7617 
 456   0.0000       2.902093        78.9700 
 457   0.0000       2.909335        79.1670 
 458   0.0000       2.930653        79.7471 
 459   0.0000       2.944534        80.1248 
 460   0.0000       2.958887        80.5154 
 461   0.0000       2.961590        80.5890 
 462   0.0000       2.972733        80.8922 
 463   0.0000       2.985979        81.2526 
 464   0.0000       3.008303        81.8601 
 465   0.0000       3.011875        81.9573 
 466   0.0000       3.020278        82.1859 
 467   0.0000       3.032782        82.5262 
 468   0.0000       3.045013        82.8590 
 469   0.0000       3.055011        83.1311 
 470   0.0000       3.059787        83.2610 
 471   0.0000       3.069107        83.5147 
 472   0.0000       3.075981        83.7017 
 473   0.0000       3.085680        83.9656 
 474   0.0000       3.098064        84.3026 
 475   0.0000       3.106920        84.5436 
 476   0.0000       3.114933        84.7616 
 477   0.0000       3.122265        84.9611 
 478   0.0000       3.124577        85.0241 
 479   0.0000       3.142246        85.5049 
 480   0.0000       3.143361        85.5352 
 481   0.0000       3.150836        85.7386 
 482   0.0000       3.155548        85.8668 
 483   0.0000       3.165400        86.1349 
 484   0.0000       3.179193        86.5102 
 485   0.0000       3.180471        86.5450 
 486   0.0000       3.187382        86.7331 
 487   0.0000       3.199021        87.0498 
 488   0.0000       3.200595        87.0926 
 489   0.0000       3.215468        87.4973 
 490   0.0000       3.222535        87.6896 
 491   0.0000       3.226104        87.7868 
 492   0.0000       3.235622        88.0458 
 493   0.0000       3.243296        88.2546 
 494   0.0000       3.253261        88.5257 
 495   0.0000       3.260971        88.7355 
 496   0.0000       3.261473        88.7492 
 497   0.0000       3.269162        88.9584 
 498   0.0000       3.282339        89.3170 
 499   0.0000       3.287391        89.4545 
 500   0.0000       3.291486        89.5659 
 501   0.0000       3.296183        89.6937 
 502   0.0000       3.305061        89.9353 
 503   0.0000       3.317887        90.2843 
 504   0.0000       3.329513        90.6007 
 505   0.0000       3.339605        90.8753 
 506   0.0000       3.350516        91.1722 
 507   0.0000       3.352756        91.2331 
 508   0.0000       3.364407        91.5502 
 509   0.0000       3.384876        92.1072 
 510   0.0000       3.396291        92.4178 
 511   0.0000       3.402356        92.5828 
 512   0.0000       3.404342        92.6369 
 513   0.0000       3.413301        92.8807 
 514   0.0000       3.427690        93.2722 
 515   0.0000       3.432158        93.3938 
 516   0.0000       3.438922        93.5778 
 517   0.0000       3.443052        93.6902 
 518   0.0000       3.449052        93.8535 
 519   0.0000       3.457525        94.0840 
 520   0.0000       3.469390        94.4069 
 521   0.0000       3.477098        94.6167 
 522   0.0000       3.484264        94.8116 
 523   0.0000       3.491466        95.0076 
 524   0.0000       3.502077        95.2964 
 525   0.0000       3.509812        95.5068 
 526   0.0000       3.514627        95.6379 
 527   0.0000       3.531979        96.1100 
 528   0.0000       3.548299        96.5541 
 529   0.0000       3.556062        96.7654 
 530   0.0000       3.570950        97.1705 
 531   0.0000       3.573544        97.2411 
 532   0.0000       3.587146        97.6112 
 533   0.0000       3.591791        97.7376 
 534   0.0000       3.612652        98.3052 
 535   0.0000       3.617489        98.4369 
 536   0.0000       3.624920        98.6391 
 537   0.0000       3.652068        99.3778 
 538   0.0000       3.656848        99.5079 
 539   0.0000       3.663253        99.6822 
 540   0.0000       3.692281       100.4721 
 541   0.0000       3.734846       101.6303 
 542   0.0000       3.756590       102.2220 
 543   0.0000       3.759926       102.3128 
 544   0.0000       3.768037       102.5335 
 545   0.0000       3.771307       102.6225 
 546   0.0000       3.786850       103.0454 
 547   0.0000       3.793560       103.2280 
 548   0.0000       3.799752       103.3965 
 549   0.0000       3.807030       103.5946 
 550   0.0000       3.811186       103.7076 
 551   0.0000       3.830766       104.2405 
 552   0.0000       3.859137       105.0125 
 553   0.0000       3.895535       106.0029 
 554   0.0000       3.910858       106.4199 
 555   0.0000       3.927656       106.8770 
 556   0.0000       3.933692       107.0412 
 557   0.0000       3.937172       107.1359 
 558   0.0000       3.949756       107.4783 
 559   0.0000       3.962723       107.8312 
 560   0.0000       3.987652       108.5095 
 561   0.0000       3.990397       108.5842 
 562   0.0000       4.016608       109.2975 
 563   0.0000       4.020432       109.4015 
 564   0.0000       4.039159       109.9111 
 565   0.0000       4.048443       110.1637 
 566   0.0000       4.068225       110.7020 
 567   0.0000       4.076703       110.9327 
 568   0.0000       4.091674       111.3401 
 569   0.0000       4.102255       111.6280 
 570   0.0000       4.136140       112.5501 
 571   0.0000       4.153582       113.0247 
 572   0.0000       4.170618       113.4883 
 573   0.0000       4.177733       113.6819 
 574   0.0000       4.181578       113.7865 
 575   0.0000       4.201147       114.3190 
 576   0.0000       4.203468       114.3822 
 577   0.0000       4.224371       114.9510 
 578   0.0000       4.232336       115.1677 
 579   0.0000       4.242907       115.4554 
 580   0.0000       4.254674       115.7756 
 581   0.0000       4.274272       116.3089 
 582   0.0000       4.277599       116.3994 
 583   0.0000       4.284887       116.5977 
 584   0.0000       4.299358       116.9915 
 585   0.0000       4.318132       117.5023 
 586   0.0000       4.340936       118.1229 
 587   0.0000       4.363629       118.7404 
 588   0.0000       4.374001       119.0226 
 589   0.0000       4.403975       119.8383 
 590   0.0000       4.430760       120.5671 
 591   0.0000       4.436573       120.7253 
 592   0.0000       4.457513       121.2951 
 593   0.0000       4.504892       122.5844 
 594   0.0000       4.515972       122.8858 
 595   0.0000       4.520322       123.0042 
 596   0.0000       4.552880       123.8902 
 597   0.0000       4.560184       124.0889 
 598   0.0000       4.595270       125.0437 
 599   0.0000       4.603418       125.2654 
 600   0.0000       4.622772       125.7920 
 601   0.0000       4.633967       126.0966 
 602   0.0000       4.654096       126.6444 
 603   0.0000       4.658767       126.7715 
 604   0.0000       4.685788       127.5068 
 605   0.0000       4.715457       128.3141 
 606   0.0000       4.726884       128.6251 
 607   0.0000       4.735599       128.8622 
 608   0.0000       4.747815       129.1946 
 609   0.0000       4.759702       129.5181 
 610   0.0000       4.803899       130.7207 
 611   0.0000       4.841818       131.7526 
 612   0.0000       4.843969       131.8111 
 613   0.0000       4.868858       132.4884 
 614   0.0000       4.879610       132.7809 
 615   0.0000       4.883467       132.8859 
 616   0.0000       4.932762       134.2273 
 617   0.0000       4.971847       135.2908 
 618   0.0000       4.978949       135.4841 
 619   0.0000       5.016308       136.5007 
 620   0.0000       5.071970       138.0153 
 621   0.0000       5.086744       138.4174 
 622   0.0000       5.097352       138.7060 
 623   0.0000       5.115699       139.2052 
 624   0.0000       5.121930       139.3748 
 625   0.0000       5.126174       139.4903 
 626   0.0000       5.130626       139.6114 
 627   0.0000       5.137407       139.7959 
 628   0.0000       5.184376       141.0740 
 629   0.0000       5.193034       141.3096 
 630   0.0000       5.206481       141.6755 
 631   0.0000       5.223624       142.1420 
 632   0.0000       5.230073       142.3175 
 633   0.0000       5.256344       143.0324 
 634   0.0000       5.284698       143.8039 
 635   0.0000       5.313080       144.5762 
 636   0.0000       5.332425       145.1027 
 637   0.0000       5.351321       145.6168 
 638   0.0000       5.373635       146.2240 
 639   0.0000       5.390228       146.6756 
 640   0.0000       5.405454       147.0899 
 641   0.0000       5.409154       147.1906 
 642   0.0000       5.421707       147.5322 
 643   0.0000       5.434208       147.8723 
 644   0.0000       5.459946       148.5727 
 645   0.0000       5.467336       148.7738 
 646   0.0000       5.501119       149.6931 
 647   0.0000       5.572692       151.6407 
 648   0.0000       5.587969       152.0564 
 649   0.0000       5.604385       152.5031 
 650   0.0000       5.610422       152.6673 
 651   0.0000       5.627701       153.1375 
 652   0.0000       5.711465       155.4169 
 653   0.0000       5.750963       156.4917 
 654   0.0000       5.836217       158.8116 
 655   0.0000       5.856644       159.3674 
 656   0.0000       5.906899       160.7349 
 657   0.0000       5.971237       162.4856 
 658   0.0000       6.084313       165.5626 
 659   0.0000       6.154339       167.4681 
 660   0.0000       6.169405       167.8780 
 661   0.0000       6.246242       169.9689 
 662   0.0000       6.302085       171.4885 
 663   0.0000       6.313940       171.8110 
 664   0.0000       6.347818       172.7329 
 665   0.0000       6.360983       173.0911 
 666   0.0000       6.390666       173.8989 
 667   0.0000       6.394831       174.0122 
 668   0.0000       6.409898       174.4222 
 669   0.0000       6.437819       175.1820 
 670   0.0000       6.460415       175.7968 
 671   0.0000       6.672584       181.5702 
 672   0.0000       6.708846       182.5570 
 673   0.0000       6.747921       183.6203 
 674   0.0000       6.843289       186.2154 
 675   0.0000       6.876664       187.1235 
 676   0.0000       6.877384       187.1431 
 677   0.0000       6.946747       189.0306 
 678   0.0000       6.968489       189.6222 
 679   0.0000       7.095114       193.0679 
 680   0.0000       7.099342       193.1829 
 681   0.0000       7.203771       196.0246 
 682   0.0000       7.234792       196.8687 
 683   0.0000       7.267721       197.7648 
 684   0.0000       7.321155       199.2188 
 685   0.0000       7.355889       200.1639 
 686   0.0000       7.422144       201.9668 
 687   0.0000      10.705063       291.2996 
 688   0.0000      10.784161       293.4520 
 689   0.0000      11.324461       308.1542 
 690   0.0000      22.063940       600.3903 
 691   0.0000      22.364019       608.5559 
 692   0.0000      22.393927       609.3697 
 693   0.0000      22.488359       611.9394 
 694   0.0000      22.498564       612.2170 
 695   0.0000      22.563681       613.9890 
 696   0.0000      22.597069       614.8975 
 697   0.0000      22.642222       616.1262 
 698   0.0000      22.690624       617.4433 
 699   0.0000      22.782851       619.9529 
 700   0.0000      22.833456       621.3299 
 701   0.0000      23.202633       631.3757 
 702   0.0000      25.851119       703.4447 
 703   0.0000      32.357780       880.5000 
 704   0.0000      32.470012       883.5539 
 705   0.0000      43.677799      1188.5333 
 706   0.0000      44.003215      1197.3884 
 707   0.0000      44.068904      1199.1758 
 708   0.0000      44.081543      1199.5198 

                    ********************************
                    * MULLIKEN POPULATION ANALYSIS *
                    ********************************

-----------------------
MULLIKEN ATOMIC CHARGES
-----------------------
   0 C :   -0.109950
   1 C :   -0.220332
   2 C :    0.143351
   3 C :   -0.283860
   4 C :    0.222263
   5 C :   -0.215540
   6 H :    0.153282
   7 H :    0.108395
   8 H :    0.152266
   9 Cl:   -0.132886
  10 H :    0.152300
  11 C :    0.035949
  12 C :   -0.353025
  13 H :    0.143660
  14 H :    0.140789
  15 H :    0.142712
  16 N :    0.444726
  17 O :   -0.363289
  18 O :   -0.328454
  19 N :   -0.419932
  20 C :   -0.076975
  21 C :   -0.033940
  22 O :   -0.374377
  23 C :   -0.039542
  24 C :   -0.075286
  25 H :    0.121910
  26 H :    0.088981
  27 H :    0.121568
  28 H :    0.091023
  29 H :    0.123027
  30 H :    0.085085
  31 H :    0.088783
  32 H :    0.143147
[...]
    104      -0.000259  -0.000109   0.000239  -0.000024   0.000720  -0.000013
    105       0.001333   0.000618  -0.000966  -0.000015  -0.002034   0.742125
    106       0.002689   0.001504  -0.002626  -0.000407  -0.001709   0.653710
    107      -0.001391  -0.000775   0.001404   0.000268   0.001020   0.124641
    108      -0.018436  -0.010003   0.017584   0.003047   0.011650  -0.006471
    109      -0.014190  -0.007572   0.013190   0.002160   0.009571  -0.006263
    110       0.048349   0.025886  -0.045395  -0.007703  -0.028516  -0.049423
    111       0.001090   0.000599  -0.001065  -0.000199  -0.000544  -0.046390
    112       0.000851   0.000444  -0.000774  -0.000131  -0.000460  -0.040905
    113      -0.003132  -0.001667   0.002921   0.000489   0.001665  -0.004461


-----------
IR SPECTRUM
-----------

 Mode   freq       eps      Int      T**2         TX        TY        TZ
       cm**-1   L/(mol*cm) km/mol    a.u.
----------------------------------------------------------------------------
  7:      9.83   0.000111    0.56  0.003536  ( 0.056373 -0.017881 -0.006165)
  8:     24.63   0.000088    0.44  0.001115  (-0.015747 -0.012734  0.026553)
  9:     31.02   0.000456    2.30  0.004584  ( 0.066022 -0.001469 -0.014932)
 10:     41.18   0.000132    0.67  0.000998  (-0.007260  0.011773  0.028396)
 11:     49.63   0.001892    9.56  0.011896  ( 0.094779 -0.052249  0.013538)
 12:     56.27   0.000426    2.15  0.002363  ( 0.042043  0.021299 -0.011923)
 13:     64.10   0.001470    7.43  0.007154  ( 0.064902 -0.053570  0.008465)
 14:     75.58   0.000678    3.43  0.002799  (-0.012508  0.049437  0.014096)
 15:     78.85   0.006743   34.08  0.026686  ( 0.136400 -0.085698  0.027141)
 16:     93.08   0.001082    5.47  0.003629  ( 0.030673  0.050438  0.011991)
 17:    138.26   0.000235    1.19  0.000530  ( 0.018406 -0.011870 -0.007109)
 18:    179.66   0.011208   56.64  0.019467  ( 0.113373 -0.080542 -0.011245)
 19:    198.08   0.003799   19.20  0.005984  ( 0.056813 -0.052338 -0.004166)
 20:    201.45   0.017823   90.07  0.027608  ( 0.094540 -0.136469 -0.006831)
 21:    244.67   0.001008    5.10  0.001286  (-0.030874 -0.016549  0.007687)
 22:    260.59   0.000020    0.10  0.000025  ( 0.002303  0.004199 -0.001260)
 23:    265.84   0.000064    0.32  0.000075  ( 0.001403  0.006476 -0.005558)
 24:    290.20   0.008275   41.82  0.008899  (-0.008022  0.032497 -0.088195)
 25:    300.07   0.000200    1.01  0.000208  (-0.008845  0.002840  0.011042)
 26:    308.86   0.000188    0.95  0.000190  (-0.002296  0.002368  0.013382)
 27:    371.89   0.000120    0.61  0.000101  ( 0.005933  0.004738 -0.006576)
 28:    410.91   0.003104   15.68  0.002357  (-0.015843  0.029343 -0.035285)
 29:    423.13   0.000541    2.74  0.000399  ( 0.009140  0.010603 -0.014260)
 30:    445.94   0.002325   11.75  0.001627  (-0.025084 -0.029620  0.010968)
 31:    452.49   0.000943    4.77  0.000650  ( 0.022080  0.004337 -0.012006)
 32:    481.73   0.000093    0.47  0.000060  (-0.002437 -0.000989 -0.007299)
 33:    483.25   0.003376   17.06  0.002180  ( 0.027763  0.007822 -0.036716)
 34:    522.88   0.012827   64.82  0.007656  (-0.012104 -0.058239  0.064167)
 35:    535.95   0.001838    9.29  0.001070  (-0.016435  0.022951  0.016541)
 36:    602.47   0.000501    2.53  0.000259  ( 0.014132 -0.006599 -0.004014)
 37:    620.53   0.010360   52.36  0.005210  ( 0.056812  0.035452 -0.026938)
 38:    634.47   0.002706   13.67  0.001331  ( 0.008974  0.015498  0.031781)
 39:    696.80   0.004078   20.61  0.001827  ( 0.010856 -0.038689  0.014555)
 40:    712.40   0.007704   38.94  0.003375  (-0.051895  0.006392  0.025318)
 41:    766.98   0.009507   48.04  0.003868  ( 0.047202 -0.007793 -0.039739)
 42:    815.84   0.009117   46.07  0.003487  ( 0.053571 -0.018506 -0.016578)
 43:    824.89   0.005512   27.86  0.002085  ( 0.018195 -0.018401  0.037624)
 44:    832.03   0.009387   47.44  0.003521  (-0.006593  0.041258 -0.042132)
 45:    842.79   0.016834   85.07  0.006233  (-0.018828 -0.062028  0.045070)
 46:    858.12   0.000836    4.22  0.000304  ( 0.013721 -0.002015 -0.010565)
 47:    866.27   0.002014   10.18  0.000726  (-0.015611  0.021645 -0.003668)
 48:    873.09   0.040903  206.71  0.014620  (-0.114965 -0.001409  0.037426)
 49:    885.97   0.009180   46.39  0.003234  (-0.023885  0.023246  0.046073)
 50:    897.94   0.005698   28.79  0.001980  (-0.029462  0.033341 -0.000761)
 51:    914.54   0.004205   21.25  0.001435  (-0.031813  0.005677  0.019765)
 52:    942.39   0.005394   27.26  0.001786  ( 0.022685 -0.005610 -0.035216)
 53:    950.72   0.003442   17.40  0.001130  (-0.021675 -0.002499  0.025570)
 54:    970.26   0.002299   11.62  0.000740  ( 0.012579  0.024014  0.002154)
 55:   1012.42   0.000219    1.11  0.000067  (-0.007955  0.000291 -0.002022)
 56:   1021.84   0.001274    6.44  0.000389  ( 0.008868 -0.000046  0.017619)
 57:   1041.50   0.001825    9.22  0.000547  ( 0.022256  0.004315  0.005727)
 58:   1077.33   0.006503   32.86  0.001884  ( 0.016521  0.011117 -0.038563)
 59:   1083.71   0.004674   23.62  0.001346  ( 0.007697 -0.035603 -0.004365)
 60:   1097.01   0.007821   39.52  0.002225  ( 0.030364  0.000116  0.036095)
 61:   1099.58   0.034092  172.29  0.009675  ( 0.022021 -0.094044 -0.018602)
 62:   1104.87   0.004603   23.26  0.001300  (-0.013325  0.022576 -0.024757)
 63:   1120.26   0.003034   15.33  0.000845  ( 0.018843 -0.017885 -0.013049)
 64:   1134.63   0.000468    2.37  0.000129  (-0.002259 -0.000229  0.011121)
 65:   1146.13   0.012325   62.29  0.003356  ( 0.031724 -0.048450 -0.001423)
 66:   1146.45   0.001104    5.58  0.000300  ( 0.012922  0.009498  0.006575)
 67:   1155.58   0.003404   17.20  0.000919  ( 0.018185  0.014028 -0.019793)
 68:   1195.41   0.000391    1.98  0.000102  (-0.003612 -0.009144  0.002338)
 69:   1221.88   0.001196    6.05  0.000306  (-0.003337  0.017131  0.000976)
 70:   1245.32   0.001069    5.40  0.000268  ( 0.006545 -0.014770 -0.002623)
 71:   1260.24   0.008505   42.98  0.002106  ( 0.003211  0.034747 -0.029804)
 72:   1299.68   0.003591   18.15  0.000862  ( 0.000917  0.005435 -0.028844)
 73:   1311.55   0.000438    2.21  0.000104  (-0.002281 -0.007895  0.006058)
 74:   1327.87   0.002377   12.01  0.000559  ( 0.019285  0.007532 -0.011396)
 75:   1342.89   0.009727   49.16  0.002260  (-0.010573  0.045894  0.006508)
 76:   1347.75   0.000615    3.11  0.000142  (-0.007310  0.008963  0.002934)
 77:   1379.02   0.002904   14.68  0.000657  (-0.002603  0.025258  0.003520)
 78:   1398.69   0.009552   48.27  0.002131  (-0.011728  0.030037  0.033037)
 79:   1410.24   0.000950    4.80  0.000210  ( 0.012388  0.004284 -0.006188)
 80:   1418.45   0.028389  143.47  0.006246  ( 0.053581 -0.036292 -0.045360)
 81:   1422.36   0.001430    7.23  0.000314  ( 0.016301  0.001440  0.006776)
 82:   1456.21   0.007435   37.57  0.001593  ( 0.022245 -0.014594  0.029757)
 83:   1472.20   0.000733    3.70  0.000155  (-0.008823  0.008767  0.000784)
 84:   1476.39   0.002643   13.36  0.000559  ( 0.005804  0.002685 -0.022755)
 85:   1479.02   0.000354    1.79  0.000075  (-0.006223 -0.001877 -0.005692)
 86:   1479.91   0.001187    6.00  0.000250  ( 0.003942  0.010810  0.010854)
 87:   1483.46   0.002301   11.63  0.000484  (-0.013620  0.003147 -0.016992)
 88:   1490.85   0.000246    1.24  0.000052  (-0.006571  0.000361 -0.002868)
 89:   1493.66   0.003590   18.14  0.000750  ( 0.012039  0.021999  0.011003)
 90:   1512.80   0.009409   47.55  0.001941  (-0.018513  0.029540 -0.026936)
 91:   1562.49   0.143017  722.75  0.028564  (-0.154825 -0.037111 -0.056707)
 92:   1610.02   0.009145   46.21  0.001773  ( 0.018386 -0.020670  0.031737)
 93:   1635.86   0.003634   18.37  0.000693  (-0.001938  0.025668 -0.005535)
 94:   1647.30   0.018386   92.91  0.003483  ( 0.028635  0.018639  0.048120)
 95:   2311.78   0.000448    2.27  0.000061  ( 0.004487 -0.006168  0.001529)
 96:   2965.78   0.031902  161.22  0.003357  ( 0.013097  0.034281 -0.044833)
 97:   2969.47   0.030791  155.60  0.003236  (-0.022919  0.011874  0.050690)
 98:   2989.04   0.010635   53.74  0.001110  ( 0.007115 -0.010960 -0.030652)
 99:   2991.19   0.035405  178.92  0.003694  ( 0.000939  0.016789 -0.058403)
100:   3053.20   0.001933    9.77  0.000198  ( 0.009719  0.008684 -0.005260)
101:   3076.71   0.007678   38.80  0.000779  ( 0.004121  0.027143 -0.005004)
102:   3089.86   0.004982   25.18  0.000503  (-0.009888  0.018357  0.008270)
103:   3096.93   0.012787   64.62  0.001288  ( 0.001105  0.035672 -0.003843)
104:   3099.36   0.016109   81.41  0.001622  (-0.030224  0.000286  0.026616)
105:   3122.38   0.003338   16.87  0.000334  (-0.002241 -0.015149 -0.009956)
106:   3134.68   0.003317   16.76  0.000330  (-0.006138  0.015688 -0.006812)
107:   3141.12   0.309351  1563.33  0.030733  ( 0.077533  0.052217 -0.148308)
108:   3182.70   0.003277   16.56  0.000321  ( 0.005377 -0.003413  0.016756)
109:   3193.10   0.000387    1.96  0.000038  (-0.000142 -0.003821  0.004820)
110:   3193.56   0.001150    5.81  0.000112  ( 0.001371  0.008043 -0.006770)
111:   3205.69   0.000271    1.37  0.000026  ( 0.001527  0.004882  0.000440)
112:   3497.02   0.033171  167.63  0.002960  ( 0.049996  0.011558  0.018079)
113:   3813.30   0.013520   68.32  0.001106  ( 0.023228  0.021894 -0.009354)

* The epsilon (eps) is given for a Dirac delta lineshape.
** The dipole moment derivative (T) already includes vibrational overlap.

The first frequency considered to be a vibration is 7
The total number of vibrations considered is 107


--------------------------
THERMOCHEMISTRY AT 298.15K
--------------------------

Temperature         ... 298.15 K
Pressure            ... 1.00 atm
Total Mass          ... 291.74 AMU

Throughout the following assumptions are being made:
  (1) The electronic state is orbitally nondegenerate
  (2) There are no thermally accessible electronically excited states
  (3) Hindered rotations indicated by low frequency modes are not
      treated as such but are treated as vibrations and this may
      cause some error
  (4) All equations used are the standard statistical mechanics
      equations for an ideal gas
  (5) All vibrations are strictly harmonic

freq.       9.83  E(vib)   ...       0.58 
freq.      24.63  E(vib)   ...       0.56 
freq.      31.02  E(vib)   ...       0.55 
freq.      41.18  E(vib)   ...       0.54 
freq.      49.63  E(vib)   ...       0.52 
freq.      56.27  E(vib)   ...       0.52 
freq.      64.10  E(vib)   ...       0.51 
freq.      75.58  E(vib)   ...       0.49 
freq.      78.85  E(vib)   ...       0.49 
freq.      93.08  E(vib)   ...       0.47 
freq.     138.26  E(vib)   ...       0.42 
freq.     179.66  E(vib)   ...       0.37 
freq.     198.08  E(vib)   ...       0.35 
freq.     201.45  E(vib)   ...       0.35 
freq.     244.67  E(vib)   ...       0.31 
freq.     260.59  E(vib)   ...       0.30 
freq.     265.84  E(vib)   ...       0.29 
freq.     290.20  E(vib)   ...       0.27 
freq.     300.07  E(vib)   ...       0.26 
freq.     308.86  E(vib)   ...       0.26 
freq.     371.89  E(vib)   ...       0.21 
freq.     410.91  E(vib)   ...       0.19 
freq.     423.13  E(vib)   ...       0.18 
freq.     445.94  E(vib)   ...       0.17 
freq.     452.49  E(vib)   ...       0.16 
freq.     481.73  E(vib)   ...       0.15 
freq.     483.25  E(vib)   ...       0.15 
freq.     522.88  E(vib)   ...       0.13 
freq.     535.95  E(vib)   ...       0.12 
freq.     602.47  E(vib)   ...       0.10 
freq.     620.53  E(vib)   ...       0.09 
freq.     634.47  E(vib)   ...       0.09 
freq.     696.80  E(vib)   ...       0.07 
freq.     712.40  E(vib)   ...       0.07 
freq.     766.98  E(vib)   ...       0.06 
freq.     815.84  E(vib)   ...       0.05 
freq.     824.89  E(vib)   ...       0.04 
freq.     832.03  E(vib)   ...       0.04 
freq.     842.79  E(vib)   ...       0.04 
freq.     858.12  E(vib)   ...       0.04 
freq.     866.27  E(vib)   ...       0.04 
freq.     873.09  E(vib)   ...       0.04 
freq.     885.97  E(vib)   ...       0.04 
freq.     897.94  E(vib)   ...       0.03 
freq.     914.54  E(vib)   ...       0.03 
freq.     942.39  E(vib)   ...       0.03 
freq.     950.72  E(vib)   ...       0.03 
freq.     970.26  E(vib)   ...       0.03 
freq.    1012.42  E(vib)   ...       0.02 
freq.    1021.84  E(vib)   ...       0.02 
freq.    1041.50  E(vib)   ...       0.02 
freq.    1077.33  E(vib)   ...       0.02 
freq.    1083.71  E(vib)   ...       0.02 
freq.    1097.01  E(vib)   ...       0.02 
freq.    1099.58  E(vib)   ...       0.02 
freq.    1104.87  E(vib)   ...       0.02 
freq.    1120.26  E(vib)   ...       0.01 
freq.    1134.63  E(vib)   ...       0.01 
freq.    1146.13  E(vib)   ...       0.01 
freq.    1146.45  E(vib)   ...       0.01 
freq.    1155.58  E(vib)   ...       0.01 
freq.    1195.41  E(vib)   ...       0.01 
freq.    1221.88  E(vib)   ...       0.01 
freq.    1245.32  E(vib)   ...       0.01 
freq.    1260.24  E(vib)   ...       0.01 
freq.    1299.68  E(vib)   ...       0.01 
freq.    1311.55  E(vib)   ...       0.01 
freq.    1327.87  E(vib)   ...       0.01 
freq.    1342.89  E(vib)   ...       0.01 
freq.    1347.75  E(vib)   ...       0.01 
freq.    1379.02  E(vib)   ...       0.01 
freq.    1398.69  E(vib)   ...       0.00 
freq.    1410.24  E(vib)   ...       0.00 
freq.    1418.45  E(vib)   ...       0.00 
freq.    1422.36  E(vib)   ...       0.00 
freq.    1456.21  E(vib)   ...       0.00 
freq.    1472.20  E(vib)   ...       0.00 
freq.    1476.39  E(vib)   ...       0.00 
freq.    1479.02  E(vib)   ...       0.00 
freq.    1479.91  E(vib)   ...       0.00 
freq.    1483.46  E(vib)   ...       0.00 
freq.    1490.85  E(vib)   ...       0.00 
freq.    1493.66  E(vib)   ...       0.00 
freq.    1512.80  E(vib)   ...       0.00 
freq.    1562.49  E(vib)   ...       0.00 
freq.    1610.02  E(vib)   ...       0.00 
freq.    1635.86  E(vib)   ...       0.00 
freq.    1647.30  E(vib)   ...       0.00 
freq.    2311.78  E(vib)   ...       0.00 
freq.    2965.78  E(vib)   ...       0.00 
freq.    2969.47  E(vib)   ...       0.00 
freq.    2989.04  E(vib)   ...       0.00 
freq.    2991.19  E(vib)   ...       0.00 
freq.    3053.20  E(vib)   ...       0.00 
freq.    3076.71  E(vib)   ...       0.00 
freq.    3089.86  E(vib)   ...       0.00 
freq.    3096.93  E(vib)   ...       0.00 
freq.    3099.36  E(vib)   ...       0.00 
freq.    3122.38  E(vib)   ...       0.00 
freq.    3134.68  E(vib)   ...       0.00 
freq.    3141.12  E(vib)   ...       0.00 
freq.    3182.70  E(vib)   ...       0.00 
freq.    3193.10  E(vib)   ...       0.00 
freq.    3193.56  E(vib)   ...       0.00 
freq.    3205.69  E(vib)   ...       0.00 
freq.    3497.02  E(vib)   ...       0.00 
freq.    3813.30  E(vib)   ...       0.00 

------------
INNER ENERGY
------------

The inner energy is: U= E(el) + E(ZPE) + E(vib) + E(rot) + E(trans)
    E(el)   - is the total energy from the electronic structure calculation
              = E(kin-el) + E(nuc-el) + E(el-el) + E(nuc-nuc)
    E(ZPE)  - the the zero temperature vibrational energy from the frequency calculation
    E(vib)  - the the finite temperature correction to E(ZPE) due to population
              of excited vibrational states
    E(rot)  - is the rotational thermal energy
    E(trans)- is the translational thermal energy

Summary of contributions to the inner energy U:
Electronic energy                ...  -1339.12491952 Eh
Zero point energy                ...      0.30595393 Eh     191.99 kcal/mol
Thermal vibrational correction   ...      0.01777828 Eh      11.16 kcal/mol
Thermal rotational correction    ...      0.00141627 Eh       0.89 kcal/mol
Thermal translational correction ...      0.00141627 Eh       0.89 kcal/mol
-----------------------------------------------------------------------
Total thermal energy                  -1338.79835476 Eh


Summary of corrections to the electronic energy:
(perhaps to be used in another calculation)
Total thermal correction                  0.02061083 Eh      12.93 kcal/mol
Non-thermal (ZPE) correction              0.30595393 Eh     191.99 kcal/mol
-----------------------------------------------------------------------
Total correction                          0.32656476 Eh     204.92 kcal/mol


--------
ENTHALPY
--------

The enthalpy is H = U + kB*T
                kB is Boltzmann's constant
Total free energy                 ...  -1338.79835476 Eh 
Thermal Enthalpy correction       ...      0.00094421 Eh       0.59 kcal/mol
-----------------------------------------------------------------------
Total Enthalpy                    ...  -1338.79741055 Eh


Note: Only C1 symmetry has been detected, increase convergence thresholds 
      if your molecule has a higher symmetry. Symmetry factor of 1.0 is   
      used for the rotational entropy correction. 
 

Note: Rotational entropy computed according to Herzberg 
Infrared and Raman Spectra, Chapter V,1, Van Nostrand Reinhold, 1945 
Point Group:  C1, Symmetry Number:   1  
Rotational constants in cm-1:     0.013583     0.006135     0.005121 

Vibrational entropy computed according to the QRRHO of S. Grimme
Chem.Eur.J. 2012 18 9955


-------
ENTROPY
-------

The entropy contributions are T*S = T*(S(el)+S(vib)+S(rot)+S(trans))
     S(el)   - electronic entropy
     S(vib)  - vibrational entropy
     S(rot)  - rotational entropy
     S(trans)- translational entropy
The entropies will be listed as multiplied by the temperature to get
units of energy

Electronic entropy                ...      0.00000000 Eh      0.00 kcal/mol
Vibrational entropy               ...      0.03273621 Eh     20.54 kcal/mol
Rotational entropy                ...      0.01643500 Eh     10.31 kcal/mol
Translational entropy             ...      0.02038763 Eh     12.79 kcal/mol
-----------------------------------------------------------------------
Final entropy term                ...      0.06955884 Eh     43.65 kcal/mol

In case the symmetry of your molecule has not been determined correctly
or in case you have a reason to use a different symmetry number we print 
out the resulting rotational entropy values for sn=1,12 :
 --------------------------------------------------------
|  sn= 1 | S(rot)=       0.01643500 Eh     10.31 kcal/mol|
|  sn= 2 | S(rot)=       0.01578054 Eh      9.90 kcal/mol|
|  sn= 3 | S(rot)=       0.01539771 Eh      9.66 kcal/mol|
|  sn= 4 | S(rot)=       0.01512608 Eh      9.49 kcal/mol|
|  sn= 5 | S(rot)=       0.01491540 Eh      9.36 kcal/mol|
|  sn= 6 | S(rot)=       0.01474325 Eh      9.25 kcal/mol|
|  sn= 7 | S(rot)=       0.01459771 Eh      9.16 kcal/mol|
|  sn= 8 | S(rot)=       0.01447163 Eh      9.08 kcal/mol|
|  sn= 9 | S(rot)=       0.01436042 Eh      9.01 kcal/mol|
|  sn=10 | S(rot)=       0.01426094 Eh      8.95 kcal/mol|
|  sn=11 | S(rot)=       0.01417095 Eh      8.89 kcal/mol|
|  sn=12 | S(rot)=       0.01408880 Eh      8.84 kcal/mol|
 --------------------------------------------------------


-------------------
GIBBS FREE ENERGY
-------------------

The Gibbs free energy is G = H - T*S

Total enthalpy                    ...  -1338.79741055 Eh 
Total entropy correction          ...     -0.06955884 Eh    -43.65 kcal/mol
-----------------------------------------------------------------------
Final Gibbs free energy         ...  -1338.86696939 Eh

For completeness - the Gibbs free energy minus the electronic energy
G-E(el)                           ...      0.25795013 Eh    161.87 kcal/mol



Timings for individual modules:

Sum of individual times         ...     5760.686 sec (=  96.011 min)
GTO integral calculation        ...       12.508 sec (=   0.208 min)   0.2 %
SCF iterations                  ...      208.146 sec (=   3.469 min)   3.6 %
SCF Gradient evaluation         ...       36.014 sec (=   0.600 min)   0.6 %
Numerical frequency calculation ...     5504.018 sec (=  91.734 min)  95.5 %
                             ****ORCA TERMINATED NORMALLY****
TOTAL RUN TIME: 0 days 1 hours 33 minutes 54 seconds 532 msec
