 *******************************************************************************
 **                                                                           **
 **                              MOPAC v22.0.6                                **
 **                                                                           **
 *******************************************************************************
 **          Digital Object Identifier (DOI): 10.5281/zenodo.6511958          **
 **    Visit the DOI location for information on how to cite this program.    **
 *******************************************************************************

                              PM7 CALCULATION RESULTS

 *******************************************************************************
 *  CALCULATION DONE:                                Tue Mar 26 11:28:23 2024  *
 *  PM7        - The PM7 Hamiltonian to be used
 *  SINGLET    - SPIN STATE DEFINED AS A SINGLET
 *
 *
 *
 *                 CHARGE ON SYSTEM = 0
 *
 *
 *
 *  EPS=78.4   - USE ANDREAS KLAMT'S COSMO IMPLICIT SOLVATION MODEL
 *  SADDLE     - TRANSITION STATE TO BE OPTIMIZED
 *  T=         - A TIME OF 14.0 DAYS REQUESTED
 *  DUMP=N     - RESTART FILE WRITTEN EVERY 30.0 MINUTES REQUESTED
 *  RELSCF     - DEFAULT SCF CRITERION MULTIPLIED BY 1.0000
 *              (DEFAULT SCF CRITERION = 0.00010)
 *  ITRY=      - DO A MAXIMUM OF 15000 ITERATIONS FOR SCF
 *  AUX        - OUTPUT AUXILIARY INFORMATION
 *  BONDS      - FINAL BOND-ORDER MATRIX TO BE PRINTED
 *******************************************************************************
SADDLE PM7 BONDS AUX DUMP=30M ITRY=15000 T=14D CHARGE=0 SINGLET eps=78.4 RELSCF=1


   ATOM   CHEMICAL          X               Y               Z
  NUMBER   SYMBOL      (ANGSTROMS)     (ANGSTROMS)     (ANGSTROMS)

     1       C          0.09332525  *   3.37944469  *   0.97072853  *
     2       C          0.73200714  *   2.14322260  *   0.96667929  *
     3       C          0.06314942  *   1.00768673  *   1.43073030  *
     4       C         -1.25668627  *   1.10992650  *   1.87068576  *
     5       C         -1.89203435  *   2.34977066  *   1.87810267  *
     6       C         -1.21750470  *   3.48492249  *   1.43180314  *
     7       H          0.62212097  *   4.26417145  *   0.61409035  *
     8       H          1.75919601  *   2.06547177  *   0.59909269  *
     9       H         -1.79999749  *   0.22479969  *   2.20867906  *
    10       H         -1.71514651  *   4.45546191  *   1.44185750  *
    11       C          0.81363199  *  -0.29712706  *   1.46242607  *
    12       C          0.43527326  *  -1.19321971  *   2.63396021  *
    13       H          1.08802039  *  -2.07430236  *   2.71418572  *
    14       H         -0.59933327  *  -1.56156458  *   2.57814684  *
    15       H          0.52904888  *  -0.63959786  *   3.58164844  *
    16       N          0.53180882  *  -1.03732081  *   0.18582991  *
    17       O          1.46790724  *  -1.27589527  *  -0.56077597  *
    18       O         -0.61020875  *  -1.37766201  *  -0.07234552  *
    19       N          5.03035228  *   0.39523710  *   4.22696912  *
    20       C          5.80121612  *  -0.86252749  *   4.36820408  *
    21       C          6.63794680  *  -0.81157057  *   5.66526575  *
    22       N          7.55444452  *   0.35550557  *   5.62423977  *
    23       C          6.78264930  *   1.61516166  *   5.48220352  *
    24       C          5.94136897  *   1.56569078  *   4.19026200  *
    25       H          5.31727788  *   2.48288588  *   4.11087756  *
    26       H          6.61392527  *   1.55332707  *   3.30603406  *
    27       H          7.50408746  *   2.45924601  *   5.43087820  *
    28       H          6.11971995  *   1.80912661  *   6.35224820  *
    29       H          7.25581567  *  -1.73122140  *   5.75416141  *
    30       H          5.96005035  *  -0.78793875  *   6.54509209  *
    31       H          6.46660020  *  -1.05625334  *   3.50029722  *
    32       H          1.93333732  *  -0.09462883  *   1.49419292  *
    33       H          4.47448418  *   0.37480500  *   3.36088924  *
    34       H          5.07688405  *  -1.70475634  *   4.41818596  *
    35       H          8.10799873  *   0.38928343  *   6.48926318  *
    36       H          4.19048998  *   1.65726523  *   1.12110058  *
    37       H          3.31847778  *   2.04037991  *   2.31039329  *
    38       O          3.60569400  *   1.27821890  *   1.79185169  *
    39       H         -2.91805893  *   2.43403462  *   2.23873513  *



          CARTESIAN COORDINATES 

    NO.       ATOM           X           Y           Z

     1         C          0.0933      3.3794      0.9707
     2         C          0.7320      2.1432      0.9667
     3         C          0.0631      1.0077      1.4307
     4         C         -1.2567      1.1099      1.8707
     5         C         -1.8920      2.3498      1.8781
     6         C         -1.2175      3.4849      1.4318
     7         H          0.6221      4.2642      0.6141
     8         H          1.7592      2.0655      0.5991
     9         H         -1.8000      0.2248      2.2087
    10         H         -1.7151      4.4555      1.4419
    11         C          0.8136     -0.2971      1.4624
    12         C          0.4353     -1.1932      2.6340
    13         H          1.0880     -2.0743      2.7142
    14         H         -0.5993     -1.5616      2.5781
    15         H          0.5290     -0.6396      3.5816
    16         N          0.5318     -1.0373      0.1858
    17         O          1.4679     -1.2759     -0.5608
    18         O         -0.6102     -1.3777     -0.0723
    19         N          5.0304      0.3952      4.2270
    20         C          5.8012     -0.8625      4.3682
    21         C          6.6379     -0.8116      5.6653
    22         N          7.5544      0.3555      5.6242
    23         C          6.7826      1.6152      5.4822
    24         C          5.9414      1.5657      4.1903
    25         H          5.3173      2.4829      4.1109
    26         H          6.6139      1.5533      3.3060
    27         H          7.5041      2.4592      5.4309
    28         H          6.1197      1.8091      6.3522
    29         H          7.2558     -1.7312      5.7542
    30         H          5.9601     -0.7879      6.5451
    31         H          6.4666     -1.0563      3.5003
    32         H          1.9333     -0.0946      1.4942
    33         H          4.4745      0.3748      3.3609
    34         H          5.0769     -1.7048      4.4182
    35         H          8.1080      0.3893      6.4893
    36         H          4.1905      1.6573      1.1211
    37         H          3.3185      2.0404      2.3104
    38         O          3.6057      1.2782      1.7919
    39         H         -2.9181      2.4340      2.2387

 General Reference for PM7:
 "Optimization of Parameters for Semiempirical Methods VI: More Modifications to the 
 NDDO Approximations and Re-optimization of Parameters", J. J. P. Stewart, J. Mol. Mod., 1:32, 19 (2013)
 https://link.springer.com/article/10.1007/s00894-012-1667-x

           Empirical Formula: C12 H21 N3 O3  =    39 atoms



      MOLECULAR POINT GROUP   :   C1  


 SINGLET STATE CALCULATION


      RHF CALCULATION, NO. OF DOUBLY OCCUPIED LEVELS = 51



  CARTESIAN GEOMETRY OF FIRST SYSTEM


   1    C          2.41810       2.57127       1.21295
   2    C          2.58185       1.19422       1.34629
   3    C          1.46226       0.36298       1.39542
   4    C          0.18117       0.91264       1.31848
   5    C          0.02188       2.29014       1.19029
   6    C          1.14032       3.12040       1.12817
   7    H          3.29628       3.21655       1.17198
   8    H          3.58735       0.77177       1.40947
   9    H         -0.69929       0.26925       1.35475
  10    H          1.01585       4.19778       1.00743
  11    C          1.65830      -1.12408       1.52973
  12    C          0.93226      -1.69835       2.73821
  13    H          1.14934      -2.76676       2.88990
  14    H         -0.16083      -1.60626       2.66999
  15    H          1.23481      -1.16996       3.65612
  16    N          1.20453      -1.79086       0.26570
  17    O          1.44096      -1.24232      -0.79945
  18    O          0.63333      -2.86694       0.32310
  19    N          4.95721      -2.11240       3.84407
  20    C          4.12842      -3.14232       4.51219
  21    C          4.31516      -3.02987       6.04219
  22    N          5.74665      -3.20409       6.39701
  23    C          6.57547      -2.18367       5.70639
  24    C          6.38710      -2.30630       4.17769
  25    H          6.97503      -1.51594       3.66270
  26    H          6.78084      -3.28469       3.82915
  27    H          7.64016      -2.36158       5.97087
  28    H          6.32633      -1.15054       6.03146
  29    H          3.73413      -3.82609       6.55510
  30    H          3.91492      -2.05304       6.39023
  31    H          4.36714      -4.17193       4.17116
  32    H          2.76942      -1.36707       1.61049
  33    H          4.81644      -2.13844       2.82712
  34    H          3.06361      -2.95056       4.25445
  35    H          5.85987      -3.10515       7.41414
  36    H          4.86407      -2.43440       0.14039
  37    H          5.37333      -1.10604       0.68582
  38    O          4.69076      -1.77542       0.82200
  39    H         -0.98082       2.71670       1.13936


  CARTESIAN GEOMETRY OF SECOND SYSTEM


   1    C          2.57992       2.32396       0.36553
   2    C          2.44488       0.94950       0.53517
   3    C          1.22411       0.41154       0.95047
   4    C          0.13189       1.25204       1.16633
   5    C          0.27132       2.62825       1.00034
   6    C          1.49477       3.16528       0.60346
   7    H          3.53695       2.73972       0.04804
   8    H          3.29853       0.29349       0.34225
   9    H         -0.83553       0.84109       1.46315
  10    H          1.60322       4.24329       0.47766
  11    C          1.14156      -1.07457       1.17722
  12    C          0.21893      -1.46927       2.32248
  13    H          0.27890      -2.54176       2.55697
  14    H         -0.83799      -1.24079       2.12268
  15    H          0.49774      -0.92633       3.23948
  16    N          0.63921      -1.71934      -0.08331
  17    O          1.36940      -2.51341      -0.65506
  18    O         -0.47111      -1.43805      -0.50135
  19    N          4.74710      -2.34256       4.53803
  20    C          4.69558      -3.78516       4.87327
  21    C          5.28621      -4.00840       6.28267
  22    N          6.68661      -3.51742       6.32213
  23    C          6.73846      -2.07285       5.98583
  24    C          6.14430      -1.84528       4.58066
  25    H          6.12769      -0.75747       4.34951
  26    H          6.79121      -2.32922       3.81800
  27    H          7.80244      -1.75154       6.00243
  28    H          6.19927      -1.44350       6.72561
  29    H          5.29530      -5.09371       6.52234
  30    H          4.64139      -3.51279       7.03949
  31    H          5.23672      -4.41531       4.13598
  32    H          2.18232      -1.49031       1.37652
  33    H          4.36244      -2.18359       3.59661
  34    H          3.63032      -4.10357       4.85478
  35    H          7.07666      -3.66412       7.26137
  36    H          5.05262      -1.25969       1.27022
  37    H          4.40790      -0.31841       2.28014
  38    O          4.28955      -1.17924       1.85914
  39    H         -0.57711       3.28817       1.18622


   "DISTANCE":     6.836701


  REACTION COORDINATE VECTOR


   1    C         -0.16182       0.24731       0.84742
   2    C          0.13697       0.24473       0.81111
   3    C          0.23815      -0.04856       0.44495
   4    C          0.04928      -0.33940       0.15215
   5    C         -0.24944      -0.33811       0.18995
   6    C         -0.35445      -0.04488       0.52471
   7    H         -0.24067       0.47683       1.12394
   8    H          0.28882       0.47828       1.06722
   9    H          0.13624      -0.57183      -0.10840
  10    H         -0.58738      -0.04552       0.52977
  11    C          0.51674      -0.04951       0.35251
  12    C          0.71333      -0.22908       0.41574
  13    H          0.87044      -0.22500       0.33293
  14    H          0.67716      -0.36546       0.54731
  15    H          0.73707      -0.24363       0.41664
  16    N          0.56532      -0.07151       0.34900
  17    O          0.07156       1.27110      -0.14439
  18    O          1.10444      -1.42888       0.82445
  19    N          0.21011       0.23016      -0.69395
  20    C         -0.56716       0.64285      -0.36108
  21    C         -0.97105       0.97853      -0.24048
  22    N         -0.93996       0.31333       0.07488
  23    C         -0.16299      -0.11082      -0.27945
  24    C          0.24280      -0.46102      -0.40297
  25    H          0.84733      -0.75847      -0.68682
  26    H         -0.01037      -0.95547       0.01115
  27    H         -0.16228      -0.61004      -0.03157
  28    H          0.12706       0.29296      -0.69415
  29    H         -1.56117       1.26762       0.03276
  30    H         -0.72647       1.45975      -0.64927
  31    H         -0.86958       0.24338       0.03518
  32    H          0.58709       0.12324       0.23396
  33    H          0.45400       0.04515      -0.76949
  34    H         -0.56671       1.15301      -0.60033
  35    H         -1.21679       0.55896       0.15277
  36    H         -0.18855      -1.17470      -1.12983
  37    H          0.96543      -0.78762      -1.59432
  38    O          0.40121      -0.59618      -1.03714
  39    H         -0.40371      -0.57147      -0.04685
 *+*+*+*+*+*+*+*+*+*+*+*+*+*+*+*+*+*+*+*+*+*+*+*+*+*+*+*+*+*+*+*+*+*+*+*+*+*+*+*+
            BAR SHORTENED BY       0.000 PERCENT
 GRADIENT CRITERION IN FLEPO =     1.000
  SCF CRITERION =    0.1000E-03


          FOR POINT    1 SECOND STRUCTURE
 DISTANCE A - B      6.836701
 HEAT              -74.336958
 GRADIENT NORM       3.459819
 DIRECTION COSINE    0.000006
* ===============================
* Input file for Mopac
* ===============================
 PM7 BONDS AUX DUMP=30M ITRY=15000 T=14D CHARGE=0 SINGLET eps=78.4 RELSCF=1


  C     0.00000000 +0    0.0000000 +0    0.0000000 +0     0     0     0
  C     1.39325931 +1    0.0000000 +0    0.0000000 +0     1     0     0
  C     1.39580359 +1  119.8919427 +1    0.0000000 +0     2     1     0
  C     1.39584462 +1  120.0219974 +1   -0.4075717 +1     3     2     1
  C     1.39204291 +1  119.9304495 +1    0.2270704 +1     4     3     2
  C     1.39364983 +1  120.0852236 +1    0.3351105 +1     5     4     3
  H     1.09183196 +1  119.9159548 +1 -179.7730036 +1     1     2     3
  H     1.09271421 +1  119.6991026 +1  179.6041906 +1     2     1     3
  H     1.09145930 +1  120.4242475 +1 -179.9245880 +1     4     3     2
  H     1.09023381 +1  120.0279380 +1  179.1496842 +1     6     5     4
  C     1.50498620 +1  119.0963353 +1  179.4573058 +1     3     2     1
  C     1.52185732 +1  112.3214670 +1  123.8723396 +1    11     3     2
  H     1.09996739 +1  112.1008681 +1 -174.8802520 +1    12    11     3
  H     1.09941324 +1  112.8970695 +1   64.4643607 +1    12    11     3
  H     1.10132573 +1  110.5203020 +1  -55.1526979 +1    12    11     3
  N     1.50007787 +1  108.9757390 +1 -112.7898882 +1    11     3     2
  O     1.22171091 +1  118.4952823 +1   38.4883653 +1    16    11     3
  O     1.22071891 +1  119.4844217 +1 -142.6620635 +1    16    11     3
  N     3.84284877 +1  101.0171556 +1  -64.3273389 +1    15    12    11
  C     1.48175393 +1   69.5567342 +1  -87.1945580 +1    19    15    12
  C     1.54518609 +1  109.1191115 +1 -107.2131963 +1    20    19    15
  N     1.48501320 +1  110.1141982 +1  -58.5139797 +1    21    20    19
  C     1.48461962 +1  110.3359751 +1   58.3265436 +1    22    21    20
  C     1.48144729 +1  168.0477608 +1 -178.8228469 +1    19    15    12
  H     1.11186095 +1  108.2385976 +1  -92.8213305 +1    24    19    15
  H     1.11064834 +1  112.6918809 +1  148.9172447 +1    24    19    15
  H     1.11112889 +1  108.2070696 +1 -178.3975645 +1    23    22    21
  H     1.11131052 +1  112.2650010 +1   63.5984536 +1    23    22    21
  H     1.11142454 +1  109.8644580 +1 -177.5137177 +1    21    20    19
  H     1.11040383 +1  109.3915796 +1   65.2059970 +1    21    20    19
  H     1.11073507 +1  112.5573411 +1  130.5361383 +1    20    19    15
  H     1.14029044 +1  110.2044366 +1    1.8843488 +1    11     3     2
  H     1.02666360 +1   79.9202316 +1   29.4356908 +1    19    15    12
  H     1.11235526 +1  108.1764555 +1   11.8537002 +1    20    19    15
  H     1.02807568 +1  109.3580802 +1  178.6600533 +1    22    21    20
  H     2.70703739 +1  169.8599612 +1 -164.9743108 +1    33    19    15
  H     1.52306381 +1   63.4703097 +1  -96.7471727 +1    36    33    19
  O     0.96467625 +1   38.3818359 +1 -134.5490732 +1    36    33    19
  H     1.09082516 +1  119.8587538 +1 -179.6165608 +1     5     4     3

 TIME=     0.76
  REACTANTS AND PRODUCTS SWAPPED AROUND
 *+*+*+*+*+*+*+*+*+*+*+*+*+*+*+*+*+*+*+*+*+*+*+*+*+*+*+*+*+*+*+*+*+*+*+*+*+*+*+*+
            BAR SHORTENED BY       1.000 PERCENT
 GRADIENT CRITERION IN FLEPO =     1.000
           THERE HAVE BEEN 3 ATTEMPTS TO REDUCE THE GRADIENT.
           DURING THESE ATTEMPTS THE ENERGY DROPPED BY LESS THAN 0.3 KCAL/MOLE
           FURTHER CALCULATION IS NOT JUSTIFIED AT THIS TIME.
           TO CONTINUE, START AGAIN WITH THE WORD "PRECISE"


          FOR POINT    2 FIRST  STRUCTURE
 DISTANCE A - B      6.768334
 HEAT              -73.471825
 GRADIENT NORM       7.509108
 DIRECTION COSINE    0.032614
* ===============================
* Input file for Mopac
* ===============================
 PM7 BONDS AUX DUMP=30M ITRY=15000 T=14D CHARGE=0 SINGLET eps=78.4 RELSCF=1


  C     0.00000000 +0    0.0000000 +0    0.0000000 +0     0     0     0
  C     1.39323166 +1    0.0000000 +0    0.0000000 +0     1     0     0
  C     1.39695308 +1  120.1322629 +1    0.0000000 +0     2     1     0
  C     1.39450152 +1  119.7949597 +1    1.4045050 +1     3     2     1
  C     1.39584422 +1  119.9988120 +1   -1.4879124 +1     4     3     2
  C     1.39253340 +1  120.0454115 +1    0.5428693 +1     5     4     3
  H     1.08982771 +1  119.8328177 +1  179.5935119 +1     1     2     3
  H     1.09335563 +1  119.6240886 +1  179.9685192 +1     2     1     3
  H     1.09203447 +1  120.5423565 +1  178.4867484 +1     4     3     2
  H     1.09069522 +1  119.9178811 +1 -179.5886632 +1     6     5     4
  C     1.50450193 +1  118.4447990 +1 -177.5234459 +1     3     2     1
  C     1.52341982 +1  113.7449436 +1  144.9193656 +1    11     3     2
  H     1.10037163 +1  112.1887024 +1 -172.1094194 +1    12    11     3
  H     1.09950850 +1  112.9983220 +1   66.4677965 +1    12    11     3
  H     1.10180789 +1  110.4395971 +1  -53.2691249 +1    12    11     3
  N     1.50296919 +1  108.4271989 +1  -94.1548567 +1    11     3     2
  O     1.22226201 +1  118.3831256 +1  117.3636314 +1    16    11     3
  O     1.22010021 +1  119.6580906 +1  -62.5180004 +1    16    11     3
  N     4.64959095 +1  108.1642518 +1  -65.1836271 +1    15    12    11
  C     1.48172392 +1  108.8115133 +1  -63.9393616 +1    19    15    12
  C     1.54410534 +1  109.4969605 +1 -126.7047204 +1    20    19    15
  N     1.48527513 +1  109.8283267 +1  -58.7202386 +1    21    20    19
  C     1.48476411 +1  110.3284980 +1   59.0939760 +1    22    21    20
  C     1.48399845 +1  140.2546871 +1  107.7869919 +1    19    15    12
  H     1.11363907 +1  107.9735842 +1    9.6906102 +1    24    19    15
  H     1.11075825 +1  112.3672659 +1 -108.0281428 +1    24    19    15
  H     1.11066031 +1  108.1707010 +1 -178.5288193 +1    23    22    21
  H     1.11123714 +1  112.3375924 +1   63.6018300 +1    23    22    21
  H     1.11214492 +1  110.0026054 +1 -177.5298893 +1    21    20    19
  H     1.11036538 +1  109.6348321 +1   65.0045795 +1    21    20    19
  H     1.11097879 +1  112.5879595 +1  110.8831114 +1    20    19    15
  H     1.13799818 +1  109.8151006 +1   22.3754303 +1    11     3     2
  H     1.02936883 +1   50.4617622 +1   37.0926132 +1    19    15    12
  H     1.11064675 +1  108.0231980 +1   -7.1809529 +1    20    19    15
  H     1.02521432 +1  109.5432675 +1  179.5849593 +1    22    21    20
  H     2.51907733 +1  148.5298290 +1  112.7351763 +1     8     2     1
  H     1.52335529 +1   63.6800725 +1  -20.8810563 +1    36     8     2
  O     0.96564086 +1   38.0176449 +1   86.6035321 +1    37    36     8
  H     1.08935993 +1  119.8889926 +1 -179.5380260 +1     5     4     3

 TIME=     0.96
  REACTANTS AND PRODUCTS SWAPPED AROUND
 *+*+*+*+*+*+*+*+*+*+*+*+*+*+*+*+*+*+*+*+*+*+*+*+*+*+*+*+*+*+*+*+*+*+*+*+*+*+*+*+
            BAR SHORTENED BY       1.000 PERCENT
 GRADIENT CRITERION IN FLEPO =     4.509


          FOR POINT    3 SECOND STRUCTURE
 DISTANCE A - B      6.700650
 HEAT              -74.340078
 GRADIENT NORM       7.718051
 DIRECTION COSINE   -0.178253
* ===============================
* Input file for Mopac
* ===============================
 PM7 BONDS AUX DUMP=30M ITRY=15000 T=14D CHARGE=0 SINGLET eps=78.4 RELSCF=1


  C     0.00000000 +0    0.0000000 +0    0.0000000 +0     0     0     0
  C     1.39308974 +1    0.0000000 +0    0.0000000 +0     1     0     0
  C     1.39412494 +1  119.7099344 +1    0.0000000 +0     2     1     0
  C     1.39558997 +1  120.3417458 +1   -0.2551770 +1     3     2     1
  C     1.39356102 +1  119.7475051 +1    0.1561198 +1     4     3     2
  C     1.39360206 +1  120.1011507 +1   -0.0715779 +1     1     2     3
  H     1.09193603 +1  119.7465451 +1 -179.5523864 +1     1     2     3
  H     1.09184743 +1  119.8545955 +1  179.4353301 +1     2     1     3
  H     1.09127952 +1  120.6192811 +1  179.9158041 +1     4     3     2
  H     1.09129236 +1  119.9243940 +1 -179.4158924 +1     6     1     2
  C     1.50708202 +1  118.9339056 +1  179.4978644 +1     3     2     1
  C     1.52135493 +1  112.2807072 +1  124.3647461 +1    11     3     2
  H     1.10099307 +1  112.3021342 +1 -175.0438937 +1    12    11     3
  H     1.09981489 +1  112.9468321 +1   64.4788210 +1    12    11     3
  H     1.10112897 +1  110.6199171 +1  -55.2088335 +1    12    11     3
  N     1.49896717 +1  109.0403902 +1 -112.4715869 +1    11     3     2
  O     1.22024285 +1  118.7075972 +1   38.9234539 +1    16    11     3
  O     1.21932219 +1  119.6222082 +1 -142.1614148 +1    16    11     3
  N     3.85138600 +1  100.9838163 +1  -64.1734490 +1    15    12    11
  C     1.48132809 +1   70.0346612 +1  -87.2536269 +1    19    15    12
  C     1.54591431 +1  109.1826315 +1 -107.2144907 +1    20    19    15
  N     1.48550884 +1  110.0208862 +1  -58.6466094 +1    21    20    19
  C     1.48542422 +1  110.3106886 +1   58.3523397 +1    22    21    20
  C     1.48237884 +1  168.0363052 +1  179.6618633 +1    19    15    12
  H     1.11034159 +1  108.1089086 +1  -91.1933373 +1    24    19    15
  H     1.11202486 +1  112.5456938 +1  150.5395792 +1    24    19    15
  H     1.11179797 +1  108.1675944 +1 -178.5914981 +1    23    22    21
  H     1.11192837 +1  112.1286047 +1   63.6596458 +1    23    22    21
  H     1.11240389 +1  109.8861480 +1 -177.4069157 +1    21    20    19
  H     1.11092616 +1  109.3787192 +1   64.9796595 +1    21    20    19
  H     1.11114039 +1  112.5310853 +1  130.3015537 +1    20    19    15
  H     1.13858534 +1  110.4359437 +1    2.1022115 +1    11     3     2
  H     1.02483858 +1   79.5983077 +1   29.3110726 +1    19    15    12
  H     1.11204921 +1  108.3196459 +1   11.9125296 +1    20    19    15
  H     1.02806249 +1  109.4142856 +1  178.6698716 +1    22    21    20
  H     2.70529500 +1  169.5478891 +1 -166.3304988 +1    33    19    15
  H     1.52479829 +1   63.3782142 +1  -95.8697228 +1    36    33    19
  O     0.96565149 +1   38.3695512 +1 -133.7967593 +1    36    33    19
  H     1.09103200 +1  119.9423846 +1 -179.9338658 +1     5     4     3

 *+*+*+*+*+*+*+*+*+*+*+*+*+*+*+*+*+*+*+*+*+*+*+*+*+*+*+*+*+*+*+*+*+*+*+*+*+*+*+*+
            BAR SHORTENED BY       1.000 PERCENT
 GRADIENT CRITERION IN FLEPO =     4.718


          FOR POINT    4 SECOND STRUCTURE
 DISTANCE A - B      6.633644
 HEAT              -74.271774
 GRADIENT NORM      11.358138
 DIRECTION COSINE    0.258368
* ===============================
* Input file for Mopac
* ===============================
 PM7 BONDS AUX DUMP=30M ITRY=15000 T=14D CHARGE=0 SINGLET eps=78.4 RELSCF=1


  C     0.00000000 +0    0.0000000 +0    0.0000000 +0     0     0     0
  C     1.39275208 +1    0.0000000 +0    0.0000000 +0     1     0     0
  C     1.39678731 +1  119.8304484 +1    0.0000000 +0     2     1     0
  C     1.39619140 +1  120.1738174 +1   -0.1588885 +1     3     2     1
  C     1.39090176 +1  119.7564820 +1    0.2011475 +1     4     3     2
  C     1.39408723 +1  120.0439403 +1   -0.0680630 +1     1     2     3
  H     1.09164008 +1  119.6925558 +1 -179.4896134 +1     1     2     3
  H     1.09271057 +1  119.8859809 +1  179.3351892 +1     2     1     3
  H     1.08960171 +1  120.4267167 +1  179.9625115 +1     4     3     2
  H     1.09071643 +1  119.9052181 +1 -179.3073866 +1     6     1     2
  C     1.50391553 +1  118.9610438 +1  179.5704532 +1     3     2     1
  C     1.52353269 +1  112.2766338 +1  124.8501703 +1    11     3     2
  H     1.10019705 +1  112.0552083 +1 -174.9999040 +1    12    11     3
  H     1.09838480 +1  112.9373352 +1   64.2939671 +1    12    11     3
  H     1.10259317 +1  110.1815522 +1  -55.3792879 +1    12    11     3
  N     1.49729761 +1  109.0146174 +1 -112.1428240 +1    11     3     2
  O     1.21960145 +1  118.9551493 +1   39.3026138 +1    16    11     3
  O     1.21862271 +1  119.6453775 +1 -141.6983541 +1    16    11     3
  N     3.85423724 +1  101.2100858 +1  -64.1568599 +1    15    12    11
  C     1.47984542 +1   70.6558842 +1  -86.8081244 +1    19    15    12
  C     1.54498078 +1  109.1418997 +1 -107.3446463 +1    20    19    15
  N     1.48868867 +1  110.1324006 +1  -58.7384244 +1    21    20    19
  C     1.48260908 +1  110.2056735 +1   58.3969379 +1    22    21    20
  C     1.48422203 +1  168.1435403 +1  177.3509188 +1    19    15    12
  H     1.11013170 +1  108.3856577 +1  -88.5333482 +1    24    19    15
  H     1.11042895 +1  112.5890299 +1  153.3028288 +1    24    19    15
  H     1.11367694 +1  108.2296210 +1 -178.4528763 +1    23    22    21
  H     1.11187108 +1  112.2095389 +1   63.6922829 +1    23    22    21
  H     1.11070401 +1  109.8933901 +1 -177.5920969 +1    21    20    19
  H     1.10827381 +1  109.4234556 +1   65.0154375 +1    21    20    19
  H     1.11081341 +1  112.6191603 +1  130.2522872 +1    20    19    15
  H     1.13978061 +1  110.3223409 +1    2.4712351 +1    11     3     2
  H     1.02689544 +1   79.4276041 +1   29.9851153 +1    19    15    12
  H     1.11242277 +1  108.2401774 +1   11.7954847 +1    20    19    15
  H     1.02665411 +1  109.2635435 +1  178.7549068 +1    22    21    20
  H     2.69928080 +1  169.3144902 +1 -165.1285235 +1    33    19    15
  H     1.52380753 +1   63.2608518 +1  -97.5934698 +1    36    33    19
  O     0.96481706 +1   38.2789458 +1 -135.6997531 +1    36    33    19
  H     1.08995519 +1  120.0357477 +1  179.9171614 +1     5     4     3

 *+*+*+*+*+*+*+*+*+*+*+*+*+*+*+*+*+*+*+*+*+*+*+*+*+*+*+*+*+*+*+*+*+*+*+*+*+*+*+*+
            BAR SHORTENED BY       1.000 PERCENT
 GRADIENT CRITERION IN FLEPO =     8.358


          FOR POINT    5 SECOND STRUCTURE
 DISTANCE A - B      6.567307
 HEAT              -74.230368
 GRADIENT NORM      14.335743
 DIRECTION COSINE   -0.014433
* ===============================
* Input file for Mopac
* ===============================
 PM7 BONDS AUX DUMP=30M ITRY=15000 T=14D CHARGE=0 SINGLET eps=78.4 RELSCF=1


  C     0.00000000 +0    0.0000000 +0    0.0000000 +0     0     0     0
  C     1.39256671 +1    0.0000000 +0    0.0000000 +0     1     0     0
  C     1.39597393 +1  119.9490107 +1    0.0000000 +0     2     1     0
  C     1.39841691 +1  119.8924574 +1   -0.0431800 +1     3     2     1
  C     1.39151870 +1  120.0009454 +1   -0.0442189 +1     4     3     2
  C     1.39012995 +1  120.1178601 +1    0.2138225 +1     1     2     3
  H     1.09011546 +1  119.8077659 +1  179.8336298 +1     1     2     3
  H     1.09232432 +1  119.7926269 +1  179.4624713 +1     2     1     3
  H     1.09235809 +1  120.1112040 +1  179.8029557 +1     4     3     2
  H     1.09326690 +1  120.2585634 +1 -179.6236765 +1     6     1     2
  C     1.50327850 +1  119.0157197 +1  179.4568863 +1     3     2     1
  C     1.52121650 +1  112.2362809 +1  125.3107284 +1    11     3     2
  H     1.10141431 +1  112.1513342 +1 -175.1781646 +1    12    11     3
  H     1.09953929 +1  112.8188486 +1   64.4429442 +1    12    11     3
  H     1.09850955 +1  110.6141202 +1  -55.1482019 +1    12    11     3
  N     1.49455447 +1  108.9969914 +1 -111.6361928 +1    11     3     2
  O     1.22336758 +1  119.0565864 +1   39.7563448 +1    16    11     3
  O     1.22050259 +1  119.3584724 +1 -141.2658877 +1    16    11     3
  N     3.86733029 +1  100.9853987 +1  -64.1081652 +1    15    12    11
  C     1.48077223 +1   71.0126566 +1  -86.8487873 +1    19    15    12
  C     1.54734324 +1  109.0230196 +1 -107.4704410 +1    20    19    15
  N     1.48444841 +1  110.0578602 +1  -58.7570390 +1    21    20    19
  C     1.48373700 +1  110.3250185 +1   58.4900797 +1    22    21    20
  C     1.48184874 +1  168.3013113 +1  175.7703868 +1    19    15    12
  H     1.11811843 +1  108.0439496 +1  -86.8430014 +1    24    19    15
  H     1.11015123 +1  112.6051444 +1  154.8818517 +1    24    19    15
  H     1.11139356 +1  108.3340606 +1 -178.4848872 +1    23    22    21
  H     1.11086052 +1  112.1627763 +1   63.6311189 +1    23    22    21
  H     1.11240793 +1  109.7767385 +1 -177.4818120 +1    21    20    19
  H     1.10988742 +1  109.2972170 +1   64.9440876 +1    21    20    19
  H     1.11046731 +1  112.6049669 +1  130.1182318 +1    20    19    15
  H     1.14008775 +1  110.3838822 +1    3.1140234 +1    11     3     2
  H     1.02448174 +1   78.9305651 +1   29.5631352 +1    19    15    12
  H     1.11179176 +1  108.4143643 +1   11.6194477 +1    20    19    15
  H     1.03068258 +1  109.3927059 +1  178.8383953 +1    22    21    20
  H     2.70030975 +1  168.9594355 +1 -168.0758184 +1    33    19    15
  H     1.52541790 +1   63.2282068 +1  -95.2015408 +1    36    33    19
  O     0.96377821 +1   38.3175744 +1 -133.1457959 +1    36    33    19
  H     1.08809356 +1  119.7289707 +1  179.8170697 +1     5     4     3

 TIME=     1.38
  REACTANTS AND PRODUCTS SWAPPED AROUND
 *+*+*+*+*+*+*+*+*+*+*+*+*+*+*+*+*+*+*+*+*+*+*+*+*+*+*+*+*+*+*+*+*+*+*+*+*+*+*+*+
            BAR SHORTENED BY       0.000 PERCENT
 GRADIENT CRITERION IN FLEPO =    10.000


          FOR POINT    6 FIRST  STRUCTURE
 DISTANCE A - B      6.567307
 HEAT              -73.471825
 GRADIENT NORM       7.508101
 DIRECTION COSINE   -0.057435
* ===============================
* Input file for Mopac
* ===============================
 PM7 BONDS AUX DUMP=30M ITRY=15000 T=14D CHARGE=0 SINGLET eps=78.4 RELSCF=1


  C     0.00000000 +0    0.0000000 +0    0.0000000 +0     0     0     0
  C     1.39323166 +1    0.0000000 +0    0.0000000 +0     1     0     0
  C     1.39695308 +1  120.1322629 +1    0.0000000 +0     2     1     0
  C     1.39450152 +1  119.7949597 +1    1.4045050 +1     3     2     1
  C     1.39584422 +1  119.9988120 +1   -1.4879124 +1     4     3     2
  C     1.39253340 +1  120.0454115 +1    0.5428693 +1     5     4     3
  H     1.08982771 +1  119.8328177 +1  179.5935119 +1     1     2     3
  H     1.09335563 +1  119.6240886 +1  179.9685192 +1     2     1     3
  H     1.09203447 +1  120.5423565 +1  178.4867484 +1     4     3     2
  H     1.09069522 +1  119.9178811 +1 -179.5886632 +1     6     5     4
  C     1.50450193 +1  118.4447990 +1 -177.5234459 +1     3     2     1
  C     1.52341982 +1  113.7449436 +1  144.9193656 +1    11     3     2
  H     1.10037163 +1  112.1887024 +1 -172.1094194 +1    12    11     3
  H     1.09950850 +1  112.9983220 +1   66.4677965 +1    12    11     3
  H     1.10180789 +1  110.4395971 +1  -53.2691249 +1    12    11     3
  N     1.50296919 +1  108.4271989 +1  -94.1548567 +1    11     3     2
  O     1.22226201 +1  118.3831256 +1  117.3636314 +1    16    11     3
  O     1.22010021 +1  119.6580906 +1  -62.5180004 +1    16    11     3
  N     4.64959095 +1  108.1642518 +1  -65.1836271 +1    15    12    11
  C     1.48172392 +1  108.8115133 +1  -63.9393616 +1    19    15    12
  C     1.54410534 +1  109.4969605 +1 -126.7047204 +1    20    19    15
  N     1.48527513 +1  109.8283267 +1  -58.7202386 +1    21    20    19
  C     1.48476411 +1  110.3284980 +1   59.0939760 +1    22    21    20
  C     1.48399845 +1  140.2546871 +1  107.7869919 +1    19    15    12
  H     1.11363907 +1  107.9735842 +1    9.6906102 +1    24    19    15
  H     1.11075825 +1  112.3672659 +1 -108.0281428 +1    24    19    15
  H     1.11066031 +1  108.1707010 +1 -178.5288193 +1    23    22    21
  H     1.11123714 +1  112.3375924 +1   63.6018300 +1    23    22    21
  H     1.11214492 +1  110.0026054 +1 -177.5298893 +1    21    20    19
  H     1.11036538 +1  109.6348321 +1   65.0045795 +1    21    20    19
  H     1.11097879 +1  112.5879595 +1  110.8831114 +1    20    19    15
  H     1.13799818 +1  109.8151006 +1   22.3754303 +1    11     3     2
  H     1.02936883 +1   50.4617622 +1   37.0926132 +1    19    15    12
  H     1.11064675 +1  108.0231980 +1   -7.1809529 +1    20    19    15
  H     1.02521432 +1  109.5432675 +1  179.5849593 +1    22    21    20
  H     2.51907733 +1  148.5298290 +1  112.7351763 +1     8     2     1
  H     1.52335529 +1   63.6800725 +1  -20.8810563 +1    36     8     2
  O     0.96564086 +1   38.0176449 +1   86.6035321 +1    37    36     8
  H     1.08935993 +1  119.8889926 +1 -179.5380260 +1     5     4     3

 TIME=     0.15
  REACTANTS AND PRODUCTS SWAPPED AROUND
 *+*+*+*+*+*+*+*+*+*+*+*+*+*+*+*+*+*+*+*+*+*+*+*+*+*+*+*+*+*+*+*+*+*+*+*+*+*+*+*+
            BAR SHORTENED BY       1.000 PERCENT
 GRADIENT CRITERION IN FLEPO =     4.508


          FOR POINT    7 SECOND STRUCTURE
 DISTANCE A - B      6.501634
 HEAT              -74.344372
 GRADIENT NORM       8.636594
 DIRECTION COSINE   -0.082457
* ===============================
* Input file for Mopac
* ===============================
 PM7 BONDS AUX DUMP=30M ITRY=15000 T=14D CHARGE=0 SINGLET eps=78.4 RELSCF=1


  C     0.00000000 +0    0.0000000 +0    0.0000000 +0     0     0     0
  C     1.39228264 +1    0.0000000 +0    0.0000000 +0     1     0     0
  C     1.39637887 +1  119.6712677 +1    0.0000000 +0     2     1     0
  C     1.39694539 +1  120.1665580 +1    0.3916764 +1     3     2     1
  C     1.39299379 +1  119.8725098 +1   -0.0594727 +1     4     3     2
  C     1.39352506 +1  120.2595738 +1   -0.5095198 +1     1     2     3
  H     1.09204665 +1  119.7457482 +1  179.9625015 +1     1     2     3
  H     1.09351469 +1  119.9070123 +1  179.2626396 +1     2     1     3
  H     1.09228308 +1  120.4211064 +1  179.8196564 +1     4     3     2
  H     1.09136686 +1  120.0535872 +1 -179.4360416 +1     6     1     2
  C     1.50318056 +1  118.9530021 +1  179.9781250 +1     3     2     1
  C     1.52171797 +1  112.4554166 +1  125.7651556 +1    11     3     2
  H     1.10096171 +1  112.2253850 +1 -175.0891209 +1    12    11     3
  H     1.09973529 +1  112.8049550 +1   64.1807109 +1    12    11     3
  H     1.09988589 +1  110.3833224 +1  -55.2752850 +1    12    11     3
  N     1.49592513 +1  108.9082700 +1 -111.2875477 +1    11     3     2
  O     1.22274735 +1  119.1467242 +1   40.1205707 +1    16    11     3
  O     1.22037243 +1  119.2085268 +1 -140.9023688 +1    16    11     3
  N     3.87191161 +1  101.1572639 +1  -64.0765248 +1    15    12    11
  C     1.48099343 +1   71.4624988 +1  -86.6388363 +1    19    15    12
  C     1.54449467 +1  109.1017128 +1 -107.6609283 +1    20    19    15
  N     1.48421701 +1  110.1757207 +1  -58.5593936 +1    21    20    19
  C     1.48330487 +1  110.4024228 +1   58.2502489 +1    22    21    20
  C     1.48102027 +1  168.4088176 +1  173.6046269 +1    19    15    12
  H     1.11118621 +1  108.2083439 +1  -84.3410385 +1    24    19    15
  H     1.11055359 +1  112.5950024 +1  157.1659078 +1    24    19    15
  H     1.11354159 +1  108.4836044 +1 -178.3386100 +1    23    22    21
  H     1.11164803 +1  112.1646351 +1   63.8164944 +1    23    22    21
  H     1.11157923 +1  110.0233647 +1 -177.5318843 +1    21    20    19
  H     1.11173860 +1  109.2561651 +1   65.2571799 +1    21    20    19
  H     1.11243467 +1  112.5967740 +1  130.0139734 +1    20    19    15
  H     1.14027026 +1  110.4032980 +1    3.5274954 +1    11     3     2
  H     1.02590056 +1   78.6333889 +1   29.9166846 +1    19    15    12
  H     1.11464613 +1  108.4380895 +1   11.6989612 +1    20    19    15
  H     1.02829872 +1  109.5292222 +1  178.6951526 +1    22    21    20
  H     2.69659665 +1  168.6469947 +1 -167.5397145 +1    33    19    15
  H     1.52715244 +1   63.0776179 +1  -96.2604556 +1    36    33    19
  O     0.96358835 +1   38.2104520 +1 -134.3777377 +1    36    33    19
  H     1.09010956 +1  119.7876739 +1  179.7099187 +1     5     4     3

 TIME=     0.38
  REACTANTS AND PRODUCTS SWAPPED AROUND
 *+*+*+*+*+*+*+*+*+*+*+*+*+*+*+*+*+*+*+*+*+*+*+*+*+*+*+*+*+*+*+*+*+*+*+*+*+*+*+*+
            BAR SHORTENED BY       1.000 PERCENT
 GRADIENT CRITERION IN FLEPO =     5.637
 

                    SINCE COS WAS JUST RESET,THE SEARCH IS BEING ENDED


          FOR POINT    8 FIRST  STRUCTURE
 DISTANCE A - B      6.436618
 HEAT              -73.481963
 GRADIENT NORM      12.330218
 DIRECTION COSINE   -0.002924
* ===============================
* Input file for Mopac
* ===============================
 PM7 BONDS AUX DUMP=30M ITRY=15000 T=14D CHARGE=0 SINGLET eps=78.4 RELSCF=1


  C     0.00000000 +0    0.0000000 +0    0.0000000 +0     0     0     0
  C     1.38990861 +1    0.0000000 +0    0.0000000 +0     1     0     0
  C     1.39599699 +1  120.0671749 +1    0.0000000 +0     2     1     0
  C     1.39514964 +1  119.9778483 +1    1.3953735 +1     3     2     1
  C     1.39219943 +1  119.8610139 +1   -1.5111033 +1     4     3     2
  C     1.39514892 +1  120.0435726 +1   -0.2166952 +1     1     2     3
  H     1.09124001 +1  120.0111410 +1  179.5740844 +1     1     2     3
  H     1.09367982 +1  119.5726324 +1  179.8288378 +1     2     1     3
  H     1.09403945 +1  120.5788288 +1  179.6177575 +1     4     3     2
  H     1.09109166 +1  120.0627639 +1  179.4884582 +1     6     1     2
  C     1.50620382 +1  118.3355125 +1 -177.6549883 +1     3     2     1
  C     1.52332135 +1  113.6789997 +1  144.7443298 +1    11     3     2
  H     1.09938738 +1  112.1906443 +1 -172.1202908 +1    12    11     3
  H     1.09972116 +1  112.9786224 +1   66.4164516 +1    12    11     3
  H     1.10245592 +1  110.4306117 +1  -53.2360765 +1    12    11     3
  N     1.50265819 +1  108.4335937 +1  -94.3214446 +1    11     3     2
  O     1.21987353 +1  118.7217396 +1  117.0719681 +1    16    11     3
  O     1.21782282 +1  119.9561897 +1  -62.8294434 +1    16    11     3
  N     4.63738839 +1  108.0514821 +1  -65.2098060 +1    15    12    11
  C     1.48328008 +1  108.7027491 +1  -64.2304398 +1    19    15    12
  C     1.54202176 +1  109.4799283 +1 -126.2572305 +1    20    19    15
  N     1.48371496 +1  109.7193496 +1  -59.0470142 +1    21    20    19
  C     1.48550539 +1  110.2519707 +1   59.4179185 +1    22    21    20
  C     1.48539690 +1  140.5487949 +1  107.8531266 +1    19    15    12
  H     1.10953167 +1  108.0098226 +1    9.3399223 +1    24    19    15
  H     1.11079656 +1  112.2795681 +1 -108.5239693 +1    24    19    15
  H     1.11274116 +1  108.0841931 +1 -178.8363360 +1    23    22    21
  H     1.11199794 +1  112.3052397 +1   63.5604652 +1    23    22    21
  H     1.11064922 +1  109.8850162 +1 -177.6458114 +1    21    20    19
  H     1.11070814 +1  109.8220022 +1   64.8377676 +1    21    20    19
  H     1.11177157 +1  112.5138857 +1  110.9972309 +1    20    19    15
  H     1.13787298 +1  109.8047728 +1   22.2513888 +1    11     3     2
  H     1.03254575 +1   51.0026100 +1   37.0972305 +1    19    15    12
  H     1.11209585 +1  107.6737501 +1   -6.7335815 +1    20    19    15
  H     1.02760013 +1  109.3967753 +1  179.6532761 +1    22    21    20
  H     2.51891726 +1  149.0168615 +1  113.9502589 +1     8     2     1
  H     1.52120071 +1   63.0419450 +1  -22.3703857 +1    36     8     2
  O     0.96628073 +1   38.1398398 +1   86.6471887 +1    37    36     8
  H     1.09037877 +1  119.8280616 +1 -179.4462336 +1     5     4     3

 TIME=     1.13
  REACTANTS AND PRODUCTS SWAPPED AROUND
 *+*+*+*+*+*+*+*+*+*+*+*+*+*+*+*+*+*+*+*+*+*+*+*+*+*+*+*+*+*+*+*+*+*+*+*+*+*+*+*+
            BAR SHORTENED BY       1.000 PERCENT
 GRADIENT CRITERION IN FLEPO =     9.330


          FOR POINT    9 SECOND STRUCTURE
 DISTANCE A - B      6.372252
 HEAT              -74.277255
 GRADIENT NORM      15.797558
 DIRECTION COSINE   -0.065296
* ===============================
* Input file for Mopac
* ===============================
 PM7 BONDS AUX DUMP=30M ITRY=15000 T=14D CHARGE=0 SINGLET eps=78.4 RELSCF=1


  C     0.00000000 +0    0.0000000 +0    0.0000000 +0     0     0     0
  C     1.39547661 +1    0.0000000 +0    0.0000000 +0     1     0     0
  C     1.39031021 +1  119.6936522 +1    0.0000000 +0     2     1     0
  C     1.39983242 +1  120.2535658 +1    0.2903581 +1     3     2     1
  C     1.38934010 +1  119.8116636 +1    0.0839900 +1     4     3     2
  C     1.39302955 +1  120.2358873 +1   -0.5422763 +1     1     2     3
  H     1.08982573 +1  119.6248473 +1  179.9460848 +1     1     2     3
  H     1.09207840 +1  119.7275519 +1  179.6104590 +1     2     1     3
  H     1.09149820 +1  120.5000766 +1  179.7832464 +1     4     3     2
  H     1.09083746 +1  120.0530421 +1 -179.6410485 +1     6     1     2
  C     1.50282400 +1  119.0920736 +1 -179.8195472 +1     3     2     1
  C     1.52262376 +1  112.5770946 +1  126.0005620 +1    11     3     2
  H     1.10157096 +1  112.1965052 +1 -175.1362305 +1    12    11     3
  H     1.09949431 +1  112.9734761 +1   64.2867209 +1    12    11     3
  H     1.10032944 +1  110.4280198 +1  -55.3572066 +1    12    11     3
  N     1.49604505 +1  108.8250034 +1 -111.0954393 +1    11     3     2
  O     1.21881228 +1  119.4370224 +1   40.3485298 +1    16    11     3
  O     1.21779224 +1  119.3971544 +1 -140.6151355 +1    16    11     3
  N     3.87783817 +1  101.2268585 +1  -63.9038229 +1    15    12    11
  C     1.48154619 +1   71.8989672 +1  -86.5058493 +1    19    15    12
  C     1.54626300 +1  109.0056274 +1 -107.7017806 +1    20    19    15
  N     1.48595650 +1  110.1089566 +1  -58.6225429 +1    21    20    19
  C     1.48531551 +1  110.3798152 +1   58.2794577 +1    22    21    20
  C     1.48315307 +1  168.3945891 +1  171.7197154 +1    19    15    12
  H     1.11128371 +1  108.1745629 +1  -82.5247123 +1    24    19    15
  H     1.11327559 +1  112.4071302 +1  159.2603931 +1    24    19    15
  H     1.10900628 +1  108.3192969 +1 -178.4504782 +1    23    22    21
  H     1.11212033 +1  111.9686452 +1   63.8528776 +1    23    22    21
  H     1.11015305 +1  109.8752959 +1 -177.3426716 +1    21    20    19
  H     1.10902190 +1  109.3347683 +1   64.9566562 +1    21    20    19
  H     1.11155027 +1  112.5894458 +1  130.0595182 +1    20    19    15
  H     1.13666369 +1  110.2963976 +1    3.6316181 +1    11     3     2
  H     1.02904529 +1   78.4201518 +1   29.8874285 +1    19    15    12
  H     1.10999820 +1  108.3345194 +1   11.6492946 +1    20    19    15
  H     1.02774262 +1  109.4773141 +1  178.6974671 +1    22    21    20
  H     2.69313202 +1  168.4224244 +1 -168.5056784 +1    33    19    15
  H     1.52619194 +1   62.9171151 +1  -95.8250689 +1    36    33    19
  O     0.96480643 +1   37.8434762 +1  -38.6763669 +1    37    36    33
  H     1.09426207 +1  119.9136300 +1  179.5864318 +1     5     4     3

 TIME=     0.54
  REACTANTS AND PRODUCTS SWAPPED AROUND
 *+*+*+*+*+*+*+*+*+*+*+*+*+*+*+*+*+*+*+*+*+*+*+*+*+*+*+*+*+*+*+*+*+*+*+*+*+*+*+*+
            BAR SHORTENED BY       1.000 PERCENT
 GRADIENT CRITERION IN FLEPO =    10.000


          FOR POINT   10 FIRST  STRUCTURE
 DISTANCE A - B      6.308529
 HEAT              -73.392100
 GRADIENT NORM      15.116770
 DIRECTION COSINE    0.159924
* ===============================
* Input file for Mopac
* ===============================
 PM7 BONDS AUX DUMP=30M ITRY=15000 T=14D CHARGE=0 SINGLET eps=78.4 RELSCF=1


  C     0.00000000 +0    0.0000000 +0    0.0000000 +0     0     0     0
  C     1.39387629 +1    0.0000000 +0    0.0000000 +0     1     0     0
  C     1.39912362 +1  120.0203273 +1    0.0000000 +0     2     1     0
  C     1.39275171 +1  119.7486168 +1    1.4313488 +1     3     2     1
  C     1.39322638 +1  120.0808648 +1   -1.2516828 +1     4     3     2
  C     1.39006892 +1  120.0138118 +1   -0.6752849 +1     1     2     3
  H     1.09102666 +1  119.5580946 +1  179.8217047 +1     1     2     3
  H     1.09424578 +1  119.7858412 +1 -179.9724518 +1     2     1     3
  H     1.09356927 +1  120.6101392 +1  179.2725214 +1     4     3     2
  H     1.09186863 +1  119.7854164 +1  179.5470655 +1     6     1     2
  C     1.50422638 +1  118.4339292 +1 -177.4341364 +1     3     2     1
  C     1.52371791 +1  113.5887530 +1  144.5178415 +1    11     3     2
  H     1.09985118 +1  112.1075273 +1 -172.2055503 +1    12    11     3
  H     1.09971108 +1  112.9650861 +1   66.3647385 +1    12    11     3
  H     1.10239010 +1  110.4612240 +1  -53.3037919 +1    12    11     3
  N     1.50248311 +1  108.3310996 +1  -94.5810184 +1    11     3     2
  O     1.22094735 +1  118.9522206 +1  116.8644360 +1    16    11     3
  O     1.21882150 +1  120.1592663 +1  -63.0083217 +1    16    11     3
  N     4.62798032 +1  107.9741843 +1  -65.1543686 +1    15    12    11
  C     1.48411150 +1  108.2259020 +1  -64.4892863 +1    19    15    12
  C     1.54425764 +1  109.3070017 +1 -126.1412530 +1    20    19    15
  N     1.48490726 +1  109.9949533 +1  -58.7574821 +1    21    20    19
  C     1.48479732 +1  110.2204576 +1   59.2011751 +1    22    21    20
  C     1.48360461 +1  141.0040686 +1  108.0087865 +1    19    15    12
  H     1.11145460 +1  107.9807005 +1    8.7992696 +1    24    19    15
  H     1.11122241 +1  112.1863125 +1 -108.8343587 +1    24    19    15
  H     1.11277367 +1  108.0398199 +1 -178.5147289 +1    23    22    21
  H     1.11516195 +1  112.5541946 +1   63.6199913 +1    23    22    21
  H     1.11087641 +1  109.8024405 +1 -177.5680682 +1    21    20    19
  H     1.11292869 +1  109.6900088 +1   65.0032099 +1    21    20    19
  H     1.11026029 +1  112.4274108 +1  111.5401613 +1    20    19    15
  H     1.13999469 +1  109.7979751 +1   22.0524939 +1    11     3     2
  H     1.02972444 +1   51.1975375 +1   37.0741835 +1    19    15    12
  H     1.11083436 +1  107.8194236 +1   -6.4770056 +1    20    19    15
  H     1.02744994 +1  109.4911272 +1  179.5204436 +1    22    21    20
  H     2.51926599 +1  149.5759845 +1  114.9191218 +1     8     2     1
  H     1.52001973 +1   62.3582312 +1  -23.8702927 +1    36     8     2
  O     0.96573434 +1   38.1642800 +1   86.7169103 +1    37    36     8
  H     1.09144250 +1  119.7604828 +1 -179.7963316 +1     5     4     3

 TIME=     0.43
  REACTANTS AND PRODUCTS SWAPPED AROUND
 *+*+*+*+*+*+*+*+*+*+*+*+*+*+*+*+*+*+*+*+*+*+*+*+*+*+*+*+*+*+*+*+*+*+*+*+*+*+*+*+
            BAR SHORTENED BY       1.000 PERCENT
 GRADIENT CRITERION IN FLEPO =    10.000


          FOR POINT   11 SECOND STRUCTURE
 DISTANCE A - B      6.245444
 HEAT              -73.955442
 GRADIENT NORM      22.089644
 DIRECTION COSINE   -0.044323
* ===============================
* Input file for Mopac
* ===============================
 PM7 BONDS AUX DUMP=30M ITRY=15000 T=14D CHARGE=0 SINGLET eps=78.4 RELSCF=1


  C     0.00000000 +0    0.0000000 +0    0.0000000 +0     0     0     0
  C     1.39447236 +1    0.0000000 +0    0.0000000 +0     1     0     0
  C     1.39537308 +1  119.8084963 +1    0.0000000 +0     2     1     0
  C     1.39582553 +1  120.1267412 +1    0.4751055 +1     3     2     1
  C     1.39349044 +1  120.0067345 +1    0.0354695 +1     4     3     2
  C     1.39385533 +1  120.1441209 +1   -0.5314060 +1     1     2     3
  H     1.09204746 +1  119.9339746 +1  179.8082824 +1     1     2     3
  H     1.09315837 +1  119.8584714 +1  179.6983790 +1     2     1     3
  H     1.08934680 +1  120.5707886 +1  179.7407044 +1     4     3     2
  H     1.09122444 +1  119.9825042 +1 -179.4372236 +1     6     1     2
  C     1.49953543 +1  119.1128661 +1 -179.7500869 +1     3     2     1
  C     1.52389348 +1  112.5434314 +1  126.4931536 +1    11     3     2
  H     1.10131478 +1  111.8646689 +1 -175.1056173 +1    12    11     3
  H     1.09556585 +1  112.9452920 +1   64.2211972 +1    12    11     3
  H     1.10990602 +1  110.5206230 +1  -55.6904027 +1    12    11     3
  N     1.49543800 +1  108.7819212 +1 -110.6822242 +1    11     3     2
  O     1.21646801 +1  119.7578031 +1   40.6814476 +1    16    11     3
  O     1.21627907 +1  119.4664797 +1 -140.1219953 +1    16    11     3
  N     3.88427699 +1  101.1893417 +1  -63.5451190 +1    15    12    11
  C     1.48167545 +1   72.3543236 +1  -86.6515810 +1    19    15    12
  C     1.54227411 +1  109.0734966 +1 -107.6198015 +1    20    19    15
  N     1.48546337 +1  110.3297761 +1  -58.7761193 +1    21    20    19
  C     1.48356855 +1  110.1573059 +1   58.3571842 +1    22    21    20
  C     1.48175954 +1  168.2077168 +1  170.3742398 +1    19    15    12
  H     1.10994657 +1  108.2194633 +1  -81.2934206 +1    24    19    15
  H     1.11189431 +1  112.4961277 +1  160.5609939 +1    24    19    15
  H     1.11154701 +1  108.2234571 +1 -178.3189581 +1    23    22    21
  H     1.11146498 +1  112.1520555 +1   64.0106157 +1    23    22    21
  H     1.10989762 +1  110.0013936 +1 -177.5839778 +1    21    20    19
  H     1.11083771 +1  109.4612755 +1   64.9891840 +1    21    20    19
  H     1.11144000 +1  112.5657097 +1  129.8967064 +1    20    19    15
  H     1.14070793 +1  110.4480620 +1    3.8788165 +1    11     3     2
  H     1.02528388 +1   78.3857334 +1   29.4725396 +1    19    15    12
  H     1.11237634 +1  108.2157172 +1   11.7143467 +1    20    19    15
  H     1.03120085 +1  109.6303604 +1  178.7294832 +1    22    21    20
  H     2.68943184 +1  168.2626294 +1 -171.0261463 +1    33    19    15
  H     1.52122420 +1   62.9508895 +1  -93.8523690 +1    36    33    19
  O     0.96428468 +1   38.1602073 +1 -132.2597996 +1    36    33    19
  H     1.09173604 +1  120.2750557 +1  179.8324450 +1     5     4     3

 TIME=     0.34
  REACTANTS AND PRODUCTS SWAPPED AROUND
 *+*+*+*+*+*+*+*+*+*+*+*+*+*+*+*+*+*+*+*+*+*+*+*+*+*+*+*+*+*+*+*+*+*+*+*+*+*+*+*+
            BAR SHORTENED BY       1.000 PERCENT
 GRADIENT CRITERION IN FLEPO =    10.000


          FOR POINT   12 FIRST  STRUCTURE
 DISTANCE A - B      6.182990
 HEAT              -73.395566
 GRADIENT NORM      19.772347
 DIRECTION COSINE    0.101111
* ===============================
* Input file for Mopac
* ===============================
 PM7 BONDS AUX DUMP=30M ITRY=15000 T=14D CHARGE=0 SINGLET eps=78.4 RELSCF=1


  C     0.00000000 +0    0.0000000 +0    0.0000000 +0     0     0     0
  C     1.39240133 +1    0.0000000 +0    0.0000000 +0     1     0     0
  C     1.39250545 +1  119.9804269 +1    0.0000000 +0     2     1     0
  C     1.39186660 +1  120.2410018 +1    1.0323481 +1     3     2     1
  C     1.39294897 +1  119.7346813 +1   -0.9993592 +1     4     3     2
  C     1.39244869 +1  120.1755511 +1    0.0935859 +1     5     4     3
  H     1.09027381 +1  119.9614334 +1  179.6683851 +1     1     2     3
  H     1.09580740 +1  119.3959535 +1  179.5062145 +1     2     1     3
  H     1.09144493 +1  120.7861468 +1  179.4358770 +1     4     3     2
  H     1.09094831 +1  120.1354500 +1 -179.3112997 +1     6     5     4
  C     1.51142407 +1  118.2469151 +1 -177.7663073 +1     3     2     1
  C     1.52312960 +1  113.5361018 +1  144.1806315 +1    11     3     2
  H     1.09896562 +1  112.1044620 +1 -172.1408637 +1    12    11     3
  H     1.09967389 +1  112.9365840 +1   66.3738711 +1    12    11     3
  H     1.10326419 +1  110.5005727 +1  -53.2208316 +1    12    11     3
  N     1.50156197 +1  108.3065209 +1  -94.8072391 +1    11     3     2
  O     1.22154952 +1  119.1655507 +1  116.5821083 +1    16    11     3
  O     1.21945197 +1  120.2243106 +1  -63.2458773 +1    16    11     3
  N     4.61634731 +1  107.9003770 +1  -65.1759416 +1    15    12    11
  C     1.48237212 +1  108.0455449 +1  -64.6895819 +1    19    15    12
  C     1.54439500 +1  109.3966349 +1 -125.7792428 +1    20    19    15
  N     1.48640538 +1  110.4875204 +1  -58.6926029 +1    21    20    19
  C     1.48855223 +1  109.9794265 +1   58.2665670 +1    22    21    20
  C     1.48335582 +1  141.3474732 +1  107.9812287 +1    19    15    12
  H     1.11675738 +1  108.0208835 +1    8.3839218 +1    24    19    15
  H     1.11113527 +1  112.2497447 +1 -109.1913660 +1    24    19    15
  H     1.11400472 +1  107.9104010 +1 -177.8605530 +1    23    22    21
  H     1.11113554 +1  111.9815732 +1   64.6115716 +1    23    22    21
  H     1.11051516 +1  109.8747333 +1 -177.6710431 +1    21    20    19
  H     1.11455107 +1  109.4875273 +1   64.6751966 +1    21    20    19
  H     1.11119777 +1  112.5973927 +1  111.6580441 +1    20    19    15
  H     1.13799559 +1  109.7890264 +1   21.9467201 +1    11     3     2
  H     1.03196758 +1   51.6317867 +1   37.0143087 +1    19    15    12
  H     1.11193992 +1  107.7939269 +1   -6.2162941 +1    20    19    15
  H     1.02338186 +1  110.0572802 +1  179.4284562 +1    22    21    20
  H     2.52130140 +1  149.8868693 +1  116.7228252 +1     8     2     1
  H     1.51976032 +1   61.6664588 +1  -25.7194351 +1    36     8     2
  O     0.96519872 +1   38.1932843 +1   86.7905905 +1    37    36     8
  H     1.09334968 +1  119.5364039 +1 -179.9215331 +1     5     4     3

 TIME=     0.28
  REACTANTS AND PRODUCTS SWAPPED AROUND
 *+*+*+*+*+*+*+*+*+*+*+*+*+*+*+*+*+*+*+*+*+*+*+*+*+*+*+*+*+*+*+*+*+*+*+*+*+*+*+*+
            BAR SHORTENED BY       1.000 PERCENT
 GRADIENT CRITERION IN FLEPO =    10.000


          FOR POINT   13 SECOND STRUCTURE
 DISTANCE A - B      6.121160
 HEAT              -74.045981
 GRADIENT NORM      15.175600
 DIRECTION COSINE   -0.299786
* ===============================
* Input file for Mopac
* ===============================
 PM7 BONDS AUX DUMP=30M ITRY=15000 T=14D CHARGE=0 SINGLET eps=78.4 RELSCF=1


  C     0.00000000 +0    0.0000000 +0    0.0000000 +0     0     0     0
  C     1.39409240 +1    0.0000000 +0    0.0000000 +0     1     0     0
  C     1.39593510 +1  119.4133970 +1    0.0000000 +0     2     1     0
  C     1.39466600 +1  120.4953832 +1    0.3564541 +1     3     2     1
  C     1.39284304 +1  119.7943482 +1   -0.1652682 +1     4     3     2
  C     1.39392968 +1  120.2568997 +1   -0.1911381 +1     1     2     3
  H     1.09003022 +1  119.5572531 +1 -179.6396316 +1     1     2     3
  H     1.09134343 +1  120.0129302 +1  179.1063343 +1     2     1     3
  H     1.09577917 +1  120.8828313 +1  179.8152575 +1     4     3     2
  H     1.09127088 +1  119.7033842 +1 -179.8511553 +1     6     1     2
  C     1.50579365 +1  118.8386079 +1 -179.8723171 +1     3     2     1
  C     1.52211819 +1  112.5255485 +1  126.6613577 +1    11     3     2
  H     1.09993611 +1  112.3534888 +1 -175.4718040 +1    12    11     3
  H     1.10004924 +1  112.7892570 +1   64.1560415 +1    12    11     3
  H     1.10137393 +1  110.7345584 +1  -55.6499635 +1    12    11     3
  N     1.49479620 +1  108.6091561 +1 -110.5742616 +1    11     3     2
  O     1.22263810 +1  119.7723936 +1   41.1651661 +1    16    11     3
  O     1.21944224 +1  119.2555360 +1 -139.7495364 +1    16    11     3
  N     3.89087616 +1  101.1498967 +1  -63.5070600 +1    15    12    11
  C     1.48281103 +1   72.7036560 +1  -86.5196279 +1    19    15    12
  C     1.54548119 +1  108.9926470 +1 -107.8048768 +1    20    19    15
  N     1.48996345 +1  110.3034649 +1  -58.6111396 +1    21    20    19
  C     1.48090866 +1  110.1510199 +1   58.2388393 +1    22    21    20
  C     1.48139882 +1  168.2717501 +1  168.5160918 +1    19    15    12
  H     1.11553367 +1  108.1086648 +1  -79.3581733 +1    24    19    15
  H     1.10970135 +1  112.5284609 +1  162.6010597 +1    24    19    15
  H     1.11195289 +1  108.3167693 +1 -178.3574145 +1    23    22    21
  H     1.11174722 +1  112.1862600 +1   64.0542854 +1    23    22    21
  H     1.11040056 +1  110.0059322 +1 -177.6332000 +1    21    20    19
  H     1.11138674 +1  109.3087295 +1   64.9008440 +1    21    20    19
  H     1.11166395 +1  112.5281433 +1  129.9702837 +1    20    19    15
  H     1.13855844 +1  110.6254511 +1    4.0589285 +1    11     3     2
  H     1.02645533 +1   78.0287936 +1   29.5559490 +1    19    15    12
  H     1.10916857 +1  108.6332489 +1   11.3800855 +1    20    19    15
  H     1.02818505 +1  109.6233316 +1  178.7057282 +1    22    21    20
  H     2.68714990 +1  167.9495262 +1 -170.9755963 +1    33    19    15
  H     1.52742836 +1   62.8311710 +1  -94.2762943 +1    36    33    19
  O     0.96481095 +1   38.0981560 +1 -132.7467378 +1    36    33    19
  H     1.08997816 +1  120.2092250 +1  179.7873068 +1     5     4     3

 TIME=     0.28
  REACTANTS AND PRODUCTS SWAPPED AROUND
 *+*+*+*+*+*+*+*+*+*+*+*+*+*+*+*+*+*+*+*+*+*+*+*+*+*+*+*+*+*+*+*+*+*+*+*+*+*+*+*+
            BAR SHORTENED BY       1.000 PERCENT
 GRADIENT CRITERION IN FLEPO =    10.000
 

                    SINCE COS WAS JUST RESET,THE SEARCH IS BEING ENDED


          FOR POINT   14 FIRST  STRUCTURE
 DISTANCE A - B      6.059948
 HEAT              -73.273880
 GRADIENT NORM      22.609883
 DIRECTION COSINE   -0.009499
* ===============================
* Input file for Mopac
* ===============================
 PM7 BONDS AUX DUMP=30M ITRY=15000 T=14D CHARGE=0 SINGLET eps=78.4 RELSCF=1


  C     0.00000000 +0    0.0000000 +0    0.0000000 +0     0     0     0
  C     1.39170279 +1    0.0000000 +0    0.0000000 +0     1     0     0
  C     1.39471107 +1  120.0859842 +1    0.0000000 +0     2     1     0
  C     1.39686679 +1  120.0400077 +1    1.3957348 +1     3     2     1
  C     1.39272683 +1  119.7817218 +1   -1.1797599 +1     4     3     2
  C     1.39416699 +1  119.9388974 +1   -0.4992315 +1     1     2     3
  H     1.08987986 +1  119.9236542 +1  179.5118066 +1     1     2     3
  H     1.09468744 +1  119.5000090 +1 -179.9302072 +1     2     1     3
  H     1.08912837 +1  120.4577494 +1  179.3173433 +1     4     3     2
  H     1.09078371 +1  119.8993207 +1  179.5298503 +1     6     1     2
  C     1.50726189 +1  118.4197264 +1 -177.5755292 +1     3     2     1
  C     1.52297035 +1  113.5464630 +1  144.1736247 +1    11     3     2
  H     1.09888866 +1  112.1055118 +1 -172.1776498 +1    12    11     3
  H     1.09957939 +1  112.9339116 +1   66.3513261 +1    12    11     3
  H     1.10324515 +1  110.5029066 +1  -53.2478296 +1    12    11     3
  N     1.50149370 +1  108.2901878 +1  -94.7940370 +1    11     3     2
  O     1.21885447 +1  119.5294577 +1  116.2039700 +1    16    11     3
  O     1.21550291 +1  120.3794600 +1  -63.7609082 +1    16    11     3
  N     4.60453838 +1  107.8180659 +1  -65.1646799 +1    15    12    11
  C     1.48106273 +1  107.9837594 +1  -65.0620006 +1    19    15    12
  C     1.54230622 +1  109.5671226 +1 -125.3442752 +1    20    19    15
  N     1.48503959 +1  110.2725476 +1  -58.8679617 +1    21    20    19
  C     1.48181984 +1  110.2075556 +1   58.4964422 +1    22    21    20
  C     1.48579008 +1  141.6579476 +1  108.0592282 +1    19    15    12
  H     1.11122615 +1  107.9820665 +1    7.9984646 +1    24    19    15
  H     1.11147587 +1  112.1151366 +1 -109.6572979 +1    24    19    15
  H     1.10914407 +1  108.2041362 +1 -177.8335574 +1    23    22    21
  H     1.11150799 +1  112.2163543 +1   64.1247452 +1    23    22    21
  H     1.11282122 +1  109.8045060 +1 -177.7327063 +1    21    20    19
  H     1.11050902 +1  109.4743390 +1   64.4944530 +1    21    20    19
  H     1.11036345 +1  112.7841102 +1  111.6133918 +1    20    19    15
  H     1.13719197 +1  109.7705506 +1   21.7214911 +1    11     3     2
  H     1.02653479 +1   51.9882756 +1   37.0285179 +1    19    15    12
  H     1.11481509 +1  107.5915102 +1   -5.8852697 +1    20    19    15
  H     1.02663553 +1  109.9085183 +1  179.4125998 +1    22    21    20
  H     2.52283546 +1  150.5676778 +1  117.5952426 +1     8     2     1
  H     1.51853757 +1   61.0808430 +1  -27.2526873 +1    36     8     2
  O     0.96706588 +1   38.3128529 +1   86.7481367 +1    37    36     8
  H     1.08685639 +1  119.5436028 +1  179.9128431 +1     5     4     3

 TIME=     0.45
  REACTANTS AND PRODUCTS SWAPPED AROUND
 *+*+*+*+*+*+*+*+*+*+*+*+*+*+*+*+*+*+*+*+*+*+*+*+*+*+*+*+*+*+*+*+*+*+*+*+*+*+*+*+
            BAR SHORTENED BY       1.000 PERCENT
 GRADIENT CRITERION IN FLEPO =    10.000


          FOR POINT   15 SECOND STRUCTURE
 DISTANCE A - B      5.999349
 HEAT              -74.144553
 GRADIENT NORM      19.739283
 DIRECTION COSINE   -0.157965
* ===============================
* Input file for Mopac
* ===============================
 PM7 BONDS AUX DUMP=30M ITRY=15000 T=14D CHARGE=0 SINGLET eps=78.4 RELSCF=1


  C     0.00000000 +0    0.0000000 +0    0.0000000 +0     0     0     0
  C     1.38964460 +1    0.0000000 +0    0.0000000 +0     1     0     0
  C     1.39475718 +1  119.8052871 +1    0.0000000 +0     2     1     0
  C     1.39926660 +1  120.1625527 +1    0.4773031 +1     3     2     1
  C     1.39555408 +1  119.7077999 +1   -0.3173479 +1     4     3     2
  C     1.39255248 +1  120.0243637 +1   -0.0169083 +1     5     4     3
  H     1.09185346 +1  119.8768882 +1 -179.8486958 +1     1     2     3
  H     1.09612675 +1  119.9913105 +1  179.4762387 +1     2     1     3
  H     1.09203403 +1  120.6677129 +1  179.6296010 +1     4     3     2
  H     1.09080434 +1  120.0686465 +1 -179.7226825 +1     6     5     4
  C     1.50174060 +1  119.0551617 +1 -179.8613912 +1     3     2     1
  C     1.52386347 +1  112.4862409 +1  127.1112726 +1    11     3     2
  H     1.10050174 +1  112.1694118 +1 -175.2995213 +1    12    11     3
  H     1.09616170 +1  112.8884925 +1   64.0860428 +1    12    11     3
  H     1.09829161 +1  110.5491200 +1  -55.6983421 +1    12    11     3
  N     1.49489366 +1  108.5853940 +1 -110.2766090 +1    11     3     2
  O     1.21885021 +1  120.0630029 +1   41.6152089 +1    16    11     3
  O     1.21713838 +1  119.4518389 +1 -139.2427092 +1    16    11     3
  N     3.89664430 +1  101.2905924 +1  -63.4965244 +1    15    12    11
  C     1.48142887 +1   73.2824273 +1  -86.1932492 +1    19    15    12
  C     1.54490401 +1  108.9384595 +1 -107.8889102 +1    20    19    15
  N     1.48479277 +1  110.3931126 +1  -58.8357039 +1    21    20    19
  C     1.48547238 +1  110.1496458 +1   58.2089300 +1    22    21    20
  C     1.48303901 +1  168.3910385 +1  166.1090968 +1    19    15    12
  H     1.11014654 +1  108.1377596 +1  -76.3799900 +1    24    19    15
  H     1.11158993 +1  112.4819118 +1  165.1862889 +1    24    19    15
  H     1.11096790 +1  108.3447433 +1 -178.3284802 +1    23    22    21
  H     1.11265788 +1  111.8883575 +1   64.1603377 +1    23    22    21
  H     1.10961845 +1  110.0145959 +1 -177.8633576 +1    21    20    19
  H     1.11007424 +1  109.3399020 +1   64.6748059 +1    21    20    19
  H     1.11163696 +1  112.5964790 +1  129.5897704 +1    20    19    15
  H     1.13854761 +1  110.6295859 +1    4.3820972 +1    11     3     2
  H     1.02632054 +1   77.6930447 +1   29.8553273 +1    19    15    12
  H     1.11290734 +1  108.3939063 +1   11.3928498 +1    20    19    15
  H     1.02822162 +1  109.9310708 +1  178.6875836 +1    22    21    20
  H     2.68773305 +1  167.6715100 +1 -171.5420382 +1    33    19    15
  H     1.52389542 +1   62.6673670 +1  -94.1686454 +1    36    33    19
  O     0.96369106 +1   37.8330014 +1  -38.5391486 +1    37    36    33
  H     1.09171570 +1  119.7931678 +1  179.7431505 +1     5     4     3

 TIME=     0.35
  REACTANTS AND PRODUCTS SWAPPED AROUND
 *+*+*+*+*+*+*+*+*+*+*+*+*+*+*+*+*+*+*+*+*+*+*+*+*+*+*+*+*+*+*+*+*+*+*+*+*+*+*+*+
            BAR SHORTENED BY       1.000 PERCENT
 GRADIENT CRITERION IN FLEPO =    10.000


          FOR POINT   16 FIRST  STRUCTURE
 DISTANCE A - B      5.939355
 HEAT              -73.365192
 GRADIENT NORM      15.996402
 DIRECTION COSINE   -0.109443
* ===============================
* Input file for Mopac
* ===============================
 PM7 BONDS AUX DUMP=30M ITRY=15000 T=14D CHARGE=0 SINGLET eps=78.4 RELSCF=1


  C     0.00000000 +0    0.0000000 +0    0.0000000 +0     0     0     0
  C     1.39154356 +1    0.0000000 +0    0.0000000 +0     1     0     0
  C     1.39649602 +1  120.1222524 +1    0.0000000 +0     2     1     0
  C     1.39516063 +1  119.8846577 +1    1.0417690 +1     3     2     1
  C     1.39272796 +1  119.8558837 +1   -0.7646703 +1     4     3     2
  C     1.39400952 +1  120.0152529 +1   -0.3584088 +1     1     2     3
  H     1.09063589 +1  119.8785309 +1  179.4131069 +1     1     2     3
  H     1.09342135 +1  119.3749371 +1  179.8874711 +1     2     1     3
  H     1.09124684 +1  120.4369763 +1  179.2208933 +1     4     3     2
  H     1.09107148 +1  119.9229684 +1  179.3466395 +1     6     1     2
  C     1.50539345 +1  118.3755644 +1 -177.6264628 +1     3     2     1
  C     1.52375979 +1  113.4112657 +1  143.8675521 +1    11     3     2
  H     1.09964741 +1  112.1371073 +1 -172.2592975 +1    12    11     3
  H     1.09987795 +1  112.9319451 +1   66.2436758 +1    12    11     3
  H     1.10312840 +1  110.5387111 +1  -53.3177575 +1    12    11     3
  N     1.50227692 +1  108.2332261 +1  -95.1504922 +1    11     3     2
  O     1.22167109 +1  119.5443123 +1  116.1133980 +1    16    11     3
  O     1.21973505 +1  120.1918525 +1  -63.5349980 +1    16    11     3
  N     4.59646987 +1  107.7680781 +1  -65.1999443 +1    15    12    11
  C     1.48171583 +1  107.5330191 +1  -65.1788016 +1    19    15    12
  C     1.54369559 +1  109.3212911 +1 -125.1311577 +1    20    19    15
  N     1.48595035 +1  110.0639252 +1  -58.8975376 +1    21    20    19
  C     1.48428924 +1  110.2307923 +1   58.8845101 +1    22    21    20
  C     1.48453590 +1  141.9516615 +1  108.1027911 +1    19    15    12
  H     1.11209366 +1  108.1253277 +1    7.6627989 +1    24    19    15
  H     1.11020355 +1  112.3417298 +1 -110.3425202 +1    24    19    15
  H     1.11143623 +1  108.1093726 +1 -178.1975502 +1    23    22    21
  H     1.10930501 +1  112.4219994 +1   63.9429068 +1    23    22    21
  H     1.11063557 +1  109.8385196 +1 -177.7473660 +1    21    20    19
  H     1.11146221 +1  109.4693595 +1   64.5593361 +1    21    20    19
  H     1.11007856 +1  112.5999786 +1  112.2922369 +1    20    19    15
  H     1.13677546 +1  109.9101130 +1   21.4553561 +1    11     3     2
  H     1.02979655 +1   51.9869514 +1   37.1612023 +1    19    15    12
  H     1.11247082 +1  107.8165798 +1   -5.7608449 +1    20    19    15
  H     1.02931377 +1  109.3542031 +1  178.9358809 +1    22    21    20
  H     2.53736274 +1  151.2127486 +1  118.9491714 +1     8     2     1
  H     1.52824382 +1   60.1673444 +1  -28.5366244 +1    36     8     2
  O     0.96602334 +1   38.4220824 +1   87.0789884 +1    37    36     8
  H     1.09045116 +1  119.5646077 +1  179.7845058 +1     5     4     3

 TIME=     0.64
  REACTANTS AND PRODUCTS SWAPPED AROUND
 *+*+*+*+*+*+*+*+*+*+*+*+*+*+*+*+*+*+*+*+*+*+*+*+*+*+*+*+*+*+*+*+*+*+*+*+*+*+*+*+
            BAR SHORTENED BY       1.000 PERCENT
 GRADIENT CRITERION IN FLEPO =    10.000
 

                    SINCE COS WAS JUST RESET,THE SEARCH IS BEING ENDED


          FOR POINT   17 SECOND STRUCTURE
 DISTANCE A - B      5.879962
 HEAT              -74.085982
 GRADIENT NORM      25.025327
 DIRECTION COSINE   -0.097317
* ===============================
* Input file for Mopac
* ===============================
 PM7 BONDS AUX DUMP=30M ITRY=15000 T=14D CHARGE=0 SINGLET eps=78.4 RELSCF=1


  C     0.00000000 +0    0.0000000 +0    0.0000000 +0     0     0     0
  C     1.38994058 +1    0.0000000 +0    0.0000000 +0     1     0     0
  C     1.39735684 +1  119.7170045 +1    0.0000000 +0     2     1     0
  C     1.39523405 +1  120.1869020 +1    0.6526766 +1     3     2     1
  C     1.39171399 +1  119.9460661 +1   -0.4459810 +1     4     3     2
  C     1.39370420 +1  120.2469387 +1   -0.3101992 +1     1     2     3
  H     1.08961740 +1  119.7132096 +1 -179.9506148 +1     1     2     3
  H     1.09213406 +1  120.0531050 +1  179.6628674 +1     2     1     3
  H     1.09168517 +1  120.5819467 +1  179.4158941 +1     4     3     2
  H     1.09108522 +1  119.8733544 +1 -179.8758291 +1     6     1     2
  C     1.50165657 +1  118.9488344 +1 -179.8391916 +1     3     2     1
  C     1.51909286 +1  112.5750741 +1  127.4069140 +1    11     3     2
  H     1.09981013 +1  112.3689875 +1 -175.4454601 +1    12    11     3
  H     1.09997343 +1  112.8329981 +1   64.0878505 +1    12    11     3
  H     1.10060411 +1  110.7519986 +1  -55.5064513 +1    12    11     3
  N     1.49418432 +1  108.6233367 +1 -109.8263203 +1    11     3     2
  O     1.21631413 +1  120.3522443 +1   41.9050359 +1    16    11     3
  O     1.21610117 +1  119.5401793 +1 -138.7587798 +1    16    11     3
  N     3.90173494 +1  101.1482433 +1  -63.6355783 +1    15    12    11
  C     1.48043292 +1   73.7811902 +1  -86.1497114 +1    19    15    12
  C     1.54453533 +1  108.8893339 +1 -107.9131541 +1    20    19    15
  N     1.48377506 +1  110.2744222 +1  -59.0158044 +1    21    20    19
  C     1.48420961 +1  110.2364833 +1   58.4997519 +1    22    21    20
  C     1.48175468 +1  168.3379043 +1  164.3627794 +1    19    15    12
  H     1.11190401 +1  108.2880443 +1  -74.8120797 +1    24    19    15
  H     1.11294525 +1  112.5117966 +1  167.1877618 +1    24    19    15
  H     1.11027006 +1  108.4442814 +1 -178.3087022 +1    23    22    21
  H     1.11134570 +1  112.1031321 +1   63.6684327 +1    23    22    21
  H     1.11207367 +1  109.8789533 +1 -177.9121465 +1    21    20    19
  H     1.11033033 +1  109.3347612 +1   64.6621836 +1    21    20    19
  H     1.11043490 +1  112.7799995 +1  129.4947965 +1    20    19    15
  H     1.13816310 +1  110.5516029 +1    4.7496465 +1    11     3     2
  H     1.02643194 +1   77.4555223 +1   29.7915083 +1    19    15    12
  H     1.11191811 +1  108.2338046 +1   11.3069776 +1    20    19    15
  H     1.02779697 +1  109.7607547 +1  178.7776110 +1    22    21    20
  H     2.68475809 +1  167.4358798 +1 -172.3940191 +1    33    19    15
  H     1.52001514 +1   62.6602445 +1  -93.7607382 +1    36    33    19
  O     0.96226563 +1   37.9411482 +1  -38.7351366 +1    37    36    33
  H     1.08954830 +1  120.2373713 +1  179.7808636 +1     5     4     3

 TIME=     2.10
  REACTANTS AND PRODUCTS SWAPPED AROUND
 *+*+*+*+*+*+*+*+*+*+*+*+*+*+*+*+*+*+*+*+*+*+*+*+*+*+*+*+*+*+*+*+*+*+*+*+*+*+*+*+
            BAR SHORTENED BY       1.000 PERCENT
 GRADIENT CRITERION IN FLEPO =    10.000


          FOR POINT   18 FIRST  STRUCTURE
 DISTANCE A - B      5.821162
 HEAT              -73.317734
 GRADIENT NORM      20.048697
 DIRECTION COSINE    0.037249
* ===============================
* Input file for Mopac
* ===============================
 PM7 BONDS AUX DUMP=30M ITRY=15000 T=14D CHARGE=0 SINGLET eps=78.4 RELSCF=1


  C     0.00000000 +0    0.0000000 +0    0.0000000 +0     0     0     0
  C     1.39287568 +1    0.0000000 +0    0.0000000 +0     1     0     0
  C     1.39622034 +1  120.1353688 +1    0.0000000 +0     2     1     0
  C     1.39586267 +1  119.8852511 +1    1.2942245 +1     3     2     1
  C     1.39490443 +1  119.7793913 +1   -1.0408123 +1     4     3     2
  C     1.39222312 +1  120.2413878 +1    0.0962823 +1     5     4     3
  H     1.08983489 +1  119.5955919 +1  179.4038591 +1     1     2     3
  H     1.09346889 +1  119.6427989 +1  179.9857749 +1     2     1     3
  H     1.09108073 +1  120.7232065 +1  179.2340151 +1     4     3     2
  H     1.09122091 +1  120.1953673 +1 -179.1811221 +1     6     5     4
  C     1.50490907 +1  118.3481709 +1 -177.5951475 +1     3     2     1
  C     1.52819267 +1  113.1756680 +1  144.0889568 +1    11     3     2
  H     1.09950985 +1  112.0639848 +1 -172.3822983 +1    12    11     3
  H     1.09997082 +1  113.1957361 +1   66.0231632 +1    12    11     3
  H     1.10332206 +1  110.3673249 +1  -53.6447840 +1    12    11     3
  N     1.50586296 +1  108.1808140 +1  -95.5655999 +1    11     3     2
  O     1.22215709 +1  119.4243646 +1  116.1969416 +1    16    11     3
  O     1.21651579 +1  120.1907636 +1  -63.7341274 +1    16    11     3
  N     4.58797770 +1  107.7553778 +1  -64.9582242 +1    15    12    11
  C     1.48214849 +1  107.1960459 +1  -65.5058110 +1    19    15    12
  C     1.54387795 +1  109.3042430 +1 -124.8847767 +1    20    19    15
  N     1.48302341 +1  110.0664219 +1  -58.8755041 +1    21    20    19
  C     1.48660808 +1  110.3138394 +1   58.8921599 +1    22    21    20
  C     1.48440410 +1  142.2439017 +1  108.1938409 +1    19    15    12
  H     1.11099918 +1  108.0596486 +1    7.2661672 +1    24    19    15
  H     1.11121732 +1  112.1964797 +1 -110.6968016 +1    24    19    15
  H     1.11618679 +1  108.0317781 +1 -178.3095619 +1    23    22    21
  H     1.10941642 +1  112.2310771 +1   64.0878554 +1    23    22    21
  H     1.11230411 +1  110.0969822 +1 -177.7583950 +1    21    20    19
  H     1.11102797 +1  109.5279132 +1   64.7295618 +1    21    20    19
  H     1.11388539 +1  112.4542742 +1  112.5735418 +1    20    19    15
  H     1.13074302 +1  110.4027685 +1   21.4473560 +1    11     3     2
  H     1.02934797 +1   52.2320525 +1   37.0934515 +1    19    15    12
  H     1.11221609 +1  107.8874582 +1   -5.3107090 +1    20    19    15
  H     1.02932212 +1  109.4428248 +1  178.8562418 +1    22    21    20
  H     2.53866799 +1  151.5141140 +1  119.9224566 +1     8     2     1
  H     1.52250621 +1   59.7619973 +1  -30.1610424 +1    36     8     2
  O     0.96092108 +1   64.4477810 +1   13.1471423 +1    36     8     2
  H     1.09204733 +1  119.5863303 +1  179.8132062 +1     5     4     3

 TIME=     0.76
  REACTANTS AND PRODUCTS SWAPPED AROUND
 *+*+*+*+*+*+*+*+*+*+*+*+*+*+*+*+*+*+*+*+*+*+*+*+*+*+*+*+*+*+*+*+*+*+*+*+*+*+*+*+
            BAR SHORTENED BY       1.000 PERCENT
 GRADIENT CRITERION IN FLEPO =    10.000


          FOR POINT   19 SECOND STRUCTURE
 DISTANCE A - B      5.762950
 HEAT              -73.710043
 GRADIENT NORM      21.960556
 DIRECTION COSINE   -0.124605
* ===============================
* Input file for Mopac
* ===============================
 PM7 BONDS AUX DUMP=30M ITRY=15000 T=14D CHARGE=0 SINGLET eps=78.4 RELSCF=1


  C     0.00000000 +0    0.0000000 +0    0.0000000 +0     0     0     0
  C     1.39335637 +1    0.0000000 +0    0.0000000 +0     1     0     0
  C     1.39456581 +1  119.7127594 +1    0.0000000 +0     2     1     0
  C     1.39574765 +1  120.2981799 +1    0.3963865 +1     3     2     1
  C     1.39233085 +1  119.8247580 +1   -0.3986879 +1     4     3     2
  C     1.39345873 +1  120.0568897 +1    0.1021314 +1     1     2     3
  H     1.09164459 +1  119.7345656 +1  179.7116340 +1     1     2     3
  H     1.09244101 +1  119.8425802 +1  178.7434234 +1     2     1     3
  H     1.09142176 +1  120.5586219 +1  179.4981527 +1     4     3     2
  H     1.09115164 +1  119.6129928 +1  179.7362920 +1     6     1     2
  C     1.50254874 +1  118.8264413 +1  179.9396081 +1     3     2     1
  C     1.52197284 +1  112.3572495 +1  127.8187873 +1    11     3     2
  H     1.10298647 +1  112.1301306 +1 -175.6794131 +1    12    11     3
  H     1.10037464 +1  112.2175852 +1   64.5181601 +1    12    11     3
  H     1.09931438 +1  110.7666668 +1  -55.7592946 +1    12    11     3
  N     1.49283195 +1  108.6015682 +1 -109.6886617 +1    11     3     2
  O     1.22340267 +1  120.1165466 +1   42.3996421 +1    16    11     3
  O     1.21999678 +1  119.1102069 +1 -138.3835075 +1    16    11     3
  N     3.90966691 +1  101.2727747 +1  -63.4327745 +1    15    12    11
  C     1.48049022 +1   74.0669852 +1  -85.8827528 +1    19    15    12
  C     1.55825870 +1  108.9541892 +1 -108.0650244 +1    20    19    15
  N     1.48244445 +1  109.6798176 +1  -58.5771667 +1    21    20    19
  C     1.48394628 +1  110.6739344 +1   58.2495962 +1    22    21    20
  C     1.48040337 +1  168.3776133 +1  161.6908230 +1    19    15    12
  H     1.11656873 +1  108.2808709 +1  -71.5640589 +1    24    19    15
  H     1.11167579 +1  112.6004659 +1  169.7894941 +1    24    19    15
  H     1.11036662 +1  108.5250948 +1 -178.6738957 +1    23    22    21
  H     1.11273650 +1  112.0350295 +1   63.3839405 +1    23    22    21
  H     1.11512813 +1  109.3799116 +1 -177.3325776 +1    21    20    19
  H     1.11230232 +1  108.7021403 +1   64.4958138 +1    21    20    19
  H     1.11077317 +1  112.6826657 +1  129.5677519 +1    20    19    15
  H     1.13886625 +1  110.7077428 +1    5.2333693 +1    11     3     2
  H     1.02971541 +1   75.8230072 +1   30.0639188 +1    19    15    12
  H     1.12082784 +1  108.6608943 +1   11.1320756 +1    20    19    15
  H     1.02828361 +1  109.1939853 +1  178.6248123 +1    22    21    20
  H     2.69051491 +1  165.3465186 +1 -172.6954888 +1    33    19    15
  H     1.52926078 +1   62.5938400 +1  -93.5532032 +1    36    33    19
  O     0.96502478 +1   37.6481110 +1 -132.0936597 +1    36    33    19
  H     1.09055292 +1  120.0854795 +1  179.8335499 +1     5     4     3

 TIME=     0.28
  REACTANTS AND PRODUCTS SWAPPED AROUND
 *+*+*+*+*+*+*+*+*+*+*+*+*+*+*+*+*+*+*+*+*+*+*+*+*+*+*+*+*+*+*+*+*+*+*+*+*+*+*+*+
            BAR SHORTENED BY       1.000 PERCENT
 GRADIENT CRITERION IN FLEPO =    10.000


          FOR POINT   20 FIRST  STRUCTURE
 DISTANCE A - B      5.705321
 HEAT              -73.226319
 GRADIENT NORM      23.366873
 DIRECTION COSINE   -0.181863
* ===============================
* Input file for Mopac
* ===============================
 PM7 BONDS AUX DUMP=30M ITRY=15000 T=14D CHARGE=0 SINGLET eps=78.4 RELSCF=1


  C     0.00000000 +0    0.0000000 +0    0.0000000 +0     0     0     0
  C     1.39155547 +1    0.0000000 +0    0.0000000 +0     1     0     0
  C     1.39623986 +1  120.0818103 +1    0.0000000 +0     2     1     0
  C     1.39745795 +1  120.0247784 +1    0.5215673 +1     3     2     1
  C     1.39488832 +1  119.6175686 +1    0.2836525 +1     4     3     2
  C     1.38804319 +1  120.3156051 +1   -2.2334571 +1     5     4     3
  H     1.09115911 +1  119.7485748 +1  179.3708065 +1     1     2     3
  H     1.09375218 +1  119.5273511 +1  179.6139475 +1     2     1     3
  H     1.08409937 +1  120.5369962 +1  178.5421186 +1     4     3     2
  H     1.09365469 +1  120.0155273 +1 -179.7956317 +1     6     5     4
  C     1.50568709 +1  118.5027039 +1 -177.9294255 +1     3     2     1
  C     1.52408421 +1  113.1949086 +1  143.6637847 +1    11     3     2
  H     1.10008510 +1  112.0845727 +1 -172.1181684 +1    12    11     3
  H     1.09925681 +1  113.1048534 +1   66.3513685 +1    12    11     3
  H     1.10290514 +1  110.5411764 +1  -53.3499131 +1    12    11     3
[...]
  C     1.52210176 +1  113.3237123 +1  136.1538673 +1    11     3     2
  H     1.10014667 +1  112.0110700 +1 -173.3904671 +1    12    11     3
  H     1.09970004 +1  112.9862819 +1   65.4454133 +1    12    11     3
  H     1.10139903 +1  110.5628153 +1  -54.2967835 +1    12    11     3
  N     1.50229348 +1  107.3439237 +1 -102.3392732 +1    11     3     2
  O     1.22013109 +1  118.3563704 +1   94.1975521 +1    16    11     3
  O     1.21965472 +1  119.6929328 +1  -84.6145204 +1    16    11     3
  N     4.19296630 +1  106.9731079 +1  -66.9590901 +1    15    12    11
  C     1.48164123 +1   97.9235869 +1  -73.4551198 +1    19    15    12
  C     1.54480901 +1  109.2839267 +1 -115.5502690 +1    20    19    15
  N     1.48605659 +1  109.9526920 +1  -58.7693861 +1    21    20    19
  C     1.48466139 +1  110.4404125 +1   58.2242603 +1    22    21    20
  C     1.48314933 +1  151.6306047 +1  115.0997854 +1    19    15    12
  H     1.11197526 +1  108.2506929 +1   -9.0180901 +1    24    19    15
  H     1.11121906 +1  112.4782125 +1 -126.9771862 +1    24    19    15
  H     1.11162532 +1  108.0904180 +1 -178.0378720 +1    23    22    21
  H     1.11107085 +1  112.2485217 +1   64.0483441 +1    23    22    21
  H     1.11173514 +1  109.8467855 +1 -177.4954208 +1    21    20    19
  H     1.11167089 +1  109.5467284 +1   65.1204677 +1    21    20    19
  H     1.11050820 +1  112.5593253 +1  122.1478626 +1    20    19    15
  H     1.13766124 +1  110.1875847 +1   13.4106823 +1    11     3     2
  H     1.02809618 +1   62.2148429 +1   35.4943337 +1    19    15    12
  H     1.11220864 +1  108.2310557 +1    4.0214350 +1    20    19    15
  H     1.02805637 +1  109.3036117 +1  178.5308370 +1    22    21    20
  H     2.72409337 +1  153.9004385 +1  156.5339919 +1    33    19    15
  H     1.52200301 +1   59.0441558 +1  -77.1105230 +1    36    33    19
  O     0.96442571 +1   37.9591124 +1  -39.9611799 +1    37    36    33
  H     1.09094444 +1  119.8960879 +1 -179.7536075 +1     5     4     3

 TIME=     0.49
  REACTANTS AND PRODUCTS SWAPPED AROUND
 *+*+*+*+*+*+*+*+*+*+*+*+*+*+*+*+*+*+*+*+*+*+*+*+*+*+*+*+*+*+*+*+*+*+*+*+*+*+*+*+
            BAR SHORTENED BY       1.000 PERCENT
 GRADIENT CRITERION IN FLEPO =     1.984


          FOR POINT  305 SECOND STRUCTURE
 DISTANCE A - B      0.385933
 HEAT              -73.379079
 GRADIENT NORM       2.718686
 DIRECTION COSINE   -0.657563
* ===============================
* Input file for Mopac
* ===============================
 PM7 BONDS AUX DUMP=30M ITRY=15000 T=14D CHARGE=0 SINGLET eps=78.4 RELSCF=1


  C     0.00000000 +0    0.0000000 +0    0.0000000 +0     0     0     0
  C     1.39254209 +1    0.0000000 +0    0.0000000 +0     1     0     0
  C     1.39615761 +1  120.0387441 +1    0.0000000 +0     2     1     0
  C     1.39582446 +1  119.9264292 +1    0.8139111 +1     3     2     1
  C     1.39265195 +1  119.9039214 +1   -0.7628996 +1     4     3     2
  C     1.39352401 +1  120.0022695 +1   -0.2734954 +1     1     2     3
  H     1.09072207 +1  119.8885567 +1  179.8148191 +1     1     2     3
  H     1.09289261 +1  119.6711832 +1  179.7968245 +1     2     1     3
  H     1.09192622 +1  120.3736825 +1  179.2216584 +1     4     3     2
  H     1.09103549 +1  119.9711369 +1  179.7954320 +1     6     1     2
  C     1.50667122 +1  118.8254981 +1 -178.7060301 +1     3     2     1
  C     1.52188340 +1  113.2145531 +1  135.1942933 +1    11     3     2
  H     1.10013850 +1  111.9631131 +1 -173.7551953 +1    12    11     3
  H     1.09923597 +1  112.9845676 +1   65.2631128 +1    12    11     3
  H     1.10185014 +1  110.5644022 +1  -54.5792069 +1    12    11     3
  N     1.50231589 +1  107.4187566 +1 -102.9196653 +1    11     3     2
  O     1.22094170 +1  118.3568600 +1   84.3162313 +1    16    11     3
  O     1.21927993 +1  119.7527720 +1  -94.5534597 +1    16    11     3
  N     4.14360834 +1  106.5101825 +1  -66.9910134 +1    15    12    11
  C     1.48168950 +1   96.8850564 +1  -74.2028036 +1    19    15    12
  C     1.54488674 +1  109.2716783 +1 -114.5792352 +1    20    19    15
  N     1.48508671 +1  109.9665990 +1  -58.7230968 +1    21    20    19
  C     1.48491987 +1  110.5193195 +1   58.1341652 +1    22    21    20
  C     1.48306161 +1  152.5153641 +1  116.4926638 +1    19    15    12
  H     1.11177324 +1  108.2279319 +1  -11.4027223 +1    24    19    15
  H     1.11116244 +1  112.4743286 +1 -129.3676554 +1    24    19    15
  H     1.11159377 +1  108.1202018 +1 -177.9795754 +1    23    22    21
  H     1.11146207 +1  112.2565874 +1   64.0792173 +1    23    22    21
  H     1.11173826 +1  109.8581188 +1 -177.4770570 +1    21    20    19
  H     1.11104826 +1  109.5756210 +1   65.0799215 +1    21    20    19
  H     1.11083705 +1  112.5493231 +1  123.1821458 +1    20    19    15
  H     1.13816064 +1  110.1729333 +1   12.5265376 +1    11     3     2
  H     1.02838484 +1   63.4240580 +1   35.2182534 +1    19    15    12
  H     1.11180300 +1  108.2382576 +1    4.9837201 +1    20    19    15
  H     1.02847721 +1  109.3171118 +1  178.4940886 +1    22    21    20
  H     2.71943912 +1  154.6432345 +1  157.9987793 +1    33    19    15
  H     1.52235167 +1   59.8026556 +1  -77.4767006 +1    36    33    19
  O     0.96461592 +1   37.9330457 +1  -38.5103366 +1    37    36    33
  H     1.09095557 +1  119.9095135 +1 -179.7538596 +1     5     4     3

 TIME=     0.32
  REACTANTS AND PRODUCTS SWAPPED AROUND
 *+*+*+*+*+*+*+*+*+*+*+*+*+*+*+*+*+*+*+*+*+*+*+*+*+*+*+*+*+*+*+*+*+*+*+*+*+*+*+*+
            BAR SHORTENED BY       1.000 PERCENT
 GRADIENT CRITERION IN FLEPO =     1.984
 

                    SINCE COS WAS JUST RESET,THE SEARCH IS BEING ENDED


          FOR POINT  306 FIRST  STRUCTURE
 DISTANCE A - B      0.382074
 HEAT              -73.350434
 GRADIENT NORM       3.611276
 DIRECTION COSINE   -0.687203
* ===============================
* Input file for Mopac
* ===============================
 PM7 BONDS AUX DUMP=30M ITRY=15000 T=14D CHARGE=0 SINGLET eps=78.4 RELSCF=1


  C     0.00000000 +0    0.0000000 +0    0.0000000 +0     0     0     0
  C     1.39253787 +1    0.0000000 +0    0.0000000 +0     1     0     0
  C     1.39625888 +1  120.0359870 +1    0.0000000 +0     2     1     0
  C     1.39562351 +1  119.9229524 +1    0.9826235 +1     3     2     1
  C     1.39260721 +1  119.9140459 +1   -0.9266778 +1     4     3     2
  C     1.39361446 +1  120.0014256 +1   -0.3509254 +1     1     2     3
  H     1.09069468 +1  119.8837694 +1  179.7391728 +1     1     2     3
  H     1.09281456 +1  119.6698346 +1  179.8319831 +1     2     1     3
  H     1.09193263 +1  120.3472137 +1  178.9916522 +1     4     3     2
  H     1.09097909 +1  119.9663410 +1  179.7882731 +1     6     1     2
  C     1.50647538 +1  118.8395734 +1 -178.5992231 +1     3     2     1
  C     1.52209929 +1  113.3226072 +1  136.1442709 +1    11     3     2
  H     1.10014646 +1  112.0105905 +1 -173.3941147 +1    12    11     3
  H     1.09969517 +1  112.9862633 +1   65.4435986 +1    12    11     3
  H     1.10140350 +1  110.5628284 +1  -54.2995974 +1    12    11     3
  N     1.50229328 +1  107.3446513 +1 -102.3450624 +1    11     3     2
  O     1.21999343 +1  118.3605144 +1   94.0991923 +1    16    11     3
  O     1.21949945 +1  119.6971319 +1  -84.7132900 +1    16    11     3
  N     4.19246992 +1  106.9685476 +1  -66.9594462 +1    15    12    11
  C     1.48163886 +1   97.9132999 +1  -73.4627127 +1    19    15    12
  C     1.54480891 +1  109.2837342 +1 -115.5405751 +1    20    19    15
  N     1.48604541 +1  109.9529142 +1  -58.7688904 +1    21    20    19
  C     1.48466069 +1  110.4412242 +1   58.2233798 +1    22    21    20
  C     1.48314671 +1  151.6395379 +1  115.1130722 +1    19    15    12
  H     1.11197087 +1  108.2504698 +1   -9.0413317 +1    24    19    15
  H     1.11121620 +1  112.4780879 +1 -127.0004478 +1    24    19    15
  H     1.11162367 +1  108.0907283 +1 -178.0372963 +1    23    22    21
  H     1.11107260 +1  112.2486155 +1   64.0487478 +1    23    22    21
  H     1.11173306 +1  109.8468321 +1 -177.4952387 +1    21    20    19
  H     1.11166261 +1  109.5470570 +1   65.1200775 +1    21    20    19
  H     1.11050967 +1  112.5592428 +1  122.1581728 +1    20    19    15
  H     1.13766578 +1  110.1874363 +1   13.4018449 +1    11     3     2
  H     1.02809854 +1   62.2268531 +1   35.4915354 +1    19    15    12
  H     1.11220334 +1  108.2311428 +1    4.0311161 +1    20    19    15
  H     1.02805995 +1  109.3038357 +1  178.5304683 +1    22    21    20
  H     2.72404163 +1  153.9079300 +1  156.5481453 +1    33    19    15
  H     1.52199658 +1   59.0517326 +1  -77.1136173 +1    36    33    19
  O     0.96442034 +1   37.9588531 +1  -39.9467573 +1    37    36    33
  H     1.09094346 +1  119.8962263 +1 -179.7536078 +1     5     4     3

 TIME=     0.53
  REACTANTS AND PRODUCTS SWAPPED AROUND
 *+*+*+*+*+*+*+*+*+*+*+*+*+*+*+*+*+*+*+*+*+*+*+*+*+*+*+*+*+*+*+*+*+*+*+*+*+*+*+*+
            BAR SHORTENED BY       1.000 PERCENT
 GRADIENT CRITERION IN FLEPO =     1.984
 

                    SINCE COS WAS JUST RESET,THE SEARCH IS BEING ENDED


          FOR POINT  307 SECOND STRUCTURE
 DISTANCE A - B      0.378253
 HEAT              -73.375741
 GRADIENT NORM       3.087849
 DIRECTION COSINE   -0.742101
* ===============================
* Input file for Mopac
* ===============================
 PM7 BONDS AUX DUMP=30M ITRY=15000 T=14D CHARGE=0 SINGLET eps=78.4 RELSCF=1


  C     0.00000000 +0    0.0000000 +0    0.0000000 +0     0     0     0
  C     1.39254151 +1    0.0000000 +0    0.0000000 +0     1     0     0
  C     1.39615722 +1  120.0387587 +1    0.0000000 +0     2     1     0
  C     1.39582104 +1  119.9263515 +1    0.8156002 +1     3     2     1
  C     1.39265098 +1  119.9040262 +1   -0.7645397 +1     4     3     2
  C     1.39352327 +1  120.0022676 +1   -0.2742700 +1     1     2     3
  H     1.09072083 +1  119.8885452 +1  179.8140621 +1     1     2     3
  H     1.09289044 +1  119.6711765 +1  179.7971774 +1     2     1     3
  H     1.09192558 +1  120.3733904 +1  179.2193559 +1     4     3     2
  H     1.09103449 +1  119.9710949 +1  179.7953612 +1     6     1     2
  C     1.50666872 +1  118.8256686 +1 -178.7049598 +1     3     2     1
  C     1.52188528 +1  113.2156203 +1  135.2037916 +1    11     3     2
  H     1.10013846 +1  111.9635879 +1 -173.7515849 +1    12    11     3
  H     1.09924033 +1  112.9845831 +1   65.2649257 +1    12    11     3
  H     1.10184563 +1  110.5643837 +1  -54.5764008 +1    12    11     3
  N     1.50231524 +1  107.4179952 +1 -102.9139055 +1    11     3     2
  O     1.22078946 +1  118.3609482 +1   84.4134521 +1    16    11     3
  O     1.21913357 +1  119.7557563 +1  -94.4555223 +1    16    11     3
  N     4.14409418 +1  106.5148343 +1  -66.9907342 +1    15    12    11
  C     1.48168619 +1   96.8954340 +1  -74.1955183 +1    19    15    12
  C     1.54488510 +1  109.2717302 +1 -114.5888652 +1    20    19    15
  N     1.48509484 +1  109.9665437 +1  -58.7235224 +1    21    20    19
  C     1.48491406 +1  110.5185609 +1   58.1350770 +1    22    21    20
  C     1.48306075 +1  152.5066953 +1  116.4782206 +1    19    15    12
  H     1.11177289 +1  108.2281616 +1  -11.3784998 +1    24    19    15
  H     1.11116073 +1  112.4742821 +1 -129.3433372 +1    24    19    15
  H     1.11159276 +1  108.1199194 +1 -177.9801596 +1    23    22    21
  H     1.11145606 +1  112.2565206 +1   64.0790058 +1    23    22    21
  H     1.11173614 +1  109.8579406 +1 -177.4772403 +1    21    20    19
  H     1.11105239 +1  109.5753743 +1   65.0803378 +1    21    20    19
  H     1.11083200 +1  112.5494394 +1  123.1718737 +1    20    19    15
  H     1.13815525 +1  110.1730764 +1   12.5352939 +1    11     3     2
  H     1.02838146 +1   63.4120053 +1   35.2209497 +1    19    15    12
  H     1.11180578 +1  108.2382012 +1    4.9742506 +1    20    19    15
  H     1.02847242 +1  109.3170663 +1  178.4944512 +1    22    21    20
  H     2.71948004 +1  154.6359475 +1  157.9837800 +1    33    19    15
  H     1.52233841 +1   59.7951446 +1  -77.4725001 +1    36    33    19
  O     0.96460685 +1   37.9333047 +1  -38.5247761 +1    37    36    33
  H     1.09095437 +1  119.9093846 +1 -179.7538549 +1     5     4     3

 TIME=     0.59
  REACTANTS AND PRODUCTS SWAPPED AROUND
 *+*+*+*+*+*+*+*+*+*+*+*+*+*+*+*+*+*+*+*+*+*+*+*+*+*+*+*+*+*+*+*+*+*+*+*+*+*+*+*+
            BAR SHORTENED BY       1.000 PERCENT
 GRADIENT CRITERION IN FLEPO =     1.984
 

                    SINCE COS WAS JUST RESET,THE SEARCH IS BEING ENDED


          FOR POINT  308 FIRST  STRUCTURE
 DISTANCE A - B      0.374471
 HEAT              -73.353884
 GRADIENT NORM       4.006979
 DIRECTION COSINE   -0.764993
* ===============================
* Input file for Mopac
* ===============================
 PM7 BONDS AUX DUMP=30M ITRY=15000 T=14D CHARGE=0 SINGLET eps=78.4 RELSCF=1


  C     0.00000000 +0    0.0000000 +0    0.0000000 +0     0     0     0
  C     1.39253737 +1    0.0000000 +0    0.0000000 +0     1     0     0
  C     1.39625649 +1  120.0360560 +1    0.0000000 +0     2     1     0
  C     1.39562409 +1  119.9229443 +1    0.9809554 +1     3     2     1
  C     1.39260713 +1  119.9139492 +1   -0.9250589 +1     4     3     2
  C     1.39361194 +1  120.0014404 +1   -0.3501593 +1     1     2     3
  H     1.09069399 +1  119.8838529 +1  179.7399210 +1     1     2     3
  H     1.09281396 +1  119.6698547 +1  179.8316365 +1     2     1     3
  H     1.09193186 +1  120.3474485 +1  178.9939266 +1     4     3     2
  H     1.09097921 +1  119.9663944 +1  179.7883448 +1     6     1     2
  C     1.50647678 +1  118.8394635 +1 -178.6002781 +1     3     2     1
  C     1.52209688 +1  113.3215242 +1  136.1348655 +1    11     3     2
  H     1.10014626 +1  112.0101206 +1 -173.3976896 +1    12    11     3
  H     1.09969040 +1  112.9862451 +1   65.4418198 +1    12    11     3
  H     1.10140788 +1  110.5628413 +1  -54.3023556 +1    12    11     3
  N     1.50229308 +1  107.3453647 +1 -102.3507367 +1    11     3     2
  O     1.21986136 +1  118.3644962 +1   94.0027602 +1    16    11     3
  O     1.21935022 +1  119.7011784 +1  -84.8101272 +1    16    11     3
  N     4.19198348 +1  106.9640767 +1  -66.9597945 +1    15    12    11
  C     1.48163659 +1   97.9032155 +1  -73.4701522 +1    19    15    12
  C     1.54480883 +1  109.2835468 +1 -115.5310738 +1    20    19    15
  N     1.48603447 +1  109.9531303 +1  -58.7684051 +1    21    20    19
  C     1.48466007 +1  110.4420192 +1   58.2225165 +1    22    21    20
  C     1.48314417 +1  151.6482918 +1  115.1261068 +1    19    15    12
  H     1.11196662 +1  108.2502510 +1   -9.0641224 +1    24    19    15
  H     1.11121344 +1  112.4779674 +1 -127.0232588 +1    24    19    15
  H     1.11162208 +1  108.0910322 +1 -178.0367320 +1    23    22    21
  H     1.11107436 +1  112.2487071 +1   64.0491416 +1    23    22    21
  H     1.11173106 +1  109.8468791 +1 -177.4950603 +1    21    20    19
  H     1.11165453 +1  109.5473783 +1   65.1196947 +1    21    20    19
  H     1.11051115 +1  112.5591616 +1  122.1682784 +1    20    19    15
  H     1.13767023 +1  110.1872908 +1   13.3931833 +1    11     3     2
  H     1.02810087 +1   62.2386259 +1   35.4887936 +1    19    15    12
  H     1.11219816 +1  108.2312278 +1    4.0406033 +1    20    19    15
  H     1.02806347 +1  109.3040535 +1  178.5301070 +1    22    21    20
  H     2.72399102 +1  153.9152713 +1  156.5620265 +1    33    19    15
  H     1.52199048 +1   59.0591589 +1  -77.1166609 +1    36    33    19
  O     0.96441523 +1   37.9585989 +1  -39.9326197 +1    37    36    33
  H     1.09094252 +1  119.8963618 +1 -179.7536083 +1     5     4     3

 TIME=     0.49
  REACTANTS AND PRODUCTS SWAPPED AROUND
 *+*+*+*+*+*+*+*+*+*+*+*+*+*+*+*+*+*+*+*+*+*+*+*+*+*+*+*+*+*+*+*+*+*+*+*+*+*+*+*+
            BAR SHORTENED BY       1.000 PERCENT
 GRADIENT CRITERION IN FLEPO =     1.007
 

                    SINCE COS WAS JUST RESET,THE SEARCH IS BEING ENDED


          FOR POINT  309 SECOND STRUCTURE
 DISTANCE A - B      0.370726
 HEAT              -73.375582
 GRADIENT NORM       3.903628
 DIRECTION COSINE   -0.804022
* ===============================
* Input file for Mopac
* ===============================
 PM7 BONDS AUX DUMP=30M ITRY=15000 T=14D CHARGE=0 SINGLET eps=78.4 RELSCF=1


  C     0.00000000 +0    0.0000000 +0    0.0000000 +0     0     0     0
  C     1.39253439 +1    0.0000000 +0    0.0000000 +0     1     0     0
  C     1.39621495 +1  120.0404053 +1    0.0000000 +0     2     1     0
  C     1.39578342 +1  119.9262684 +1    0.8179474 +1     3     2     1
  C     1.39276779 +1  119.9017713 +1   -0.7682510 +1     4     3     2
  C     1.39350071 +1  119.9991146 +1   -0.2739675 +1     1     2     3
  H     1.09071698 +1  119.8895068 +1  179.8189750 +1     1     2     3
  H     1.09284808 +1  119.6767159 +1  179.7924414 +1     2     1     3
  H     1.09190721 +1  120.3779826 +1  179.2172258 +1     4     3     2
  H     1.09107398 +1  119.9694114 +1  179.7968616 +1     6     1     2
  C     1.50661948 +1  118.8263020 +1 -178.7025344 +1     3     2     1
  C     1.52191579 +1  113.2166786 +1  135.2154585 +1    11     3     2
  H     1.10010849 +1  111.9611664 +1 -173.7484480 +1    12    11     3
  H     1.09911384 +1  112.9838757 +1   65.2664720 +1    12    11     3
  H     1.10100773 +1  110.6696397 +1  -54.4590817 +1    12    11     3
  N     1.50237689 +1  107.4181059 +1 -102.9102950 +1    11     3     2
  O     1.22057435 +1  118.3640307 +1   84.4924096 +1    16    11     3
  O     1.21881824 +1  119.7572785 +1  -94.3685056 +1    16    11     3
  N     4.14737165 +1  106.3764532 +1  -66.9958082 +1    15    12    11
  C     1.48175342 +1   96.8919328 +1  -74.2512553 +1    19    15    12
  C     1.54489628 +1  109.2717673 +1 -114.5987441 +1    20    19    15
  N     1.48506390 +1  109.9687737 +1  -58.7280022 +1    21    20    19
  C     1.48490086 +1  110.5162911 +1   58.1350434 +1    22    21    20
  C     1.48307995 +1  152.5207947 +1  116.4040645 +1    19    15    12
  H     1.11178388 +1  108.2261615 +1  -11.3642288 +1    24    19    15
  H     1.11114428 +1  112.4823633 +1 -129.3221591 +1    24    19    15
  H     1.11158007 +1  108.1189755 +1 -177.9794341 +1    23    22    21
  H     1.11151865 +1  112.2558195 +1   64.0755418 +1    23    22    21
  H     1.11177982 +1  109.8585737 +1 -177.4903648 +1    21    20    19
  H     1.11109574 +1  109.5680540 +1   65.0811717 +1    21    20    19
  H     1.11016475 +1  112.5295456 +1  123.1597695 +1    20    19    15
  H     1.13818121 +1  110.1719333 +1   12.5403429 +1    11     3     2
  H     1.02843467 +1   63.4169647 +1   35.1618615 +1    19    15    12
  H     1.11180782 +1  108.2349362 +1    4.9684957 +1    20    19    15
  H     1.02852171 +1  109.3133938 +1  178.4920107 +1    22    21    20
  H     2.71916033 +1  154.6313122 +1  157.9667344 +1    33    19    15
  H     1.52215942 +1   59.7952672 +1  -77.4726591 +1    36    33    19
  O     0.96452119 +1   37.9326071 +1  -38.5514008 +1    37    36    33
  H     1.09095909 +1  119.9085355 +1 -179.7468498 +1     5     4     3


          BOTH SYSTEMS ARE ON THE SAME SIDE OF THE TRANSITION STATE.

 ******************************************************************************
 *                                                                            *
 *     Error and normal termination messages reported in this calculation     *
 *                                                                            *
 * BOTH SYSTEMS ARE ON THE SAME SIDE OF THE TRANSITION STATE.                 *
 * JOB ENDED NORMALLY                                                         *
 *                                                                            *
 ******************************************************************************



 TOTAL JOB TIME:           151.73 SECONDS

 == MOPAC DONE ==
