 *******************************************************************************
 **                                                                           **
 **                              MOPAC v22.0.6                                **
 **                                                                           **
 *******************************************************************************
 **          Digital Object Identifier (DOI): 10.5281/zenodo.6511958          **
 **    Visit the DOI location for information on how to cite this program.    **
 *******************************************************************************

                              PM7 CALCULATION RESULTS

 *******************************************************************************
 *  CALCULATION DONE:                                Mon Mar 25 23:11:50 2024  *
 *  PM7        - The PM7 Hamiltonian to be used
 *  SINGLET    - SPIN STATE DEFINED AS A SINGLET
 *
 *
 *
 *                 CHARGE ON SYSTEM = -1
 *
 *
 *
 *  EPS=78.4   - USE ANDREAS KLAMT'S COSMO IMPLICIT SOLVATION MODEL
 *  SADDLE     - TRANSITION STATE TO BE OPTIMIZED
 *  T=         - A TIME OF 14.0 DAYS REQUESTED
 *  DUMP=N     - RESTART FILE WRITTEN EVERY 30.0 MINUTES REQUESTED
 *  RELSCF     - DEFAULT SCF CRITERION MULTIPLIED BY 1.0000
 *              (DEFAULT SCF CRITERION = 0.00010)
 *  ITRY=      - DO A MAXIMUM OF 15000 ITERATIONS FOR SCF
 *  AUX        - OUTPUT AUXILIARY INFORMATION
 *  BONDS      - FINAL BOND-ORDER MATRIX TO BE PRINTED
 *******************************************************************************
SADDLE PM7 BONDS AUX DUMP=30M ITRY=15000 T=14D CHARGE=-1 SINGLET eps=78.4 RELSCF=1


   ATOM   CHEMICAL          X               Y               Z
  NUMBER   SYMBOL      (ANGSTROMS)     (ANGSTROMS)     (ANGSTROMS)

     1       C         -0.80163000  *   1.17051000  *   0.01907000  *
     2       C          0.54035000  *   1.16033000  *   0.37713000  *
     3       C          1.29307000  *  -0.01788000  *   0.28723000  *
     4       C          0.68731000  *  -1.19598000  *  -0.15115000  *
     5       C         -0.65869000  *  -1.20598000  *  -0.50678000  *
     6       C         -1.39351000  *  -0.01991000  *  -0.42119000  *
     7       H         -1.38705000  *   2.09519000  *   0.08186000  *
     8       H          1.00541000  *   2.08900000  *   0.72489000  *
     9       H          1.25280000  *  -2.12993000  *  -0.22492000  *
    10       C          2.74452000  *   0.03205000  *   0.69523000  *
    11       H          2.82647000  *   0.51968000  *   1.73239000  *
    12       C          3.44606000  *  -1.31770000  *   0.75773000  *
    13       H          4.49308000  *  -1.22253000  *   1.08750000  *
    14       H          3.46042000  *  -1.84483000  *  -0.20655000  *
    15       H          2.94865000  *  -1.98081000  *   1.48567000  *
    16       N          3.51499000  *   0.91132000  *  -0.24424000  *
    17       O          4.68449000  *   1.14756000  *   0.01828000  *
    18       O          2.96521000  *   1.37036000  *  -1.23099000  *
    19       O          2.54270000  *   1.26596000  *   5.95487000  *
    20       H          2.20381000  *   0.59550000  *   6.48792000  *
    21       H         -1.13127000  *  -2.13339000  *  -0.84833000  *
    22       N         -2.78709000  *  -0.02162000  *  -0.79634000  *
    23       O         -3.32580000  *  -1.08020000  *  -1.09529000  *
    24       O         -3.40525000  *   1.03586000  *  -0.80857000  *
    25       H          1.60852000  *   0.09085000  *   3.54568000  *
    26       H          2.52788000  *   0.74038000  *   4.75983000  *
    27       O          2.51578000  *   0.26073000  *   3.71071000  *



          CARTESIAN COORDINATES 

    NO.       ATOM           X           Y           Z

     1         C         -0.8016      1.1705      0.0191
     2         C          0.5403      1.1603      0.3771
     3         C          1.2931     -0.0179      0.2872
     4         C          0.6873     -1.1960     -0.1512
     5         C         -0.6587     -1.2060     -0.5068
     6         C         -1.3935     -0.0199     -0.4212
     7         H         -1.3871      2.0952      0.0819
     8         H          1.0054      2.0890      0.7249
     9         H          1.2528     -2.1299     -0.2249
    10         C          2.7445      0.0321      0.6952
    11         H          2.8265      0.5197      1.7324
    12         C          3.4461     -1.3177      0.7577
    13         H          4.4931     -1.2225      1.0875
    14         H          3.4604     -1.8448     -0.2066
    15         H          2.9487     -1.9808      1.4857
    16         N          3.5150      0.9113     -0.2442
    17         O          4.6845      1.1476      0.0183
    18         O          2.9652      1.3704     -1.2310
    19         O          2.5427      1.2660      5.9549
    20         H          2.2038      0.5955      6.4879
    21         H         -1.1313     -2.1334     -0.8483
    22         N         -2.7871     -0.0216     -0.7963
    23         O         -3.3258     -1.0802     -1.0953
    24         O         -3.4053      1.0359     -0.8086
    25         H          1.6085      0.0908      3.5457
    26         H          2.5279      0.7404      4.7598
    27         O          2.5158      0.2607      3.7107

 General Reference for PM7:
 "Optimization of Parameters for Semiempirical Methods VI: More Modifications to the 
 NDDO Approximations and Re-optimization of Parameters", J. J. P. Stewart, J. Mol. Mod., 1:32, 19 (2013)
 https://link.springer.com/article/10.1007/s00894-012-1667-x

           Empirical Formula: C8 H11 N2 O6  =    27 atoms



      MOLECULAR POINT GROUP   :   C1  


 SINGLET STATE CALCULATION


      RHF CALCULATION, NO. OF DOUBLY OCCUPIED LEVELS = 45



  CARTESIAN GEOMETRY OF FIRST SYSTEM


   1    C          0.11176       1.08718       0.93418
   2    C          0.24294       1.32294      -0.42267
   3    C          0.17506       0.26973      -1.35762
   4    C          0.02220      -1.04733      -0.86775
   5    C         -0.10948      -1.29830       0.48412
   6    C         -0.08028      -0.22615       1.39190
   7    H          0.15551       1.91720       1.64859
   8    H          0.40346       2.34794      -0.76695
   9    H         -0.01315      -1.88463      -1.56697
  10    C          0.24673       0.48406      -2.77957
  11    H          2.24645       1.25564      -2.92752
  12    C          0.63777      -0.64533      -3.67672
  13    H          0.96682      -0.30381      -4.67050
  14    H         -0.20244      -1.33549      -3.84606
  15    H          1.46829      -1.23382      -3.25918
  16    N         -0.14421       1.64092      -3.36082
  17    O         -0.15376       1.76847      -4.60935
  18    O         -0.50538       2.63346      -2.68675
  19    O          5.27865       2.83648      -3.03076
  20    H          6.00059       2.23262      -2.83171
  21    H         -0.24622      -2.32250       0.84725
  22    N         -0.24940      -0.47426       2.78637
  23    O         -0.37644      -1.62797       3.18852
  24    O         -0.27220       0.46933       3.57272
  25    H          3.37092       0.52658      -2.18534
  26    H          4.48620       2.28341      -2.98840
  27    O          3.20204       1.13068      -2.92127


  CARTESIAN GEOMETRY OF SECOND SYSTEM


   1    C          0.17458       1.14212       0.91147
   2    C          0.37456       1.38467      -0.44145
   3    C          0.34367       0.33275      -1.36631
   4    C          0.12537      -0.97273      -0.92460
   5    C         -0.06929      -1.23530       0.42871
   6    C         -0.04566      -0.17359       1.33769
   7    H          0.19055       1.96741       1.63282
   8    H          0.55024       2.41218      -0.77762
   9    H          0.10199      -1.81163      -1.62688
  10    C          0.57294       0.65762      -2.82149
  11    H          1.52626       1.29155      -2.91903
  12    C          0.71917      -0.54871      -3.73871
  13    H          0.91227      -0.25154      -4.78200
  14    H         -0.16853      -1.19662      -3.74909
  15    H          1.57513      -1.17152      -3.42810
  16    N         -0.54939       1.50378      -3.34467
  17    O         -0.45393       1.94816      -4.47864
  18    O         -1.51514       1.73269      -2.63645
  19    O          5.63003       2.56664      -2.91425
  20    H          6.27654       1.93346      -2.74218
  21    H         -0.23813      -2.26185       0.77189
  22    N         -0.25511      -0.43795       2.74092
  23    O         -0.35830      -1.59693       3.12340
  24    O         -0.32558       0.50193       3.52336
  25    H          3.50628       0.94023      -1.96437
  26    H          4.51801       1.88373      -2.87404
  27    O          3.54390       1.26649      -2.84264


   "DISTANCE":     2.009082


  REACTION COORDINATE VECTOR


   1    C         -0.06282      -0.05494       0.02271
   2    C         -0.13162      -0.06173       0.01878
   3    C         -0.16861      -0.06302       0.00869
   4    C         -0.10317      -0.07460       0.05685
   5    C         -0.04020      -0.06300       0.05541
   6    C         -0.03462      -0.05256       0.05421
   7    H         -0.03504      -0.05020       0.01577
   8    H         -0.14678      -0.06424       0.01067
   9    H         -0.11514      -0.07300       0.05990
  10    C         -0.32621      -0.17356       0.04193
  11    H          0.72019      -0.03591      -0.00849
  12    C         -0.08140      -0.09663       0.06199
  13    H          0.05455      -0.05227       0.11150
  14    H         -0.03391      -0.13887      -0.09698
  15    H         -0.10684      -0.06231       0.16892
  16    N          0.40518       0.13714      -0.01615
  17    O          0.30018      -0.17968      -0.13071
  18    O          1.00976       0.90077      -0.05030
  19    O         -0.35138       0.26984      -0.11650
  20    H         -0.27595       0.29915      -0.08953
  21    H         -0.00809      -0.06065       0.07536
  22    N          0.00571      -0.03631       0.04544
  23    O         -0.01814      -0.03104       0.06513
  24    O          0.05338      -0.03260       0.04936
  25    H         -0.13537      -0.41365      -0.22097
  26    H         -0.03181       0.39967      -0.11436
  27    O         -0.34186      -0.13581      -0.07863
 *+*+*+*+*+*+*+*+*+*+*+*+*+*+*+*+*+*+*+*+*+*+*+*+*+*+*+*+*+*+*+*+*+*+*+*+*+*+*+*+
            BAR SHORTENED BY       0.000 PERCENT
 GRADIENT CRITERION IN FLEPO =     1.000
  SCF CRITERION =    0.1000E-03
           THERE HAVE BEEN 3 ATTEMPTS TO REDUCE THE GRADIENT.
           DURING THESE ATTEMPTS THE ENERGY DROPPED BY LESS THAN 0.3 KCAL/MOLE
           FURTHER CALCULATION IS NOT JUSTIFIED AT THIS TIME.
           TO CONTINUE, START AGAIN WITH THE WORD "PRECISE"


          FOR POINT    1 SECOND STRUCTURE
 DISTANCE A - B      2.009082
 HEAT             -252.012141
 GRADIENT NORM       6.840874
 DIRECTION COSINE    0.000074
* ===============================
* Input file for Mopac
* ===============================
 PM7 BONDS AUX DUMP=30M ITRY=15000 T=14D CHARGE=-1 SINGLET eps=78.4 RELSCF=1


  C     0.00000000 +0    0.0000000 +0    0.0000000 +0     0     0     0
  C     1.38197468 +1    0.0000000 +0    0.0000000 +0     1     0     0
  C     1.41059396 +1  121.2057629 +1    0.0000000 +0     2     1     0
  C     1.41301574 +1  118.1851476 +1   -2.3822975 +1     3     2     1
  C     1.38082456 +1  121.2110963 +1    2.5622616 +1     4     3     2
  C     1.40497648 +1  119.4802386 +1   -0.7557356 +1     5     4     3
  H     1.09540558 +1  120.4784433 +1 -179.0092232 +1     1     2     3
  H     1.09361674 +1  118.9382802 +1 -179.0440126 +1     2     1     3
  H     1.09161861 +1  119.6885900 +1 -178.1513352 +1     4     3     2
  C     1.43925741 +1  122.7923906 +1  177.5011032 +1     3     2     1
  H     2.22176978 +1   98.8220909 +1   63.4555428 +1    10     3     2
  C     1.49315284 +1  119.5601010 +1  157.6487750 +1    10     3     2
  H     1.10261806 +1  112.4201041 +1 -160.7190072 +1    12    10     3
  H     1.09851145 +1  111.9597087 +1   79.2625197 +1    12    10     3
  H     1.10004672 +1  111.7665288 +1  -41.2393530 +1    12    10     3
  N     1.35109495 +1  122.5945015 +1  -26.1577757 +1    10     3     2
  O     1.25553513 +1  121.2947743 +1 -176.6822816 +1    16    10     3
  O     1.25423528 +1  121.7971150 +1    3.6993121 +1    16    10     3
  O     3.36771453 +1  174.5403623 +1  -74.9915795 +1    11    10     3
  H     0.96076414 +1  112.5169267 +1  143.9975340 +1    19    11    10
  H     1.09531132 +1  120.4554385 +1  178.6401672 +1     5     4     3
  N     1.42554513 +1  119.8764708 +1  178.9938212 +1     6     5     4
  O     1.22851822 +1  119.7546685 +1    3.2330384 +1    22     6     5
  O     1.22947460 +1  119.5970118 +1 -176.4369005 +1    22     6     5
  H     1.53548072 +1  116.0118271 +1   47.4501600 +1    11    10     3
  H     0.97017445 +1    8.5139875 +1  156.2399764 +1    19    11    10
  O     0.96705455 +1  146.1155089 +1   78.4475493 +1    11    10     3

 TIME=    10.70
  REACTANTS AND PRODUCTS SWAPPED AROUND
 *+*+*+*+*+*+*+*+*+*+*+*+*+*+*+*+*+*+*+*+*+*+*+*+*+*+*+*+*+*+*+*+*+*+*+*+*+*+*+*+
            BAR SHORTENED BY       1.000 PERCENT
 GRADIENT CRITERION IN FLEPO =     3.841
 

                    SINCE COS WAS JUST RESET,THE SEARCH IS BEING ENDED


          FOR POINT    2 FIRST  STRUCTURE
 DISTANCE A - B      1.988991
 HEAT             -222.209969
 GRADIENT NORM      12.969789
 DIRECTION COSINE    0.185818
* ===============================
* Input file for Mopac
* ===============================
 PM7 BONDS AUX DUMP=30M ITRY=15000 T=14D CHARGE=-1 SINGLET eps=78.4 RELSCF=1


  C     0.00000000 +0    0.0000000 +0    0.0000000 +0     0     0     0
  C     1.38969694 +1    0.0000000 +0    0.0000000 +0     1     0     0
  C     1.39903482 +1  120.4130065 +1    0.0000000 +0     2     1     0
  C     1.39614915 +1  120.0443486 +1   -0.8527973 +1     3     2     1
  C     1.39203547 +1  120.2024659 +1    0.2430278 +1     4     3     2
  C     1.39852212 +1  119.1440069 +1    0.2360370 +1     5     4     3
  H     1.09636316 +1  120.3373197 +1 -179.7169653 +1     1     2     3
  H     1.09526541 +1  119.2491452 +1  179.3984792 +1     2     1     3
  H     1.09346985 +1  121.2075537 +1 -179.6522888 +1     4     3     2
  C     1.51219598 +1  117.9713736 +1 -179.8458880 +1     3     2     1
  H     1.15168033 +1  108.9495714 +1   50.6379390 +1    10     3     2
  C     1.52446757 +1  115.0220738 +1  171.8818881 +1    10     3     2
  H     1.10158489 +1  111.9382552 +1 -178.4502876 +1    12    10     3
  H     1.09937469 +1  113.4498199 +1   60.5273054 +1    12    10     3
  H     1.10232836 +1  110.6242513 +1  -59.9927357 +1    12    10     3
  N     1.49504545 +1  110.2344583 +1  -65.7720781 +1    10     3     2
  O     1.22138140 +1  118.1527867 +1  174.1417685 +1    16    10     3
  O     1.22166905 +1  119.7104877 +1   -5.2310984 +1    16    10     3
  O     4.28937834 +1  163.3023731 +1   68.3986572 +1    11    10     3
  H     0.92002307 +1  117.8773751 +1    3.8415657 +1    19    11    10
  H     1.09559461 +1  120.1243832 +1 -179.9393219 +1     5     4     3
  N     1.44538132 +1  119.4229854 +1  179.7915937 +1     6     5     4
  O     1.22104465 +1  119.1748608 +1    4.6455004 +1    22     6     5
  O     1.22302409 +1  119.1943894 +1 -174.9707466 +1    22     6     5
  H     2.22152274 +1  128.1927102 +1   46.6258458 +1    11    10     3
  H     1.30049393 +1   14.2285937 +1    9.1908340 +1    19    11    10
  O     0.93495340 +1   65.0251019 +1  142.2538099 +1    25    11    10

 TIME=     1.87
  REACTANTS AND PRODUCTS SWAPPED AROUND
 *+*+*+*+*+*+*+*+*+*+*+*+*+*+*+*+*+*+*+*+*+*+*+*+*+*+*+*+*+*+*+*+*+*+*+*+*+*+*+*+
            BAR SHORTENED BY       1.000 PERCENT
 GRADIENT CRITERION IN FLEPO =     9.970


          FOR POINT    3 SECOND STRUCTURE
 DISTANCE A - B      1.969101
 HEAT             -251.992676
 GRADIENT NORM      20.761605
 DIRECTION COSINE   -0.276917
* ===============================
* Input file for Mopac
* ===============================
 PM7 BONDS AUX DUMP=30M ITRY=15000 T=14D CHARGE=-1 SINGLET eps=78.4 RELSCF=1


  C     0.00000000 +0    0.0000000 +0    0.0000000 +0     0     0     0
  C     1.38666693 +1    0.0000000 +0    0.0000000 +0     1     0     0
  C     1.41044584 +1  121.0439890 +1    0.0000000 +0     2     1     0
  C     1.41275483 +1  118.2117082 +1   -2.8822238 +1     3     2     1
  C     1.38521250 +1  121.3118491 +1    2.8621691 +1     4     3     2
  C     1.39997161 +1  119.5229149 +1    0.8963909 +1     1     2     3
  H     1.09850052 +1  120.1868369 +1 -179.0512070 +1     1     2     3
  H     1.09211814 +1  118.8789637 +1 -179.6103714 +1     2     1     3
  H     1.09141119 +1  119.7014850 +1 -177.9912381 +1     4     3     2
  C     1.43566954 +1  122.8634004 +1  177.5837671 +1     3     2     1
  H     2.21462325 +1   98.9980281 +1   62.9739496 +1    10     3     2
  C     1.49271814 +1  119.9170678 +1  157.4902237 +1    10     3     2
  H     1.09905226 +1  112.5438682 +1 -160.9232197 +1    12    10     3
  H     1.09786862 +1  111.7338268 +1   78.7329623 +1    12    10     3
  H     1.10599910 +1  111.4697792 +1  -41.5729869 +1    12    10     3
  N     1.35189715 +1  122.5258670 +1  -26.9656195 +1    10     3     2
  O     1.25526127 +1  121.6968020 +1 -176.6514458 +1    16    10     3
  O     1.25665501 +1  121.5060335 +1    3.7748031 +1    16    10     3
  O     3.36904644 +1  174.7933775 +1  -73.6244033 +1    11    10     3
  H     0.96324223 +1  112.7609596 +1  142.8637371 +1    19    11    10
  H     1.09061687 +1  120.4519666 +1  178.4059116 +1     5     4     3
  N     1.42976978 +1  119.6359820 +1 -178.8209363 +1     6     1     2
  O     1.22722229 +1  119.5648354 +1 -176.6382967 +1    22     6     1
  O     1.22414458 +1  119.5925099 +1    3.5707203 +1    22     6     1
  H     1.53648402 +1  116.0433243 +1   47.5669354 +1    11    10     3
  H     0.97021073 +1    8.7428134 +1  155.0126162 +1    19    11    10
  O     0.96696347 +1   37.6195300 +1  151.7840733 +1    25    11    10

 *+*+*+*+*+*+*+*+*+*+*+*+*+*+*+*+*+*+*+*+*+*+*+*+*+*+*+*+*+*+*+*+*+*+*+*+*+*+*+*+
            BAR SHORTENED BY       1.000 PERCENT
 GRADIENT CRITERION IN FLEPO =    10.000


          FOR POINT    4 SECOND STRUCTURE
 DISTANCE A - B      1.949410
 HEAT             -252.017512
 GRADIENT NORM      14.663869
 DIRECTION COSINE   -0.123734
* ===============================
* Input file for Mopac
* ===============================
 PM7 BONDS AUX DUMP=30M ITRY=15000 T=14D CHARGE=-1 SINGLET eps=78.4 RELSCF=1


  C     0.00000000 +0    0.0000000 +0    0.0000000 +0     0     0     0
  C     1.38222048 +1    0.0000000 +0    0.0000000 +0     1     0     0
  C     1.40762263 +1  121.2605071 +1    0.0000000 +0     2     1     0
  C     1.41606073 +1  118.1765107 +1   -2.9711020 +1     3     2     1
  C     1.38069999 +1  121.1296039 +1    2.9367652 +1     4     3     2
  C     1.40477220 +1  119.5069818 +1   -0.7622661 +1     5     4     3
  H     1.09556285 +1  120.4394416 +1 -179.0642579 +1     1     2     3
  H     1.09560912 +1  118.6929323 +1 -179.7425474 +1     2     1     3
  H     1.08865829 +1  119.6344476 +1 -178.0141907 +1     4     3     2
  C     1.43976967 +1  122.9633913 +1  177.3577686 +1     3     2     1
  H     2.21158603 +1   98.7864535 +1   62.9975571 +1    10     3     2
  C     1.49431097 +1  119.6476622 +1  157.4377689 +1    10     3     2
  H     1.10357900 +1  112.2320135 +1 -160.9339847 +1    12    10     3
  H     1.09554647 +1  111.5563417 +1   79.0675271 +1    12    10     3
  H     1.09942635 +1  111.7543247 +1  -41.5573346 +1    12    10     3
  N     1.34967471 +1  122.3998683 +1  -27.0699808 +1    10     3     2
  O     1.25484847 +1  121.5750647 +1 -177.0538042 +1    16    10     3
  O     1.25197521 +1  121.4640210 +1    3.4547827 +1    16    10     3
  O     3.37251086 +1  175.0234645 +1  -73.7207404 +1    11    10     3
  H     0.96333747 +1  112.8097100 +1  143.1967693 +1    19    11    10
  H     1.09603795 +1  120.4519987 +1  178.2103632 +1     5     4     3
  N     1.42567070 +1  119.8967491 +1  179.0013503 +1     6     5     4
  O     1.22874621 +1  119.7678192 +1    2.8716424 +1    22     6     5
  O     1.22972090 +1  119.6055709 +1 -176.3981836 +1    22     6     5
  H     1.54178307 +1  116.0491564 +1   47.2207165 +1    11    10     3
  H     0.97237903 +1    8.9038325 +1  155.0401292 +1    19    11    10
  O     0.97287398 +1   37.6214062 +1  151.4978461 +1    25    11    10

 TIME=     0.58
  REACTANTS AND PRODUCTS SWAPPED AROUND
 *+*+*+*+*+*+*+*+*+*+*+*+*+*+*+*+*+*+*+*+*+*+*+*+*+*+*+*+*+*+*+*+*+*+*+*+*+*+*+*+
            BAR SHORTENED BY       1.000 PERCENT
 GRADIENT CRITERION IN FLEPO =    10.000


          FOR POINT    5 FIRST  STRUCTURE
 DISTANCE A - B      1.929916
 HEAT             -222.283855
 GRADIENT NORM      14.382059
 DIRECTION COSINE    0.097784
* ===============================
* Input file for Mopac
* ===============================
 PM7 BONDS AUX DUMP=30M ITRY=15000 T=14D CHARGE=-1 SINGLET eps=78.4 RELSCF=1


  C     0.00000000 +0    0.0000000 +0    0.0000000 +0     0     0     0
  C     1.38463775 +1    0.0000000 +0    0.0000000 +0     1     0     0
  C     1.40172785 +1  120.6818804 +1    0.0000000 +0     2     1     0
  C     1.39275206 +1  119.8527462 +1   -0.7309182 +1     3     2     1
  C     1.39300408 +1  120.4312541 +1    0.3571398 +1     4     3     2
  C     1.40109339 +1  119.0829757 +1    0.0151360 +1     5     4     3
  H     1.09337745 +1  120.6458796 +1 -179.4796528 +1     1     2     3
  H     1.09624304 +1  119.2994427 +1  179.4815595 +1     2     1     3
  H     1.09641891 +1  121.2620356 +1 -179.5857236 +1     4     3     2
  C     1.50816517 +1  118.0863694 +1 -179.5403492 +1     3     2     1
  H     1.15739464 +1  109.0191296 +1   50.5994131 +1    10     3     2
  C     1.52581518 +1  115.1547634 +1  171.9170457 +1    10     3     2
  H     1.10158663 +1  112.0327169 +1 -178.5111647 +1    12    10     3
  H     1.09939391 +1  113.5412827 +1   60.3445263 +1    12    10     3
  H     1.10418238 +1  110.5677308 +1  -60.0075131 +1    12    10     3
  N     1.49856811 +1  110.3287240 +1  -65.6615717 +1    10     3     2
  O     1.22049206 +1  118.2502774 +1  174.5631925 +1    16    10     3
  O     1.22058815 +1  119.4339106 +1   -4.8520667 +1    16    10     3
  O     4.28203243 +1  163.5274649 +1   68.5055303 +1    11    10     3
  H     0.92357358 +1  117.5802591 +1    3.5391631 +1    19    11    10
  H     1.09637607 +1  120.4696462 +1 -179.7371987 +1     5     4     3
  N     1.44016654 +1  119.6631402 +1 -179.9933033 +1     6     5     4
  O     1.22637681 +1  119.1882173 +1    4.4778031 +1    22     6     5
  O     1.22557832 +1  119.4608264 +1 -174.8728320 +1    22     6     5
  H     2.21628772 +1  128.2210255 +1   46.8177451 +1    11    10     3
  H     1.29407373 +1   14.2404928 +1    8.6765743 +1    19    11    10
  O     0.93270675 +1   64.7275897 +1  142.6726815 +1    25    11    10

 TIME=     0.36
  REACTANTS AND PRODUCTS SWAPPED AROUND
 *+*+*+*+*+*+*+*+*+*+*+*+*+*+*+*+*+*+*+*+*+*+*+*+*+*+*+*+*+*+*+*+*+*+*+*+*+*+*+*+
            BAR SHORTENED BY       1.000 PERCENT
 GRADIENT CRITERION IN FLEPO =    10.000


          FOR POINT    6 SECOND STRUCTURE
 DISTANCE A - B      1.910617
 HEAT             -251.733290
 GRADIENT NORM      19.016839
 DIRECTION COSINE    0.472763
* ===============================
* Input file for Mopac
* ===============================
 PM7 BONDS AUX DUMP=30M ITRY=15000 T=14D CHARGE=-1 SINGLET eps=78.4 RELSCF=1


  C     0.00000000 +0    0.0000000 +0    0.0000000 +0     0     0     0
  C     1.38657642 +1    0.0000000 +0    0.0000000 +0     1     0     0
  C     1.41038705 +1  121.0217298 +1    0.0000000 +0     2     1     0
  C     1.41353208 +1  118.1017516 +1   -2.9939757 +1     3     2     1
  C     1.38171108 +1  121.4731232 +1    2.9997148 +1     4     3     2
  C     1.40035004 +1  119.5355718 +1    1.0508910 +1     1     2     3
  H     1.09842812 +1  120.1597017 +1 -179.3356155 +1     1     2     3
  H     1.09118154 +1  118.7307738 +1 -179.7568283 +1     2     1     3
  H     1.09390796 +1  119.4373487 +1 -178.0715565 +1     4     3     2
  C     1.43672895 +1  122.7964187 +1  177.2260236 +1     3     2     1
  H     2.20799892 +1   98.8385648 +1   62.9523916 +1    10     3     2
  C     1.49153141 +1  119.6907564 +1  157.5827446 +1    10     3     2
  H     1.10246979 +1  112.3037333 +1 -161.0734391 +1    12    10     3
  H     1.10093710 +1  111.4541664 +1   78.8026919 +1    12    10     3
  H     1.09986082 +1  111.6784329 +1  -41.6764258 +1    12    10     3
  N     1.34925860 +1  122.3964357 +1  -27.4667707 +1    10     3     2
  O     1.25794056 +1  121.8568982 +1 -176.9512571 +1    16    10     3
  O     1.25219132 +1  121.4429704 +1    3.3932615 +1    16    10     3
  O     3.37327869 +1  175.2620529 +1  -72.7579647 +1    11    10     3
  H     0.96257636 +1  112.9300115 +1  142.2392632 +1    19    11    10
  H     1.09112993 +1  120.4933695 +1  178.4344855 +1     5     4     3
  N     1.42958190 +1  119.6498426 +1 -179.0202781 +1     6     1     2
  O     1.22723081 +1  119.5772073 +1 -176.6128247 +1    22     6     1
  O     1.22465118 +1  119.5824738 +1    3.5873048 +1    22     6     1
  H     1.53733442 +1  116.0724842 +1   47.2272013 +1    11    10     3
  H     0.96349435 +1    9.4549446 +1  153.9987478 +1    19    11    10
  O     0.96667453 +1   37.7452923 +1  151.1548592 +1    25    11    10

 *+*+*+*+*+*+*+*+*+*+*+*+*+*+*+*+*+*+*+*+*+*+*+*+*+*+*+*+*+*+*+*+*+*+*+*+*+*+*+*+
            BAR SHORTENED BY       1.000 PERCENT
 GRADIENT CRITERION IN FLEPO =    10.000


          FOR POINT    7 SECOND STRUCTURE
 DISTANCE A - B      1.891511
 HEAT             -251.699063
 GRADIENT NORM      16.460197
 DIRECTION COSINE    0.072447
* ===============================
* Input file for Mopac
* ===============================
 PM7 BONDS AUX DUMP=30M ITRY=15000 T=14D CHARGE=-1 SINGLET eps=78.4 RELSCF=1


  C     0.00000000 +0    0.0000000 +0    0.0000000 +0     0     0     0
  C     1.38335344 +1    0.0000000 +0    0.0000000 +0     1     0     0
  C     1.40978737 +1  121.1308442 +1    0.0000000 +0     2     1     0
  C     1.41348301 +1  118.1717758 +1   -2.7756915 +1     3     2     1
  C     1.38076261 +1  121.2910382 +1    2.7985191 +1     4     3     2
  C     1.40373812 +1  119.5369596 +1    0.8150057 +1     1     2     3
  H     1.09632923 +1  120.3258562 +1 -179.3106562 +1     1     2     3
  H     1.09376585 +1  118.7899229 +1 -179.5305782 +1     2     1     3
  H     1.09156349 +1  119.5566586 +1 -178.0858903 +1     4     3     2
  C     1.43871167 +1  122.8638823 +1  177.0267005 +1     3     2     1
  H     2.21563018 +1   98.4355869 +1   63.1670722 +1    10     3     2
  C     1.49663790 +1  119.5775172 +1  156.7704100 +1    10     3     2
  H     1.09844561 +1  112.2380147 +1 -161.3845716 +1    12    10     3
  H     1.09246854 +1  110.6995593 +1   79.3266316 +1    12    10     3
  H     1.09086875 +1  112.0728304 +1  -40.5320473 +1    12    10     3
  N     1.34939767 +1  122.4327872 +1  -27.2391162 +1    10     3     2
  O     1.25490771 +1  121.8121259 +1 -177.3754455 +1    16    10     3
  O     1.25336397 +1  121.2618442 +1    2.6197974 +1    16    10     3
  O     3.37196548 +1  175.4311762 +1  -75.2767685 +1    11    10     3
  H     0.96190499 +1  112.8492554 +1  144.8760390 +1    19    11    10
  H     1.09465509 +1  120.4613983 +1  178.4523881 +1     5     4     3
  N     1.42654740 +1  119.7606810 +1 -178.9864057 +1     6     1     2
  O     1.22819489 +1  119.7220849 +1 -176.5757432 +1    22     6     1
  O     1.22852476 +1  119.5754289 +1    3.7884593 +1    22     6     1
  H     1.52989838 +1  116.3440177 +1   47.0202201 +1    11    10     3
  H     0.97307222 +1    9.4025576 +1  158.7787969 +1    19    11    10
  O     0.95417317 +1   37.3701764 +1  151.4810031 +1    25    11    10

 *+*+*+*+*+*+*+*+*+*+*+*+*+*+*+*+*+*+*+*+*+*+*+*+*+*+*+*+*+*+*+*+*+*+*+*+*+*+*+*+
            BAR SHORTENED BY       1.000 PERCENT
 GRADIENT CRITERION IN FLEPO =    10.000


          FOR POINT    8 SECOND STRUCTURE
 DISTANCE A - B      1.872595
 HEAT             -251.741414
 GRADIENT NORM      17.333616
 DIRECTION COSINE    0.183811
* ===============================
* Input file for Mopac
* ===============================
 PM7 BONDS AUX DUMP=30M ITRY=15000 T=14D CHARGE=-1 SINGLET eps=78.4 RELSCF=1


  C     0.00000000 +0    0.0000000 +0    0.0000000 +0     0     0     0
  C     1.38310665 +1    0.0000000 +0    0.0000000 +0     1     0     0
  C     1.41026068 +1  121.1133362 +1    0.0000000 +0     2     1     0
  C     1.41249481 +1  118.2300041 +1   -2.8059380 +1     3     2     1
  C     1.38143739 +1  121.2393326 +1    2.8193578 +1     4     3     2
  C     1.40417258 +1  119.5124759 +1    0.7386047 +1     1     2     3
  H     1.09591618 +1  120.3467289 +1 -179.2794209 +1     1     2     3
  H     1.09490943 +1  119.0803111 +1 -179.6194565 +1     2     1     3
  H     1.09393462 +1  119.7712237 +1 -179.1266703 +1     4     3     2
  C     1.43939537 +1  122.7974596 +1  177.2360703 +1     3     2     1
  H     2.21702360 +1   98.4651449 +1   62.4310307 +1    10     3     2
  C     1.49207091 +1  119.6775472 +1  156.9952264 +1    10     3     2
  H     1.10118420 +1  112.4563965 +1 -161.4214687 +1    12    10     3
  H     1.10195939 +1  111.2508329 +1   79.0014590 +1    12    10     3
  H     1.09946663 +1  112.0109352 +1  -40.9453636 +1    12    10     3
  N     1.35036062 +1  122.2821176 +1  -28.0316399 +1    10     3     2
  O     1.25482381 +1  121.8190349 +1 -177.3673628 +1    16    10     3
  O     1.25881816 +1  121.2960521 +1    2.6814263 +1    16    10     3
  O     3.36407419 +1  176.4826499 +1  -72.7940776 +1    11    10     3
  H     0.96165336 +1  113.3744134 +1  142.5726409 +1    19    11    10
  H     1.09383239 +1  120.2468456 +1  178.4243427 +1     5     4     3
  N     1.42062120 +1  119.8139897 +1 -178.7005316 +1     6     1     2
  O     1.22741373 +1  119.6581925 +1 -176.3915804 +1    22     6     1
  O     1.23250576 +1  119.7660860 +1    3.5928876 +1    22     6     1
  H     1.54372954 +1  115.5818870 +1   47.9216037 +1    11    10     3
  H     0.97310952 +1    9.6567043 +1  154.4314904 +1    19    11    10
  O     0.96567886 +1   36.9603303 +1  149.4950427 +1    25    11    10

 TIME=     0.86
  REACTANTS AND PRODUCTS SWAPPED AROUND
 *+*+*+*+*+*+*+*+*+*+*+*+*+*+*+*+*+*+*+*+*+*+*+*+*+*+*+*+*+*+*+*+*+*+*+*+*+*+*+*+
            BAR SHORTENED BY       0.000 PERCENT
 GRADIENT CRITERION IN FLEPO =    10.000


          FOR POINT    9 FIRST  STRUCTURE
 DISTANCE A - B      1.872595
 HEAT             -222.308418
 GRADIENT NORM      11.132976
 DIRECTION COSINE   -0.095877
* ===============================
* Input file for Mopac
* ===============================
 PM7 BONDS AUX DUMP=30M ITRY=15000 T=14D CHARGE=-1 SINGLET eps=78.4 RELSCF=1


  C     0.00000000 +0    0.0000000 +0    0.0000000 +0     0     0     0
  C     1.38566654 +1    0.0000000 +0    0.0000000 +0     1     0     0
  C     1.40148474 +1  120.6554357 +1    0.0000000 +0     2     1     0
  C     1.39331342 +1  119.8608499 +1   -0.7277030 +1     3     2     1
  C     1.39252141 +1  120.3690833 +1    0.0721035 +1     4     3     2
  C     1.39996898 +1  119.1653492 +1    0.5527714 +1     5     4     3
  H     1.09473935 +1  120.6134185 +1 -179.4712553 +1     1     2     3
  H     1.09580227 +1  119.2968225 +1  179.4717061 +1     2     1     3
  H     1.09583938 +1  121.2312066 +1 -179.6082626 +1     4     3     2
  C     1.50842177 +1  118.1009892 +1 -179.5224868 +1     3     2     1
  H     1.15652704 +1  108.9860325 +1   50.5669133 +1    10     3     2
  C     1.52504982 +1  115.1693816 +1  171.9215439 +1    10     3     2
  H     1.10156330 +1  112.0472697 +1 -178.5484452 +1    12    10     3
  H     1.09953406 +1  113.5518130 +1   60.3578700 +1    12    10     3
  H     1.10367155 +1  110.5938758 +1  -60.0294413 +1    12    10     3
  N     1.49873361 +1  110.2732967 +1  -65.6561573 +1    10     3     2
  O     1.22077249 +1  118.2271947 +1  174.5674753 +1    16    10     3
  O     1.22032355 +1  119.4876393 +1   -4.8540276 +1    16    10     3
  O     4.28266890 +1  163.5346372 +1   68.6359568 +1    11    10     3
  H     0.92315602 +1  117.5771623 +1    3.4528297 +1    19    11    10
  H     1.09681315 +1  120.3804644 +1  179.9077412 +1     5     4     3
  N     1.44085338 +1  119.6711731 +1  179.7059271 +1     6     5     4
  O     1.22593977 +1  119.1901395 +1    4.2840996 +1    22     6     5
  O     1.22541946 +1  119.4329837 +1 -175.1808900 +1    22     6     5
  H     2.21680845 +1  128.2480666 +1   46.8767950 +1    11    10     3
  H     1.29388632 +1   14.2251099 +1    8.6429492 +1    19    11    10
  O     0.93368879 +1   64.7173983 +1  142.7809039 +1    25    11    10

 TIME=     0.34
  REACTANTS AND PRODUCTS SWAPPED AROUND
 *+*+*+*+*+*+*+*+*+*+*+*+*+*+*+*+*+*+*+*+*+*+*+*+*+*+*+*+*+*+*+*+*+*+*+*+*+*+*+*+
            BAR SHORTENED BY       1.000 PERCENT
 GRADIENT CRITERION IN FLEPO =     8.133


          FOR POINT   10 SECOND STRUCTURE
 DISTANCE A - B      1.853869
 HEAT             -251.773676
 GRADIENT NORM       9.702105
 DIRECTION COSINE    0.018863
* ===============================
* Input file for Mopac
* ===============================
 PM7 BONDS AUX DUMP=30M ITRY=15000 T=14D CHARGE=-1 SINGLET eps=78.4 RELSCF=1


  C     0.00000000 +0    0.0000000 +0    0.0000000 +0     0     0     0
  C     1.38289517 +1    0.0000000 +0    0.0000000 +0     1     0     0
  C     1.41099422 +1  121.1028061 +1    0.0000000 +0     2     1     0
  C     1.41300102 +1  118.2958243 +1   -3.0237847 +1     3     2     1
  C     1.38087570 +1  121.1963433 +1    2.8154807 +1     4     3     2
  C     1.40401713 +1  119.3907693 +1    1.0398229 +1     1     2     3
  H     1.09526744 +1  120.4903339 +1 -179.1256851 +1     1     2     3
  H     1.09289972 +1  118.9956738 +1  179.9067131 +1     2     1     3
  H     1.09159753 +1  119.7532276 +1 -178.7851470 +1     4     3     2
  C     1.43532769 +1  122.7070554 +1  177.0425504 +1     3     2     1
  H     2.21220377 +1   98.5115263 +1   62.3740338 +1    10     3     2
  C     1.49339492 +1  119.7616937 +1  156.9122599 +1    10     3     2
  H     1.10074523 +1  112.5805224 +1 -161.2738237 +1    12    10     3
  H     1.09833613 +1  111.2764124 +1   78.8221252 +1    12    10     3
  H     1.10113785 +1  111.8171237 +1  -41.1672625 +1    12    10     3
  N     1.35307842 +1  122.3392193 +1  -28.5111785 +1    10     3     2
  O     1.25583144 +1  121.8082353 +1 -177.6118893 +1    16    10     3
  O     1.25448762 +1  121.2841148 +1    2.2932198 +1    16    10     3
  O     3.36722464 +1  176.4251327 +1  -72.2873504 +1    11    10     3
  H     0.96191459 +1  113.4571751 +1  142.1544695 +1    19    11    10
  H     1.09494547 +1  120.2288082 +1  178.4555440 +1     5     4     3
  N     1.42513738 +1  119.7686166 +1 -178.7801868 +1     6     1     2
  O     1.22853314 +1  119.6192217 +1 -176.4639041 +1    22     6     1
  O     1.22842848 +1  119.6899080 +1    3.6682409 +1    22     6     1
  H     1.53581743 +1  115.7473217 +1   47.5500722 +1    11    10     3
  H     0.97201849 +1    9.5701995 +1  154.6976421 +1    19    11    10
  O     0.96485621 +1  144.6915112 +1   79.6431767 +1    11    10     3

 *+*+*+*+*+*+*+*+*+*+*+*+*+*+*+*+*+*+*+*+*+*+*+*+*+*+*+*+*+*+*+*+*+*+*+*+*+*+*+*+
            BAR SHORTENED BY       1.000 PERCENT
 GRADIENT CRITERION IN FLEPO =     6.702


          FOR POINT   11 SECOND STRUCTURE
 DISTANCE A - B      1.835331
 HEAT             -251.683658
 GRADIENT NORM      13.058184
 DIRECTION COSINE    0.553050
* ===============================
* Input file for Mopac
* ===============================
 PM7 BONDS AUX DUMP=30M ITRY=15000 T=14D CHARGE=-1 SINGLET eps=78.4 RELSCF=1


  C     0.00000000 +0    0.0000000 +0    0.0000000 +0     0     0     0
  C     1.38289813 +1    0.0000000 +0    0.0000000 +0     1     0     0
  C     1.41087394 +1  121.0975533 +1    0.0000000 +0     2     1     0
  C     1.41277052 +1  118.3141994 +1   -2.9991281 +1     3     2     1
  C     1.38097174 +1  121.1866715 +1    2.7877777 +1     4     3     2
  C     1.40401072 +1  119.3858637 +1    1.0341262 +1     1     2     3
  H     1.09528481 +1  120.4910160 +1 -179.1297266 +1     1     2     3
  H     1.09294671 +1  118.9980756 +1  179.9079066 +1     2     1     3
  H     1.09159268 +1  119.7664623 +1 -178.7789306 +1     4     3     2
  C     1.43596763 +1  122.6580712 +1  177.0815442 +1     3     2     1
  H     2.20158668 +1   98.5988873 +1   62.3072893 +1    10     3     2
  C     1.49336732 +1  119.7377442 +1  157.0625224 +1    10     3     2
  H     1.10029891 +1  112.5625638 +1 -161.4560992 +1    12    10     3
  H     1.09836171 +1  111.2931100 +1   78.6254140 +1    12    10     3
  H     1.10021410 +1  111.7645452 +1  -41.4185248 +1    12    10     3
  N     1.35223268 +1  122.2830513 +1  -28.9490300 +1    10     3     2
  O     1.25561944 +1  121.8569945 +1 -177.6133449 +1    16    10     3
  O     1.25073012 +1  121.2168672 +1    2.3685771 +1    16    10     3
  O     3.37578531 +1  176.5614870 +1  -70.8970537 +1    11    10     3
  H     0.96156011 +1  113.5198500 +1  140.7640735 +1    19    11    10
  H     1.09494864 +1  120.2301878 +1  178.4700397 +1     5     4     3
  N     1.42530054 +1  119.7662960 +1 -178.7932971 +1     6     1     2
  O     1.22847942 +1  119.6183964 +1 -176.4559668 +1    22     6     1
  O     1.22843362 +1  119.6833599 +1    3.6841486 +1    22     6     1
  H     1.54071869 +1  116.0049960 +1   47.4766347 +1    11    10     3
  H     0.97510255 +1    9.6207149 +1  153.1356762 +1    19    11    10
  O     0.96466329 +1   37.6172102 +1  149.6437648 +1    25    11    10

 *+*+*+*+*+*+*+*+*+*+*+*+*+*+*+*+*+*+*+*+*+*+*+*+*+*+*+*+*+*+*+*+*+*+*+*+*+*+*+*+
            BAR SHORTENED BY       1.000 PERCENT
 GRADIENT CRITERION IN FLEPO =    10.000


          FOR POINT   12 SECOND STRUCTURE
 DISTANCE A - B      1.816977
 HEAT             -251.538160
 GRADIENT NORM      18.405144
 DIRECTION COSINE    0.430858
* ===============================
* Input file for Mopac
* ===============================
 PM7 BONDS AUX DUMP=30M ITRY=15000 T=14D CHARGE=-1 SINGLET eps=78.4 RELSCF=1


  C     0.00000000 +0    0.0000000 +0    0.0000000 +0     0     0     0
  C     1.38289460 +1    0.0000000 +0    0.0000000 +0     1     0     0
  C     1.40634279 +1  121.0602965 +1    0.0000000 +0     2     1     0
  C     1.41474749 +1  118.5275680 +1   -2.9542187 +1     3     2     1
  C     1.37834802 +1  120.8994910 +1    2.7400615 +1     4     3     2
  C     1.40399167 +1  119.5839464 +1   -0.4832730 +1     5     4     3
  H     1.09981767 +1  120.5127716 +1 -178.9710994 +1     1     2     3
  H     1.09588725 +1  118.9479032 +1  179.7028082 +1     2     1     3
  H     1.09645797 +1  119.3358995 +1 -178.4032921 +1     4     3     2
  C     1.43943348 +1  122.7519325 +1  176.9208258 +1     3     2     1
  H     2.19826801 +1   98.2891091 +1   62.2712356 +1    10     3     2
  C     1.49057106 +1  119.7396189 +1  156.6675888 +1    10     3     2
  H     1.10012487 +1  112.4425910 +1 -161.3428875 +1    12    10     3
  H     1.09911120 +1  110.7680870 +1   78.7703051 +1    12    10     3
  H     1.09861655 +1  112.1035084 +1  -41.3170085 +1    12    10     3
  N     1.35034765 +1  122.2111107 +1  -29.0689722 +1    10     3     2
  O     1.25240511 +1  122.1322681 +1 -178.0943372 +1    16    10     3
  O     1.25354935 +1  121.0709347 +1    1.9029170 +1    16    10     3
  O     3.38136140 +1  176.6955111 +1  -73.4044772 +1    11    10     3
  H     0.96165566 +1  113.4816054 +1  143.3173839 +1    19    11    10
  H     1.09558918 +1  120.2115691 +1  178.6169932 +1     5     4     3
  N     1.42613324 +1  119.7007967 +1  178.3925594 +1     6     5     4
  O     1.22790432 +1  119.6368873 +1    3.9483646 +1    22     6     5
  O     1.22489928 +1  119.4017332 +1 -176.4582258 +1    22     6     5
  H     1.53567085 +1  116.3384490 +1   47.4153241 +1    11    10     3
  H     0.97503242 +1    9.4249513 +1  155.8528990 +1    19    11    10
  O     0.96637514 +1   37.8901500 +1  149.4289648 +1    25    11    10

 TIME=     1.20
  REACTANTS AND PRODUCTS SWAPPED AROUND
 *+*+*+*+*+*+*+*+*+*+*+*+*+*+*+*+*+*+*+*+*+*+*+*+*+*+*+*+*+*+*+*+*+*+*+*+*+*+*+*+
            BAR SHORTENED BY       0.000 PERCENT
 GRADIENT CRITERION IN FLEPO =    10.000
 

                    SINCE COS WAS JUST RESET,THE SEARCH IS BEING ENDED


          FOR POINT   13 FIRST  STRUCTURE
 DISTANCE A - B      1.816977
 HEAT             -222.201041
 GRADIENT NORM      11.128361
 DIRECTION COSINE    0.086784
* ===============================
* Input file for Mopac
* ===============================
 PM7 BONDS AUX DUMP=30M ITRY=15000 T=14D CHARGE=-1 SINGLET eps=78.4 RELSCF=1


  C     0.00000000 +0    0.0000000 +0    0.0000000 +0     0     0     0
  C     1.38566654 +1    0.0000000 +0    0.0000000 +0     1     0     0
  C     1.40148474 +1  120.6554357 +1    0.0000000 +0     2     1     0
  C     1.39331342 +1  119.8608499 +1   -0.7277029 +1     3     2     1
  C     1.39252141 +1  120.3690833 +1    0.0721034 +1     4     3     2
  C     1.39996898 +1  119.1653492 +1    0.5527715 +1     5     4     3
  H     1.09473935 +1  120.6134185 +1 -179.4712553 +1     1     2     3
  H     1.09580227 +1  119.2968225 +1  179.4717061 +1     2     1     3
  H     1.09583938 +1  121.2312066 +1 -179.6082626 +1     4     3     2
  C     1.50842177 +1  118.1009890 +1 -179.5224867 +1     3     2     1
  H     1.15652702 +1  108.9860328 +1   50.5669131 +1    10     3     2
  C     1.52504983 +1  115.1693814 +1  171.9215444 +1    10     3     2
  H     1.10156330 +1  112.0472697 +1 -178.5484456 +1    12    10     3
  H     1.09953406 +1  113.5518132 +1   60.3578695 +1    12    10     3
  H     1.10367155 +1  110.5938756 +1  -60.0294419 +1    12    10     3
  N     1.49873361 +1  110.2732963 +1  -65.6561580 +1    10     3     2
  O     1.22077249 +1  118.2271945 +1  174.5674752 +1    16    10     3
  O     1.22032355 +1  119.4876399 +1   -4.8540259 +1    16    10     3
  O     4.28266891 +1  163.5346370 +1   68.6359568 +1    11    10     3
  H     0.92315602 +1  117.5771623 +1    3.4528298 +1    19    11    10
  H     1.09681315 +1  120.3804645 +1  179.9077413 +1     5     4     3
  N     1.44085338 +1  119.6711731 +1  179.7059272 +1     6     5     4
  O     1.22593977 +1  119.1901395 +1    4.2840995 +1    22     6     5
  O     1.22541946 +1  119.4329836 +1 -175.1808900 +1    22     6     5
  H     2.21680845 +1  128.2480666 +1   46.8767950 +1    11    10     3
  H     1.29388633 +1   14.2251097 +1    8.6429491 +1    19    11    10
  O     0.93368879 +1   64.7173985 +1  142.7809037 +1    25    11    10

 TIME=     0.59
  REACTANTS AND PRODUCTS SWAPPED AROUND
 *+*+*+*+*+*+*+*+*+*+*+*+*+*+*+*+*+*+*+*+*+*+*+*+*+*+*+*+*+*+*+*+*+*+*+*+*+*+*+*+
            BAR SHORTENED BY       1.000 PERCENT
 GRADIENT CRITERION IN FLEPO =     8.128


          FOR POINT   14 SECOND STRUCTURE
 DISTANCE A - B      1.798808
 HEAT             -251.399485
 GRADIENT NORM      16.025309
 DIRECTION COSINE    0.128334
* ===============================
* Input file for Mopac
* ===============================
 PM7 BONDS AUX DUMP=30M ITRY=15000 T=14D CHARGE=-1 SINGLET eps=78.4 RELSCF=1


  C     0.00000000 +0    0.0000000 +0    0.0000000 +0     0     0     0
  C     1.38286563 +1    0.0000000 +0    0.0000000 +0     1     0     0
  C     1.41097163 +1  121.1074890 +1    0.0000000 +0     2     1     0
  C     1.41197352 +1  118.4614072 +1   -2.3125009 +1     3     2     1
  C     1.38270630 +1  121.0740809 +1    2.2875432 +1     4     3     2
  C     1.40397186 +1  119.2514262 +1    0.5056054 +1     1     2     3
  H     1.09466407 +1  120.4994419 +1 -179.2757935 +1     1     2     3
  H     1.09265277 +1  119.0025806 +1 -179.8569785 +1     2     1     3
  H     1.09291026 +1  119.4594582 +1 -178.6244184 +1     4     3     2
  C     1.43728500 +1  122.5074671 +1  176.6545418 +1     3     2     1
  H     2.19194951 +1   98.1282077 +1   62.8129162 +1    10     3     2
  C     1.49156062 +1  119.3602362 +1  157.1055495 +1    10     3     2
  H     1.10044799 +1  112.4526157 +1 -161.2357492 +1    12    10     3
  H     1.09986630 +1  110.7992773 +1   78.8037568 +1    12    10     3
  H     1.10127058 +1  112.0251023 +1  -41.2231895 +1    12    10     3
  N     1.35013238 +1  122.4831117 +1  -29.0023287 +1    10     3     2
  O     1.25556580 +1  121.9715939 +1 -178.3836869 +1    16    10     3
  O     1.25161273 +1  121.0247303 +1    1.8876275 +1    16    10     3
  O     3.38458977 +1  176.8427591 +1  -75.0210575 +1    11    10     3
  H     0.96250292 +1  113.4502649 +1  144.5629683 +1    19    11    10
  H     1.09169602 +1  120.2376279 +1  178.8158649 +1     5     4     3
  N     1.42659181 +1  119.8464258 +1 -178.6060982 +1     6     1     2
  O     1.22918236 +1  119.9388106 +1 -176.1576627 +1    22     6     1
  O     1.23002669 +1  119.3108309 +1    3.8936971 +1    22     6     1
  H     1.52972961 +1  116.9602936 +1   46.7208862 +1    11    10     3
  H     0.97451387 +1    9.3626790 +1  158.5158407 +1    19    11    10
  O     0.95852426 +1   38.0530459 +1  148.7915771 +1    25    11    10

 *+*+*+*+*+*+*+*+*+*+*+*+*+*+*+*+*+*+*+*+*+*+*+*+*+*+*+*+*+*+*+*+*+*+*+*+*+*+*+*+
            BAR SHORTENED BY       1.000 PERCENT
 GRADIENT CRITERION IN FLEPO =    10.000


          FOR POINT   15 SECOND STRUCTURE
 DISTANCE A - B      1.780820
 HEAT             -251.286778
 GRADIENT NORM      21.781923
 DIRECTION COSINE    0.225974
* ===============================
* Input file for Mopac
* ===============================
 PM7 BONDS AUX DUMP=30M ITRY=15000 T=14D CHARGE=-1 SINGLET eps=78.4 RELSCF=1


  C     0.00000000 +0    0.0000000 +0    0.0000000 +0     0     0     0
  C     1.38291120 +1    0.0000000 +0    0.0000000 +0     1     0     0
  C     1.40583016 +1  121.0581481 +1    0.0000000 +0     2     1     0
  C     1.41477379 +1  118.5599165 +1   -2.7692550 +1     3     2     1
  C     1.37844302 +1  120.8847829 +1    2.7804989 +1     4     3     2
  C     1.40408835 +1  119.6085426 +1   -0.6000383 +1     5     4     3
  H     1.09999906 +1  120.5155454 +1 -179.0559851 +1     1     2     3
  H     1.09617245 +1  118.9452642 +1  179.8502837 +1     2     1     3
  H     1.08986952 +1  119.4199748 +1 -178.4612182 +1     4     3     2
  C     1.44112717 +1  122.5944892 +1  176.8771307 +1     3     2     1
  H     2.18531090 +1   98.1896341 +1   62.2791014 +1    10     3     2
  C     1.48673239 +1  119.5232723 +1  156.8600015 +1    10     3     2
  H     1.10025584 +1  112.4135466 +1 -161.5112475 +1    12    10     3
  H     1.09970653 +1  110.7138500 +1   78.5737113 +1    12    10     3
  H     1.09920996 +1  112.2190699 +1  -41.5697589 +1    12    10     3
  N     1.34798404 +1  122.0626795 +1  -29.7500522 +1    10     3     2
  O     1.25528725 +1  122.0895854 +1 -178.1990547 +1    16    10     3
  O     1.25274932 +1  121.2362230 +1    1.9069022 +1    16    10     3
  O     3.38628078 +1  177.2627182 +1  -74.8144040 +1    11    10     3
  H     0.95815297 +1  113.9304653 +1  144.4526474 +1    19    11    10
  H     1.09709041 +1  120.2445973 +1  178.4017396 +1     5     4     3
  N     1.42601220 +1  119.7457531 +1  178.6326241 +1     6     5     4
  O     1.22789460 +1  119.6177149 +1    3.6796572 +1    22     6     5
  O     1.22468095 +1  119.4415105 +1 -176.1995162 +1    22     6     5
  H     1.53554054 +1  117.0285483 +1   47.0625797 +1    11    10     3
  H     0.96784365 +1    9.4651453 +1  157.2605770 +1    19    11    10
  O     0.96421112 +1   38.0634816 +1  148.5412664 +1    25    11    10

 *+*+*+*+*+*+*+*+*+*+*+*+*+*+*+*+*+*+*+*+*+*+*+*+*+*+*+*+*+*+*+*+*+*+*+*+*+*+*+*+
            BAR SHORTENED BY       1.000 PERCENT
 GRADIENT CRITERION IN FLEPO =    10.000


          FOR POINT   16 SECOND STRUCTURE
 DISTANCE A - B      1.763011
 HEAT             -251.288448
 GRADIENT NORM      24.479583
 DIRECTION COSINE    0.094692
* ===============================
* Input file for Mopac
* ===============================
 PM7 BONDS AUX DUMP=30M ITRY=15000 T=14D CHARGE=-1 SINGLET eps=78.4 RELSCF=1


  C     0.00000000 +0    0.0000000 +0    0.0000000 +0     0     0     0
  C     1.38279639 +1    0.0000000 +0    0.0000000 +0     1     0     0
  C     1.40969409 +1  121.0609677 +1    0.0000000 +0     2     1     0
  C     1.41204471 +1  118.4927297 +1   -2.7462839 +1     3     2     1
  C     1.38098680 +1  121.0509062 +1    2.7722024 +1     4     3     2
  C     1.40469974 +1  119.3243683 +1    0.7287186 +1     1     2     3
  H     1.09651634 +1  120.4393816 +1 -179.4518964 +1     1     2     3
  H     1.09409586 +1  118.9960067 +1 -179.9729945 +1     2     1     3
  H     1.08956294 +1  119.4923732 +1 -176.3819754 +1     4     3     2
  C     1.43847735 +1  122.5441945 +1  176.6026519 +1     3     2     1
  H     2.19015025 +1   97.9255622 +1   62.4349919 +1    10     3     2
  C     1.49084911 +1  119.4516319 +1  156.7268046 +1    10     3     2
  H     1.10204832 +1  112.0892039 +1 -161.4187320 +1    12    10     3
  H     1.10232473 +1  110.1988674 +1   78.7896629 +1    12    10     3
  H     1.11832800 +1  111.9719206 +1  -42.2045073 +1    12    10     3
  N     1.35062420 +1  121.8233287 +1  -29.6841376 +1    10     3     2
  O     1.25845338 +1  121.5502542 +1 -178.4728919 +1    16    10     3
  O     1.26276330 +1  121.5795781 +1    0.5941890 +1    16    10     3
  O     3.38402119 +1  177.4096660 +1  -82.8131696 +1    11    10     3
  H     0.96288492 +1  113.5206249 +1  152.0410056 +1    19    11    10
  H     1.09467413 +1  120.2774313 +1  178.4816850 +1     5     4     3
  N     1.42634963 +1  119.8642630 +1 -178.6614385 +1     6     1     2
  O     1.22802681 +1  119.8201742 +1 -176.2263424 +1    22     6     1
  O     1.22831484 +1  119.3701342 +1    4.0499498 +1    22     6     1
  H     1.52920892 +1  117.0790988 +1   47.2446799 +1    11    10     3
  H     0.97486891 +1    9.5370568 +1  165.9483577 +1    19    11    10
  O     0.96678909 +1   37.7600282 +1  147.7452694 +1    25    11    10

 TIME=     1.55
  REACTANTS AND PRODUCTS SWAPPED AROUND
 *+*+*+*+*+*+*+*+*+*+*+*+*+*+*+*+*+*+*+*+*+*+*+*+*+*+*+*+*+*+*+*+*+*+*+*+*+*+*+*+
            BAR SHORTENED BY       0.000 PERCENT
 GRADIENT CRITERION IN FLEPO =    10.000


          FOR POINT   17 FIRST  STRUCTURE
 DISTANCE A - B      1.763011
 HEAT             -222.219811
 GRADIENT NORM       8.730495
 DIRECTION COSINE    0.001196
* ===============================
* Input file for Mopac
* ===============================
 PM7 BONDS AUX DUMP=30M ITRY=15000 T=14D CHARGE=-1 SINGLET eps=78.4 RELSCF=1


  C     0.00000000 +0    0.0000000 +0    0.0000000 +0     0     0     0
  C     1.38649082 +1    0.0000000 +0    0.0000000 +0     1     0     0
  C     1.40132225 +1  120.6358692 +1    0.0000000 +0     2     1     0
  C     1.39369531 +1  119.8680226 +1   -0.7411941 +1     3     2     1
  C     1.39277259 +1  120.3437363 +1    0.1083276 +1     4     3     2
  C     1.39941969 +1  119.1727496 +1    0.4889150 +1     5     4     3
  H     1.09524218 +1  120.5845987 +1 -179.4662458 +1     1     2     3
  H     1.09544332 +1  119.2916222 +1  179.4610073 +1     2     1     3
  H     1.09542282 +1  121.2119515 +1 -179.6374541 +1     4     3     2
  C     1.50857929 +1  118.1094263 +1 -179.5101695 +1     3     2     1
  H     1.15583232 +1  108.9604200 +1   50.5520460 +1    10     3     2
  C     1.52456667 +1  115.1764383 +1  171.9261475 +1    10     3     2
  H     1.10153680 +1  112.0552925 +1 -178.5734498 +1    12    10     3
  H     1.09731994 +1  113.4409627 +1   60.4812713 +1    12    10     3
  H     1.10341239 +1  110.6161101 +1  -60.0449405 +1    12    10     3
  N     1.49878938 +1  110.2350926 +1  -65.6515101 +1    10     3     2
  O     1.22096650 +1  118.2116775 +1  174.5760938 +1    16    10     3
  O     1.22011886 +1  119.5268981 +1   -4.8512712 +1    16    10     3
  O     4.28321250 +1  163.5496726 +1   68.7271637 +1    11    10     3
  H     0.92279630 +1  117.5673070 +1    3.3846520 +1    19    11    10
  H     1.09661112 +1  120.3172435 +1  179.9428006 +1     5     4     3
  N     1.44138302 +1  119.6369270 +1  179.7042096 +1     6     5     4
  O     1.22562713 +1  119.1985291 +1    4.3647705 +1    22     6     5
  O     1.22529898 +1  119.4057355 +1 -175.1935232 +1    22     6     5
  H     2.21720883 +1  128.2713720 +1   46.9183947 +1    11    10     3
  H     1.29377778 +1   14.2108136 +1    8.6023816 +1    19    11    10
  O     0.93398738 +1   64.6920821 +1  142.8254393 +1    25    11    10

 TIME=     3.34
  REACTANTS AND PRODUCTS SWAPPED AROUND
 *+*+*+*+*+*+*+*+*+*+*+*+*+*+*+*+*+*+*+*+*+*+*+*+*+*+*+*+*+*+*+*+*+*+*+*+*+*+*+*+
            BAR SHORTENED BY       1.000 PERCENT
 GRADIENT CRITERION IN FLEPO =     5.730


          FOR POINT   18 SECOND STRUCTURE
 DISTANCE A - B      1.745381
 HEAT             -251.349715
 GRADIENT NORM      17.382781
 DIRECTION COSINE    0.048582
* ===============================
* Input file for Mopac
* ===============================
 PM7 BONDS AUX DUMP=30M ITRY=15000 T=14D CHARGE=-1 SINGLET eps=78.4 RELSCF=1


  C     0.00000000 +0    0.0000000 +0    0.0000000 +0     0     0     0
  C     1.38282892 +1    0.0000000 +0    0.0000000 +0     1     0     0
  C     1.40973166 +1  121.0298057 +1    0.0000000 +0     2     1     0
  C     1.41156174 +1  118.5184813 +1   -3.1022623 +1     3     2     1
  C     1.38091456 +1  121.0464542 +1    3.1469065 +1     4     3     2
  C     1.40471901 +1  119.3185435 +1    0.8977827 +1     1     2     3
  H     1.09644986 +1  120.4384308 +1 -179.2491314 +1     1     2     3
  H     1.09395837 +1  119.0070331 +1  179.8448950 +1     2     1     3
  H     1.08995612 +1  119.5441431 +1 -176.5176259 +1     4     3     2
  C     1.43868374 +1  122.5070985 +1  176.3895978 +1     3     2     1
  H     2.18751609 +1   97.7984906 +1   62.4214993 +1    10     3     2
  C     1.49394810 +1  119.3194983 +1  156.3077091 +1    10     3     2
  H     1.10186204 +1  112.1613978 +1 -161.3224046 +1    12    10     3
  H     1.10205814 +1  109.8942717 +1   79.0773001 +1    12    10     3
  H     1.11192655 +1  112.4290611 +1  -41.7965819 +1    12    10     3
  N     1.34824273 +1  121.9525879 +1  -29.8151113 +1    10     3     2
  O     1.25744384 +1  121.6254842 +1 -178.9254077 +1    16    10     3
  O     1.25244025 +1  121.4075991 +1    0.2413781 +1    16    10     3
  O     3.38859801 +1  177.5229453 +1  -83.0668968 +1    11    10     3
  H     0.96260511 +1  113.5877455 +1  152.1740551 +1    19    11    10
  H     1.09747000 +1  120.0357847 +1  178.0723737 +1     5     4     3
  N     1.42333821 +1  119.9000389 +1 -178.4703681 +1     6     1     2
  O     1.23122424 +1  119.7561826 +1 -176.1935170 +1    22     6     1
  O     1.22798882 +1  119.5997522 +1    3.8936850 +1    22     6     1
  H     1.53463780 +1  117.2331561 +1   47.0846171 +1    11    10     3
  H     0.97305408 +1    9.5730305 +1  166.2700174 +1    19    11    10
  O     0.96063758 +1   37.8714351 +1  148.0608414 +1    25    11    10

 *+*+*+*+*+*+*+*+*+*+*+*+*+*+*+*+*+*+*+*+*+*+*+*+*+*+*+*+*+*+*+*+*+*+*+*+*+*+*+*+
            BAR SHORTENED BY       1.000 PERCENT
 GRADIENT CRITERION IN FLEPO =    10.000


          FOR POINT   19 SECOND STRUCTURE
 DISTANCE A - B      1.727927
 HEAT             -251.417803
 GRADIENT NORM      18.276741
 DIRECTION COSINE    0.307925
* ===============================
* Input file for Mopac
* ===============================
 PM7 BONDS AUX DUMP=30M ITRY=15000 T=14D CHARGE=-1 SINGLET eps=78.4 RELSCF=1


  C     0.00000000 +0    0.0000000 +0    0.0000000 +0     0     0     0
  C     1.38350155 +1    0.0000000 +0    0.0000000 +0     1     0     0
  C     1.40981563 +1  120.8448795 +1    0.0000000 +0     2     1     0
  C     1.41225247 +1  118.4082314 +1   -3.4121582 +1     3     2     1
  C     1.37856246 +1  121.3542401 +1    3.7000037 +1     4     3     2
  C     1.40471106 +1  119.1487309 +1   -1.3786029 +1     5     4     3
  H     1.09619863 +1  120.3027663 +1 -178.8527751 +1     1     2     3
  H     1.09147925 +1  119.3611128 +1  179.7663564 +1     2     1     3
  H     1.09515240 +1  119.4400892 +1 -176.6647097 +1     4     3     2
  C     1.43524124 +1  122.5646979 +1  176.6760009 +1     3     2     1
  H     2.18054685 +1   97.9816509 +1   61.9598934 +1    10     3     2
  C     1.49101015 +1  119.5566029 +1  156.1692045 +1    10     3     2
  H     1.10049147 +1  112.4368172 +1 -161.6102702 +1    12    10     3
  H     1.09936905 +1  110.1107781 +1   78.8780181 +1    12    10     3
  H     1.10653972 +1  112.5438705 +1  -41.9904069 +1    12    10     3
  N     1.35382245 +1  121.7830764 +1  -30.6633857 +1    10     3     2
  O     1.25316316 +1  121.7802136 +1 -178.8502007 +1    16    10     3
  O     1.25199693 +1  121.1291139 +1    0.5630145 +1    16    10     3
  O     3.39358259 +1  177.8002271 +1  -80.8420560 +1    11    10     3
  H     0.96421426 +1  113.5508937 +1  150.4399335 +1    19    11    10
  H     1.09340263 +1  120.2916607 +1  178.0631608 +1     5     4     3
  N     1.42718160 +1  119.4715815 +1  178.7428775 +1     6     5     4
  O     1.22644642 +1  119.6228006 +1    3.8959048 +1    22     6     5
  O     1.22818020 +1  119.6305261 +1 -175.9048343 +1    22     6     5
  H     1.54047955 +1  117.2571174 +1   47.3405453 +1    11    10     3
  H     0.96677683 +1   10.0218923 +1  165.3286962 +1    19    11    10
  O     0.96613180 +1   37.9030362 +1  147.9090470 +1    25    11    10

 *+*+*+*+*+*+*+*+*+*+*+*+*+*+*+*+*+*+*+*+*+*+*+*+*+*+*+*+*+*+*+*+*+*+*+*+*+*+*+*+
            BAR SHORTENED BY       1.000 PERCENT
 GRADIENT CRITERION IN FLEPO =    10.000


          FOR POINT   20 SECOND STRUCTURE
 DISTANCE A - B      1.710648
 HEAT             -251.373227
 GRADIENT NORM      19.877087
 DIRECTION COSINE   -0.078836
* ===============================
* Input file for Mopac
* ===============================
 PM7 BONDS AUX DUMP=30M ITRY=15000 T=14D CHARGE=-1 SINGLET eps=78.4 RELSCF=1


  C     0.00000000 +0    0.0000000 +0    0.0000000 +0     0     0     0
  C     1.38294511 +1    0.0000000 +0    0.0000000 +0     1     0     0
  C     1.40873689 +1  120.8489764 +1    0.0000000 +0     2     1     0
  C     1.41142768 +1  118.5791580 +1   -3.4105048 +1     3     2     1
  C     1.38149105 +1  121.0895796 +1    3.8862425 +1     4     3     2
  C     1.40249757 +1  119.5141560 +1    0.6456119 +1     1     2     3
  H     1.09804542 +1  120.4329019 +1 -179.3065188 +1     1     2     3
  H     1.09318735 +1  119.1522643 +1 -179.7153232 +1     2     1     3
  H     1.09099211 +1  119.6749179 +1 -177.4201061 +1     4     3     2
  C     1.43861199 +1  122.4304889 +1  176.5765899 +1     3     2     1
  H     2.18473733 +1   97.8176235 +1   62.3653068 +1    10     3     2
  C     1.48942118 +1  119.4319040 +1  156.2960298 +1    10     3     2
  H     1.09868998 +1  112.4245523 +1 -161.5720381 +1    12    10     3
  H     1.09712070 +1  110.2107088 +1   78.5081956 +1    12    10     3
  H     1.09371280 +1  111.9273753 +1  -42.1977843 +1    12    10     3
  N     1.35011573 +1  121.8053282 +1  -30.9002130 +1    10     3     2
  O     1.25482295 +1  121.9195064 +1 -179.2070309 +1    16    10     3
  O     1.25073480 +1  121.0963093 +1    0.3968253 +1    16    10     3
  O     3.38875356 +1  177.7303718 +1  -84.7147355 +1    11    10     3
  H     0.96176119 +1  113.6462052 +1  154.5803231 +1    19    11    10
  H     1.09521442 +1  120.1352592 +1  177.6802965 +1     5     4     3
  N     1.42620456 +1  120.0328445 +1 -178.4977359 +1     6     1     2
  O     1.22855384 +1  119.7577919 +1 -176.0837835 +1    22     6     1
  O     1.22721904 +1  119.4837843 +1    4.3259237 +1    22     6     1
  H     1.53873812 +1  117.1192392 +1   46.1534597 +1    11    10     3
  H     0.97457692 +1    9.7166865 +1  170.2370736 +1    19    11    10
  O     0.96067079 +1  145.4795125 +1   81.6981131 +1    11    10     3

 TIME=     3.52
  REACTANTS AND PRODUCTS SWAPPED AROUND
 *+*+*+*+*+*+*+*+*+*+*+*+*+*+*+*+*+*+*+*+*+*+*+*+*+*+*+*+*+*+*+*+*+*+*+*+*+*+*+*+
            BAR SHORTENED BY       0.000 PERCENT
 GRADIENT CRITERION IN FLEPO =    10.000


          FOR POINT   21 FIRST  STRUCTURE
 DISTANCE A - B      1.710648
 HEAT             -222.327201
 GRADIENT NORM       8.741974
 DIRECTION COSINE    0.220419
* ===============================
* Input file for Mopac
* ===============================
 PM7 BONDS AUX DUMP=30M ITRY=15000 T=14D CHARGE=-1 SINGLET eps=78.4 RELSCF=1


  C     0.00000000 +0    0.0000000 +0    0.0000000 +0     0     0     0
  C     1.38649082 +1    0.0000000 +0    0.0000000 +0     1     0     0
  C     1.40132225 +1  120.6358692 +1    0.0000000 +0     2     1     0
  C     1.39369531 +1  119.8680226 +1   -0.7411941 +1     3     2     1
  C     1.39277259 +1  120.3437363 +1    0.1083276 +1     4     3     2
  C     1.39941969 +1  119.1727496 +1    0.4889150 +1     5     4     3
  H     1.09524218 +1  120.5845987 +1 -179.4662458 +1     1     2     3
  H     1.09544332 +1  119.2916222 +1  179.4610073 +1     2     1     3
  H     1.09542282 +1  121.2119515 +1 -179.6374541 +1     4     3     2
  C     1.50857929 +1  118.1094263 +1 -179.5101695 +1     3     2     1
  H     1.15583232 +1  108.9604200 +1   50.5520460 +1    10     3     2
  C     1.52456667 +1  115.1764383 +1  171.9261475 +1    10     3     2
  H     1.10153680 +1  112.0552925 +1 -178.5734498 +1    12    10     3
  H     1.09731994 +1  113.4409627 +1   60.4812713 +1    12    10     3
  H     1.10341239 +1  110.6161101 +1  -60.0449405 +1    12    10     3
  N     1.49878938 +1  110.2350926 +1  -65.6515101 +1    10     3     2
  O     1.22096650 +1  118.2116775 +1  174.5760938 +1    16    10     3
  O     1.22011886 +1  119.5268981 +1   -4.8512712 +1    16    10     3
  O     4.28321250 +1  163.5496726 +1   68.7271637 +1    11    10     3
  H     0.92279630 +1  117.5673070 +1    3.3846520 +1    19    11    10
  H     1.09661112 +1  120.3172435 +1  179.9428006 +1     5     4     3
  N     1.44138302 +1  119.6369270 +1  179.7042096 +1     6     5     4
  O     1.22562713 +1  119.1985291 +1    4.3647705 +1    22     6     5
  O     1.22529898 +1  119.4057355 +1 -175.1935232 +1    22     6     5
  H     2.21720883 +1  128.2713720 +1   46.9183947 +1    11    10     3
  H     1.29377778 +1   14.2108136 +1    8.6023816 +1    19    11    10
  O     0.93398738 +1   64.6920821 +1  142.8254393 +1    25    11    10

 TIME=     0.12
  REACTANTS AND PRODUCTS SWAPPED AROUND
 *+*+*+*+*+*+*+*+*+*+*+*+*+*+*+*+*+*+*+*+*+*+*+*+*+*+*+*+*+*+*+*+*+*+*+*+*+*+*+*+
            BAR SHORTENED BY       1.000 PERCENT
 GRADIENT CRITERION IN FLEPO =     5.742


          FOR POINT   22 SECOND STRUCTURE
 DISTANCE A - B      1.693542
 HEAT             -251.462779
 GRADIENT NORM      13.920505
 DIRECTION COSINE    0.004671
* ===============================
* Input file for Mopac
* ===============================
 PM7 BONDS AUX DUMP=30M ITRY=15000 T=14D CHARGE=-1 SINGLET eps=78.4 RELSCF=1


  C     0.00000000 +0    0.0000000 +0    0.0000000 +0     0     0     0
  C     1.38186404 +1    0.0000000 +0    0.0000000 +0     1     0     0
  C     1.40761866 +1  120.9138908 +1    0.0000000 +0     2     1     0
  C     1.41110133 +1  118.6661354 +1   -3.5006944 +1     3     2     1
  C     1.38231747 +1  120.9911166 +1    3.9219410 +1     4     3     2
  C     1.40434458 +1  119.4851889 +1    0.7477485 +1     1     2     3
  H     1.09755348 +1  120.5411957 +1 -179.2133955 +1     1     2     3
  H     1.09500586 +1  119.2732257 +1 -179.8776138 +1     2     1     3
  H     1.09078394 +1  119.8418497 +1 -177.7841097 +1     4     3     2
  C     1.43960929 +1  122.5394219 +1  176.3131895 +1     3     2     1
  H     2.20003088 +1   97.7386529 +1   62.3241196 +1    10     3     2
  C     1.49097583 +1  119.5955255 +1  155.9916136 +1    10     3     2
  H     1.10207585 +1  112.8375137 +1 -161.6239752 +1    12    10     3
  H     1.10229395 +1  110.3735768 +1   78.8373756 +1    12    10     3
  H     1.09846465 +1  112.2109401 +1  -41.6421952 +1    12    10     3
  N     1.34983597 +1  121.7736659 +1  -30.7826404 +1    10     3     2
  O     1.25503476 +1  121.5259977 +1 -179.2984429 +1    16    10     3
  O     1.25094491 +1  120.9821974 +1   -0.2913750 +1    16    10     3
  O     3.37974839 +1  177.8700892 +1  -66.3482951 +1    11    10     3
  H     0.95982592 +1  114.0127935 +1  137.4798659 +1    19    11    10
  H     1.09594548 +1  120.5043817 +1  177.9375471 +1     5     4     3
  N     1.42608174 +1  119.9928677 +1 -178.3868876 +1     6     1     2
  O     1.23009016 +1  119.6593977 +1 -176.4065209 +1    22     6     1
  O     1.22546412 +1  119.6023826 +1    4.3277843 +1    22     6     1
  H     1.53192809 +1  116.5453780 +1   45.9103952 +1    11    10     3
  H     0.97100485 +1    9.7432035 +1  151.7152786 +1    19    11    10
  O     0.96017383 +1   37.5037901 +1  146.9623134 +1    25    11    10

 *+*+*+*+*+*+*+*+*+*+*+*+*+*+*+*+*+*+*+*+*+*+*+*+*+*+*+*+*+*+*+*+*+*+*+*+*+*+*+*+
            BAR SHORTENED BY       1.000 PERCENT
 GRADIENT CRITERION IN FLEPO =    10.000


          FOR POINT   23 SECOND STRUCTURE
 DISTANCE A - B      1.676606
 HEAT             -251.443543
 GRADIENT NORM      14.153307
 DIRECTION COSINE   -0.097182
* ===============================
* Input file for Mopac
* ===============================
 PM7 BONDS AUX DUMP=30M ITRY=15000 T=14D CHARGE=-1 SINGLET eps=78.4 RELSCF=1


  C     0.00000000 +0    0.0000000 +0    0.0000000 +0     0     0     0
  C     1.38489417 +1    0.0000000 +0    0.0000000 +0     1     0     0
  C     1.41041542 +1  120.8248555 +1    0.0000000 +0     2     1     0
  C     1.41205584 +1  118.6423547 +1   -3.4366842 +1     3     2     1
  C     1.37874144 +1  120.9996235 +1    3.5928753 +1     4     3     2
  C     1.40361548 +1  119.4458590 +1   -1.1432858 +1     5     4     3
  H     1.09341454 +1  120.5145873 +1 -179.1936768 +1     1     2     3
  H     1.09193477 +1  119.3817307 +1  179.8459225 +1     2     1     3
  H     1.09275402 +1  119.6051163 +1 -177.8827692 +1     4     3     2
  C     1.43723343 +1  122.3894169 +1  176.0040447 +1     3     2     1
  H     2.19692364 +1   97.7351989 +1   62.5211524 +1    10     3     2
  C     1.49148774 +1  119.6249297 +1  156.0935141 +1    10     3     2
  H     1.09978919 +1  112.8281408 +1 -161.5337875 +1    12    10     3
  H     1.09152236 +1  111.3843974 +1   78.7753188 +1    12    10     3
  H     1.10174716 +1  112.2794499 +1  -41.5518710 +1    12    10     3
  N     1.35030428 +1  121.9569044 +1  -31.0443893 +1    10     3     2
  O     1.25487505 +1  121.8595162 +1 -179.6302488 +1    16    10     3
  O     1.25157215 +1  120.7383244 +1   -0.1874802 +1    16    10     3
  O     3.38457121 +1  177.7776678 +1  -64.4824070 +1    11    10     3
  H     0.96393978 +1  113.9436874 +1  135.3363112 +1    19    11    10
  H     1.09462378 +1  120.3386726 +1  178.1959078 +1     5     4     3
  N     1.42637247 +1  119.5181652 +1  178.6428799 +1     6     5     4
  O     1.22696689 +1  119.7005045 +1    3.6210143 +1    22     6     5
  O     1.22969741 +1  119.5729792 +1 -176.3635862 +1    22     6     5
  H     1.53696758 +1  116.7133219 +1   45.4799930 +1    11    10     3
  H     0.97292128 +1    9.9600281 +1  148.2222757 +1    19    11    10
  O     0.96555460 +1   37.5025976 +1  147.4537273 +1    25    11    10

 TIME=     0.85
  REACTANTS AND PRODUCTS SWAPPED AROUND
 *+*+*+*+*+*+*+*+*+*+*+*+*+*+*+*+*+*+*+*+*+*+*+*+*+*+*+*+*+*+*+*+*+*+*+*+*+*+*+*+
            BAR SHORTENED BY       1.000 PERCENT
 GRADIENT CRITERION IN FLEPO =    10.000


          FOR POINT   24 FIRST  STRUCTURE
 DISTANCE A - B      1.659840
 HEAT             -222.302399
 GRADIENT NORM      14.286030
 DIRECTION COSINE    0.163020
* ===============================
* Input file for Mopac
* ===============================
 PM7 BONDS AUX DUMP=30M ITRY=15000 T=14D CHARGE=-1 SINGLET eps=78.4 RELSCF=1


  C     0.00000000 +0    0.0000000 +0    0.0000000 +0     0     0     0
  C     1.38648590 +1    0.0000000 +0    0.0000000 +0     1     0     0
  C     1.40142045 +1  120.6473464 +1    0.0000000 +0     2     1     0
  C     1.39853061 +1  119.9100509 +1   -0.7271706 +1     3     2     1
  C     1.39171527 +1  120.0911302 +1    0.1664460 +1     4     3     2
  C     1.39938615 +1  119.3702077 +1    0.4137096 +1     5     4     3
  H     1.09522045 +1  120.5829624 +1 -179.4863300 +1     1     2     3
  H     1.09523789 +1  119.2983544 +1  179.5701409 +1     2     1     3
  H     1.09172143 +1  121.0925116 +1 -179.7012534 +1     4     3     2
  C     1.50799888 +1  118.1565124 +1 -179.4983080 +1     3     2     1
  H     1.16503143 +1  108.8254056 +1   50.7851503 +1    10     3     2
  C     1.52374433 +1  115.2315285 +1  171.8242475 +1    10     3     2
  H     1.10165473 +1  112.0631997 +1 -178.4652350 +1    12    10     3
  H     1.09768583 +1  113.4317436 +1   60.6397586 +1    12    10     3
  H     1.10288087 +1  110.6797325 +1  -59.9116775 +1    12    10     3
  N     1.49578553 +1  110.3684426 +1  -65.3757738 +1    10     3     2
  O     1.22123513 +1  118.2981241 +1  174.6958368 +1    16    10     3
  O     1.21796202 +1  119.4911906 +1   -4.6951581 +1    16    10     3
  O     4.27415333 +1  163.8090079 +1   68.6268269 +1    11    10     3
  H     0.92330548 +1  117.5599184 +1    3.4338524 +1    19    11    10
  H     1.09653849 +1  120.1151313 +1  179.9052704 +1     5     4     3
  N     1.44135118 +1  119.6308020 +1  179.7168443 +1     6     5     4
  O     1.22558994 +1  119.2034046 +1    4.3682414 +1    22     6     5
  O     1.22531816 +1  119.4044107 +1 -175.2081342 +1    22     6     5
  H     2.20982767 +1  128.3108280 +1   46.8252928 +1    11    10     3
  H     1.29025625 +1   14.1748626 +1    8.6856190 +1    19    11    10
  O     0.93418820 +1   64.4803303 +1  143.0290915 +1    25    11    10

 TIME=     0.30
  REACTANTS AND PRODUCTS SWAPPED AROUND
 *+*+*+*+*+*+*+*+*+*+*+*+*+*+*+*+*+*+*+*+*+*+*+*+*+*+*+*+*+*+*+*+*+*+*+*+*+*+*+*+
            BAR SHORTENED BY       1.000 PERCENT
 GRADIENT CRITERION IN FLEPO =    10.000


          FOR POINT   25 SECOND STRUCTURE
 DISTANCE A - B      1.643242
 HEAT             -251.453758
 GRADIENT NORM      18.658614
 DIRECTION COSINE    0.178023
* ===============================
* Input file for Mopac
* ===============================
 PM7 BONDS AUX DUMP=30M ITRY=15000 T=14D CHARGE=-1 SINGLET eps=78.4 RELSCF=1


  C     0.00000000 +0    0.0000000 +0    0.0000000 +0     0     0     0
  C     1.38473728 +1    0.0000000 +0    0.0000000 +0     1     0     0
  C     1.41029293 +1  120.8244300 +1    0.0000000 +0     2     1     0
  C     1.41185094 +1  118.6575186 +1   -3.4173776 +1     3     2     1
  C     1.37903529 +1  120.9875539 +1    3.5713078 +1     4     3     2
  C     1.40367938 +1  119.4367879 +1   -1.1346708 +1     5     4     3
  H     1.09365282 +1  120.5118694 +1 -179.1833708 +1     1     2     3
  H     1.09211048 +1  119.3859860 +1  179.8445379 +1     2     1     3
  H     1.09264597 +1  119.6261367 +1 -177.8998559 +1     4     3     2
  C     1.43781976 +1  122.3822870 +1  176.0627023 +1     3     2     1
  H     2.18818073 +1   97.8171609 +1   62.4384788 +1    10     3     2
  C     1.49102063 +1  119.6590859 +1  156.2031860 +1    10     3     2
  H     1.09981893 +1  112.8217042 +1 -161.7212530 +1    12    10     3
  H     1.09231591 +1  111.3490464 +1   78.6059776 +1    12    10     3
  H     1.10116593 +1  112.2593894 +1  -41.6908479 +1    12    10     3
  N     1.35056555 +1  121.8679539 +1  -31.4320718 +1    10     3     2
  O     1.25430260 +1  121.9141174 +1 -179.6352479 +1    16    10     3
  O     1.24918907 +1  120.6750255 +1   -0.1502419 +1    16    10     3
  O     3.39196171 +1  177.8775819 +1  -61.9445734 +1    11    10     3
  H     0.96335134 +1  113.9792008 +1  132.8290155 +1    19    11    10
  H     1.09465749 +1  120.3308987 +1  178.2006094 +1     5     4     3
  N     1.42650032 +1  119.5124039 +1  178.6561038 +1     6     5     4
  O     1.22711171 +1  119.6973157 +1    3.6177600 +1    22     6     5
  O     1.22953891 +1  119.5736097 +1 -176.3363642 +1    22     6     5
  H     1.54587899 +1  116.8128619 +1   45.1241533 +1    11    10     3
  H     0.97580015 +1    9.9899752 +1  145.5793171 +1    19    11    10
  O     0.97290761 +1   37.6613672 +1  147.5008347 +1    25    11    10

 *+*+*+*+*+*+*+*+*+*+*+*+*+*+*+*+*+*+*+*+*+*+*+*+*+*+*+*+*+*+*+*+*+*+*+*+*+*+*+*+
            BAR SHORTENED BY       1.000 PERCENT
 GRADIENT CRITERION IN FLEPO =    10.000


          FOR POINT   26 SECOND STRUCTURE
 DISTANCE A - B      1.626809
 HEAT             -251.288865
 GRADIENT NORM      16.346114
 DIRECTION COSINE    0.342509
* ===============================
* Input file for Mopac
* ===============================
 PM7 BONDS AUX DUMP=30M ITRY=15000 T=14D CHARGE=-1 SINGLET eps=78.4 RELSCF=1


  C     0.00000000 +0    0.0000000 +0    0.0000000 +0     0     0     0
  C     1.38160954 +1    0.0000000 +0    0.0000000 +0     1     0     0
  C     1.40989511 +1  120.9665783 +1    0.0000000 +0     2     1     0
  C     1.41353302 +1  118.5643817 +1   -3.4352829 +1     3     2     1
  C     1.38229180 +1  120.9213959 +1    3.7988124 +1     4     3     2
  C     1.40403384 +1  119.4782707 +1    0.6305138 +1     1     2     3
  H     1.09765836 +1  120.5297488 +1 -178.9693174 +1     1     2     3
  H     1.09600511 +1  119.4805527 +1 -179.9586705 +1     2     1     3
  H     1.09111412 +1  119.5913619 +1 -178.0659822 +1     4     3     2
  C     1.43996746 +1  122.6232003 +1  176.2275191 +1     3     2     1
  H     2.18685291 +1   97.6688473 +1   62.4208522 +1    10     3     2
  C     1.48937573 +1  119.7817453 +1  156.0085274 +1    10     3     2
  H     1.09999525 +1  112.7646215 +1 -161.8652215 +1    12    10     3
  H     1.09903124 +1  110.8407494 +1   78.4217503 +1    12    10     3
  H     1.09942985 +1  112.3041828 +1  -41.6365872 +1    12    10     3
  N     1.34855004 +1  121.6540495 +1  -31.7183091 +1    10     3     2
  O     1.25444770 +1  122.2084801 +1 -179.6759760 +1    16    10     3
  O     1.25187434 +1  120.6319723 +1   -0.3985995 +1    16    10     3
  O     3.39395087 +1  177.9924811 +1  -65.8228239 +1    11    10     3
  H     0.97157144 +1  113.3904600 +1  137.1980821 +1    19    11    10
  H     1.09479198 +1  120.1616410 +1  177.9980569 +1     5     4     3
  N     1.42400451 +1  119.9894962 +1 -178.5176948 +1     6     1     2
  O     1.23079403 +1  119.7850522 +1 -176.1950429 +1    22     6     1
  O     1.22713350 +1  119.6483434 +1    4.2638466 +1    22     6     1
  H     1.53799947 +1  117.1493349 +1   45.1626046 +1    11    10     3
  H     0.97057840 +1    9.8066753 +1  150.4964923 +1    19    11    10
  O     0.96693163 +1   37.7043088 +1  147.3687385 +1    25    11    10

 *+*+*+*+*+*+*+*+*+*+*+*+*+*+*+*+*+*+*+*+*+*+*+*+*+*+*+*+*+*+*+*+*+*+*+*+*+*+*+*+
            BAR SHORTENED BY       1.000 PERCENT
 GRADIENT CRITERION IN FLEPO =    10.000


          FOR POINT   27 SECOND STRUCTURE
 DISTANCE A - B      1.610541
 HEAT             -251.225023
 GRADIENT NORM      17.824317
 DIRECTION COSINE    0.180213
* ===============================
* Input file for Mopac
* ===============================
 PM7 BONDS AUX DUMP=30M ITRY=15000 T=14D CHARGE=-1 SINGLET eps=78.4 RELSCF=1


  C     0.00000000 +0    0.0000000 +0    0.0000000 +0     0     0     0
  C     1.38518584 +1    0.0000000 +0    0.0000000 +0     1     0     0
  C     1.41199008 +1  120.8770919 +1    0.0000000 +0     2     1     0
  C     1.41136402 +1  118.5205367 +1   -3.3849662 +1     3     2     1
  C     1.37900955 +1  121.1059018 +1    3.4569843 +1     4     3     2
  C     1.40342177 +1  119.4104374 +1   -1.0644860 +1     5     4     3
  H     1.09331582 +1  120.5003957 +1 -179.1820178 +1     1     2     3
  H     1.09136666 +1  119.3414292 +1  179.7492768 +1     2     1     3
  H     1.09534624 +1  119.4203590 +1 -177.8777526 +1     4     3     2
  C     1.43725157 +1  122.5632233 +1  175.9581494 +1     3     2     1
  H     2.18321779 +1   97.5798564 +1   62.4628001 +1    10     3     2
  C     1.49087929 +1  119.9185004 +1  155.9727986 +1    10     3     2
  H     1.10140735 +1  112.7389959 +1 -161.7066380 +1    12    10     3
  H     1.10142672 +1  110.5592971 +1   78.5476672 +1    12    10     3
  H     1.10766246 +1  112.0070066 +1  -41.8971416 +1    12    10     3
  N     1.35121336 +1  121.5569246 +1  -31.9599575 +1    10     3     2
  O     1.25712477 +1  122.2526090 +1  179.9684609 +1    16    10     3
  O     1.25120655 +1  120.6610717 +1   -0.3221411 +1    16    10     3
  O     3.40075194 +1  178.0951646 +1  -63.2558475 +1    11    10     3
  H     0.96387966 +1  113.5044883 +1  134.8352791 +1    19    11    10
  H     1.09489919 +1  120.2045720 +1  177.9643084 +1     5     4     3
  N     1.42796261 +1  119.5121356 +1  178.5746506 +1     6     5     4
  O     1.22629233 +1  119.6465948 +1    3.7336092 +1    22     6     5
  O     1.22951909 +1  119.5693779 +1 -176.0838815 +1    22     6     5
  H     1.53892334 +1  117.2654188 +1   44.7772793 +1    11    10     3
  H     0.97252000 +1    9.8590358 +1  149.1790418 +1    19    11    10
  O     0.96936307 +1   37.8135932 +1  147.6611788 +1    25    11    10

 TIME=     0.77
  REACTANTS AND PRODUCTS SWAPPED AROUND
 *+*+*+*+*+*+*+*+*+*+*+*+*+*+*+*+*+*+*+*+*+*+*+*+*+*+*+*+*+*+*+*+*+*+*+*+*+*+*+*+
            BAR SHORTENED BY       0.000 PERCENT
 GRADIENT CRITERION IN FLEPO =    10.000


          FOR POINT   28 FIRST  STRUCTURE
 DISTANCE A - B      1.610541
 HEAT             -222.318127
 GRADIENT NORM      10.527172
 DIRECTION COSINE    0.318697
* ===============================
* Input file for Mopac
* ===============================
 PM7 BONDS AUX DUMP=30M ITRY=15000 T=14D CHARGE=-1 SINGLET eps=78.4 RELSCF=1


  C     0.00000000 +0    0.0000000 +0    0.0000000 +0     0     0     0
  C     1.38686991 +1    0.0000000 +0    0.0000000 +0     1     0     0
  C     1.40020962 +1  120.7480158 +1    0.0000000 +0     2     1     0
  C     1.39747782 +1  119.8538284 +1   -0.5207928 +1     3     2     1
  C     1.39212592 +1  120.1401221 +1    0.1043030 +1     4     3     2
  C     1.39907203 +1  119.3100122 +1    0.3408393 +1     5     4     3
  H     1.09525093 +1  120.6255664 +1 -179.5335282 +1     1     2     3
  H     1.09550359 +1  119.2390412 +1  179.8858475 +1     2     1     3
  H     1.09309572 +1  121.1004712 +1 -179.9143243 +1     4     3     2
  C     1.51074693 +1  118.1806955 +1 -179.2842688 +1     3     2     1
  H     1.16005760 +1  108.7961064 +1   50.8045836 +1    10     3     2
  C     1.52266023 +1  115.1535742 +1  172.0032263 +1    10     3     2
  H     1.10236999 +1  112.1099876 +1 -178.7036031 +1    12    10     3
  H     1.10071047 +1  113.4947071 +1   60.5935333 +1    12    10     3
  H     1.10068755 +1  110.9206452 +1  -60.0965720 +1    12    10     3
  N     1.49577702 +1  110.1956383 +1  -65.3328718 +1    10     3     2
  O     1.22266660 +1  118.1724642 +1  174.8430078 +1    16    10     3
  O     1.21840112 +1  119.6235203 +1   -4.5935258 +1    16    10     3
  O     4.27504696 +1  163.8402181 +1   68.9760349 +1    11    10     3
  H     0.92396620 +1  117.6290957 +1    3.1361395 +1    19    11    10
  H     1.09618578 +1  120.1303983 +1  179.9318875 +1     5     4     3
  N     1.44214332 +1  119.5899383 +1  179.7216540 +1     6     5     4
[...]

    12  C     (3.906)    10  C 0.988    14  H 0.964    13  H 0.960    15  H 0.954    18  O 0.012

    13  H     (0.970)    12  C 0.960

    14  H     (0.974)    12  C 0.964

    15  H     (0.968)    12  C 0.954

    16  N     (3.753)    18  O 1.423    17  O 1.416    10  C 0.871

    17  O     (1.793)    16  N 1.416    18  O 0.278    10  C 0.070

    18  O     (1.803)    16  N 1.423    17  O 0.278    10  C 0.073    12  C 0.012

    19  O     (1.581)    20  H 0.868    26  H 0.653    27  O 0.050

    20  H     (0.871)    19  O 0.868

    21  H     (0.965)     5  C 0.950

    22  N     (3.780)    23  O 1.419    24  O 1.417     6  C 0.912

    23  O     (1.809)    22  N 1.419    24  O 0.282     6  C 0.067     1  C 0.018     5  C 0.012

    24  O     (1.807)    22  N 1.417    23  O 0.282     6  C 0.067     5  C 0.019     1  C 0.011

    25  H     (0.883)    27  O 0.875

    26  H     (0.819)    19  O 0.653    27  O 0.159

    27  O     (1.302)    25  H 0.875    26  H 0.159    11  H 0.157    19  O 0.050    10  C 0.047

 BEST ESTIMATE GEOMETRY OF THE TRANSITION STATE


           C1=   0.504     C2=   0.496

 -------------------------------------------------------------------------------
 PM7 BONDS AUX DUMP=30M ITRY=15000 T=14D CHARGE=-1 SINGLET eps=78.4 RELSCF=1




     TRANSITION STATE LOCATED USING THE "SADDLE" TECHNIQUE    
     SCF FIELD WAS ACHIEVED                                   


                              PM7 CALCULATION
                                                       MOPAC v22.0.6 Linux
                                                       Mon Mar 25 23:15:35 2024




          FINAL HEAT OF FORMATION =       -221.16914 KCAL/MOL =    -925.37170 KJ/MOL
          VAN DER WAALS AREA      =        253.52 SQUARE ANGSTROMS



          DIELECTRIC ENERGY       =         -3.21384 EV
          COSMO AREA              =        253.52 SQUARE ANGSTROMS
          COSMO VOLUME            =        261.74 CUBIC ANGSTROMS

          GRADIENT NORM           =          5.59217          =       1.07621 PER ATOM
          IONIZATION POTENTIAL    =          9.872835 EV
          HOMO LUMO ENERGIES (EV) =         -9.873 -1.468
          NO. OF FILLED LEVELS    =         45
          MOLECULAR WEIGHT        =        231.1847         POINT GROUP:  C1  

          MOLECULAR DIMENSIONS (Angstroms)

            Atom       Atom       Distance
            O    23    O    19     9.36717
            H    14    O    24     6.25432
            O    18    H    20     5.08710


          SCF CALCULATIONS        =          1

          WALL-CLOCK TIME         =          3 MINUTES AND 44.672 SECONDS
          COMPUTATION TIME        =          3 HOURS 48 MINUTES AND 31.269 SECONDS



       FINAL  POINT  AND  DERIVATIVES

   PARAMETER     ATOM    TYPE            VALUE        GRADIENT
      1          1  C    CARTESIAN X     0.222865     -0.156593  KCAL/ANGSTROM
      2          1  C    CARTESIAN Y     1.149567     -0.079666  KCAL/ANGSTROM
      3          1  C    CARTESIAN Z     0.916702      0.324226  KCAL/ANGSTROM
      4          2  C    CARTESIAN X     0.416565      0.182408  KCAL/ANGSTROM
      5          2  C    CARTESIAN Y     1.386392      0.457498  KCAL/ANGSTROM
      6          2  C    CARTESIAN Z    -0.437170      0.190554  KCAL/ANGSTROM
      7          3  C    CARTESIAN X     0.375480     -0.304557  KCAL/ANGSTROM
      8          3  C    CARTESIAN Y     0.330415     -0.213741  KCAL/ANGSTROM
      9          3  C    CARTESIAN Z    -1.360186     -0.157826  KCAL/ANGSTROM
     10          4  C    CARTESIAN X     0.154304      0.478506  KCAL/ANGSTROM
     11          4  C    CARTESIAN Y    -0.972876      0.498375  KCAL/ANGSTROM
     12          4  C    CARTESIAN Z    -0.909874     -0.473452  KCAL/ANGSTROM
     13          5  C    CARTESIAN X    -0.039358     -0.607914  KCAL/ANGSTROM
     14          5  C    CARTESIAN Y    -1.228898     -0.454241  KCAL/ANGSTROM
     15          5  C    CARTESIAN Z     0.443134     -0.158077  KCAL/ANGSTROM
     16          6  C    CARTESIAN X    -0.006166      0.162348  KCAL/ANGSTROM
     17          6  C    CARTESIAN Y    -0.163263      0.931298  KCAL/ANGSTROM
     18          6  C    CARTESIAN Z     1.349522      0.524597  KCAL/ANGSTROM
     19          7  H    CARTESIAN X     0.250679     -0.021148  KCAL/ANGSTROM
     20          7  H    CARTESIAN Y     1.975667     -0.084531  KCAL/ANGSTROM
     21          7  H    CARTESIAN Z     1.636619      0.142259  KCAL/ANGSTROM
     22          8  H    CARTESIAN X     0.596972     -0.099071  KCAL/ANGSTROM
     23          8  H    CARTESIAN Y     2.408949      0.153075  KCAL/ANGSTROM
     24          8  H    CARTESIAN Z    -0.782175      0.108559  KCAL/ANGSTROM
     25          9  H    CARTESIAN X     0.123232      0.047734  KCAL/ANGSTROM
     26          9  H    CARTESIAN Y    -1.809875      0.252426  KCAL/ANGSTROM
     27          9  H    CARTESIAN Z    -1.612144      0.155326  KCAL/ANGSTROM
     28         10  C    CARTESIAN X     0.609019     -0.950764  KCAL/ANGSTROM
     29         10  C    CARTESIAN Y     0.632049      0.007925  KCAL/ANGSTROM
     30         10  C    CARTESIAN Z    -2.808790      0.067634  KCAL/ANGSTROM
     31         11  H    CARTESIAN X     1.703096      1.007266  KCAL/ANGSTROM
     32         11  H    CARTESIAN Y     1.212032      0.142420  KCAL/ANGSTROM
     33         11  H    CARTESIAN Z    -2.877253     -0.117719  KCAL/ANGSTROM
     34         12  C    CARTESIAN X     0.731425      0.276778  KCAL/ANGSTROM
     35         12  C    CARTESIAN Y    -0.570911      0.005172  KCAL/ANGSTROM
     36         12  C    CARTESIAN Z    -3.730159     -1.079085  KCAL/ANGSTROM
     37         13  H    CARTESIAN X     0.943145      0.246357  KCAL/ANGSTROM
     38         13  H    CARTESIAN Y    -0.274222      0.151926  KCAL/ANGSTROM
     39         13  H    CARTESIAN Z    -4.768511     -0.022087  KCAL/ANGSTROM
     40         14  H    CARTESIAN X    -0.175458      0.040172  KCAL/ANGSTROM
     41         14  H    CARTESIAN Y    -1.190944      0.063187  KCAL/ANGSTROM
     42         14  H    CARTESIAN Z    -3.742156      0.814679  KCAL/ANGSTROM
     43         15  H    CARTESIAN X     1.565015     -0.418314  KCAL/ANGSTROM
     44         15  H    CARTESIAN Y    -1.218150      0.260167  KCAL/ANGSTROM
     45         15  H    CARTESIAN Z    -3.415875      0.106567  KCAL/ANGSTROM
     46         16  N    CARTESIAN X    -0.422253     -1.787763  KCAL/ANGSTROM
     47         16  N    CARTESIAN Y     1.537962     -0.306257  KCAL/ANGSTROM
     48         16  N    CARTESIAN Z    -3.338691      1.424917  KCAL/ANGSTROM
     49         17  O    CARTESIAN X    -0.315100     -0.436072  KCAL/ANGSTROM
     50         17  O    CARTESIAN Y     1.947721     -0.093824  KCAL/ANGSTROM
     51         17  O    CARTESIAN Z    -4.488579      0.420087  KCAL/ANGSTROM
     52         18  O    CARTESIAN X    -1.361192      0.054066  KCAL/ANGSTROM
     53         18  O    CARTESIAN Y     1.881495     -0.888123  KCAL/ANGSTROM
     54         18  O    CARTESIAN Z    -2.634228     -1.205838  KCAL/ANGSTROM
     55         19  O    CARTESIAN X     5.435231      2.142770  KCAL/ANGSTROM
     56         19  O    CARTESIAN Y     2.512265      0.967171  KCAL/ANGSTROM
     57         19  O    CARTESIAN Z    -3.011180     -0.090940  KCAL/ANGSTROM
     58         20  H    CARTESIAN X     6.017623      1.094456  KCAL/ANGSTROM
     59         20  H    CARTESIAN Y     1.855361     -0.093475  KCAL/ANGSTROM
     60         20  H    CARTESIAN Z    -2.661116      0.029810  KCAL/ANGSTROM
     61         21  H    CARTESIAN X    -0.216441      0.117704  KCAL/ANGSTROM
     62         21  H    CARTESIAN Y    -2.252570      0.072064  KCAL/ANGSTROM
     63         21  H    CARTESIAN Z     0.789973     -0.042162  KCAL/ANGSTROM
     64         22  N    CARTESIAN X    -0.214451      0.016995  KCAL/ANGSTROM
     65         22  N    CARTESIAN Y    -0.423777     -1.145486  KCAL/ANGSTROM
     66         22  N    CARTESIAN Z     2.749895     -0.719943  KCAL/ANGSTROM
     67         23  O    CARTESIAN X    -0.326462      0.019099  KCAL/ANGSTROM
     68         23  O    CARTESIAN Y    -1.580906      0.263995  KCAL/ANGSTROM
     69         23  O    CARTESIAN Z     3.136401     -0.068989  KCAL/ANGSTROM
     70         24  O    CARTESIAN X    -0.278250     -0.168162  KCAL/ANGSTROM
     71         24  O    CARTESIAN Y     0.517722      0.387723  KCAL/ANGSTROM
     72         24  O    CARTESIAN Z     3.532617      0.567903  KCAL/ANGSTROM
     73         25  H    CARTESIAN X     3.363122     -0.025187  KCAL/ANGSTROM
     74         25  H    CARTESIAN Y     0.871929      0.510055  KCAL/ANGSTROM
     75         25  H    CARTESIAN Z    -2.026706     -0.459296  KCAL/ANGSTROM
     76         26  H    CARTESIAN X     4.446444      0.735443  KCAL/ANGSTROM
     77         26  H    CARTESIAN Y     2.077467     -0.089729  KCAL/ANGSTROM
     78         26  H    CARTESIAN Z    -2.891281      0.149938  KCAL/ANGSTROM
     79         27  O    CARTESIAN X     3.192686     -1.645539  KCAL/ANGSTROM
     80         27  O    CARTESIAN Y     1.479503     -1.674926  KCAL/ANGSTROM
     81         27  O    CARTESIAN Z    -2.701444     -0.431295  KCAL/ANGSTROM




   ATOM   CHEMICAL          X               Y               Z
  NUMBER   SYMBOL      (ANGSTROMS)     (ANGSTROMS)     (ANGSTROMS)

     1       C          0.22286453  *   1.14956708  *   0.91670175  *
     2       C          0.41656534  *   1.38639206  *  -0.43717011  *
     3       C          0.37547988  *   0.33041540  *  -1.36018552  *
     4       C          0.15430391  *  -0.97287612  *  -0.90987418  *
     5       C         -0.03935819  *  -1.22889790  *   0.44313376  *
     6       C         -0.00616600  *  -0.16326329  *   1.34952153  *
     7       H          0.25067885  *   1.97566709  *   1.63661910  *
     8       H          0.59697241  *   2.40894900  *  -0.78217503  *
     9       H          0.12323169  *  -1.80987455  *  -1.61214371  *
    10       C          0.60901917  *   0.63204886  *  -2.80879001  *
    11       H          1.70309598  *   1.21203200  *  -2.87725281  *
    12       C          0.73142525  *  -0.57091145  *  -3.73015886  *
    13       H          0.94314468  *  -0.27422180  *  -4.76851060  *
    14       H         -0.17545778  *  -1.19094376  *  -3.74215561  *
    15       H          1.56501496  *  -1.21814964  *  -3.41587499  *
    16       N         -0.42225264  *   1.53796213  *  -3.33869143  *
    17       O         -0.31509985  *   1.94772084  *  -4.48857906  *
    18       O         -1.36119249  *   1.88149541  *  -2.63422818  *
    19       O          5.43523104  *   2.51226490  *  -3.01118036  *
    20       H          6.01762301  *   1.85536101  *  -2.66111588  *
    21       H         -0.21644054  *  -2.25256998  *   0.78997255  *
    22       N         -0.21445134  *  -0.42377704  *   2.74989548  *
    23       O         -0.32646249  *  -1.58090635  *   3.13640146  *
    24       O         -0.27824955  *   0.51772182  *   3.53261707  *
    25       H          3.36312178  *   0.87192913  *  -2.02670586  *
    26       H          4.44644365  *   2.07746685  *  -2.89128069  *
    27       O          3.19268588  *   1.47950302  *  -2.70144430  *

                             CARTESIAN COORDINATES

   1    C        0.222864526     1.149567078     0.916701745
   2    C        0.416565342     1.386392058    -0.437170115
   3    C        0.375479879     0.330415402    -1.360185517
   4    C        0.154303912    -0.972876116    -0.909874178
   5    C       -0.039358187    -1.228897903     0.443133762
   6    C       -0.006166003    -0.163263290     1.349521528
   7    H        0.250678851     1.975667086     1.636619101
   8    H        0.596972409     2.408949001    -0.782175026
   9    H        0.123231693    -1.809874549    -1.612143709
  10    C        0.609019173     0.632048864    -2.808790009
  11    H        1.703095982     1.212032000    -2.877252811
  12    C        0.731425247    -0.570911455    -3.730158860
  13    H        0.943144684    -0.274221805    -4.768510599
  14    H       -0.175457780    -1.190943759    -3.742155610
  15    H        1.565014962    -1.218149637    -3.415874991
  16    N       -0.422252644     1.537962128    -3.338691430
  17    O       -0.315099851     1.947720837    -4.488579061
  18    O       -1.361192494     1.881495414    -2.634228178
  19    O        5.435231045     2.512264899    -3.011180365
  20    H        6.017623012     1.855361015    -2.661115879
  21    H       -0.216440543    -2.252569985     0.789972548
  22    N       -0.214451343    -0.423777044     2.749895477
  23    O       -0.326462489    -1.580906347     3.136401465
  24    O       -0.278249548     0.517721821     3.532617071
  25    H        3.363121777     0.871929126    -2.026705856
  26    H        4.446443646     2.077466854    -2.891280688
  27    O        3.192685877     1.479503024    -2.701444301


           Empirical Formula: C8 H11 N2 O6  =    27 atoms



      MOLECULAR POINT GROUP   :   C1  


                  EIGENVALUES  
 -37.42054 -37.19575 -31.47870 -30.73374 -30.52667 -29.09790 -27.64962 -27.21074
 -26.66971 -25.48444 -24.94103 -24.48649 -22.04660 -21.54004 -20.31618 -19.32628
 -18.32987 -18.23633 -18.17959 -17.56830 -17.37611 -16.78174 -15.96683 -15.88632
 -15.42573 -14.92274 -14.31192 -14.20694 -14.00224 -13.84275 -13.70166 -13.13799
 -12.63639 -12.33914 -11.91664 -11.85062 -11.81198 -11.74808 -11.74084 -11.65924
 -11.46958 -10.86571 -10.70619 -10.49704  -9.87283  -1.46804  -0.35054  -0.29235
   0.15504   0.54795   0.84185   1.92274   2.92698   3.23517   3.48999   3.74144
   4.11877   4.20808   4.25720   4.32898   4.41104   4.54948   4.72097   4.77164
   5.10482   5.40377   5.51984   5.54101   5.63978   5.75146   5.79201   5.83319
   6.71717   7.11551   7.79816


              NET ATOMIC CHARGES AND DIPOLE CONTRIBUTIONS

  ATOM NO.   TYPE          CHARGE      No. of ELECS.   s-Pop       p-Pop       
    1          C          -0.062779        4.0628     1.09389     2.96889
    2          C          -0.176165        4.1762     1.08669     3.08947
    3          C           0.073859        3.9261     1.07910     2.84704
    4          C          -0.184302        4.1843     1.08577     3.09854
    5          C          -0.064317        4.0643     1.09524     2.96907
    6          C          -0.097932        4.0979     1.06882     3.02912
    7          H           0.193937        0.8061     0.80606
    8          H           0.189381        0.8106     0.81062
    9          H           0.185853        0.8141     0.81415
   10          C          -0.185667        4.1857     1.11115     3.07452
   11          H           0.356606        0.6434     0.64339
   12          C          -0.454282        4.4543     1.05521     3.39907
   13          H           0.174762        0.8252     0.82524
   14          H           0.164411        0.8356     0.83559
   15          H           0.180626        0.8194     0.81937
   16          N           0.659146        4.3409     1.46836     2.87250
   17          O          -0.485384        6.4854     1.94011     4.54528
   18          O          -0.479225        6.4792     1.93975     4.53948
   19          O          -0.926390        6.9264     1.84006     5.08634
   20          H           0.355626        0.6444     0.64437
   21          H           0.188259        0.8117     0.81174
   22          N           0.675548        4.3245     1.44771     2.87675
   23          O          -0.468988        6.4690     1.94093     4.52805
   24          O          -0.468679        6.4687     1.94113     4.52755
   25          H           0.342836        0.6572     0.65716
   26          H           0.430853        0.5691     0.56915
   27          O          -1.117594        7.1176     1.86348     5.25411
 DIPOLE           X         Y         Z       TOTAL
 POINT-CHG.    -7.106    -9.586     5.104    12.978
 HYBRID        -0.764    -0.499     0.870     1.261
 SUM           -7.871   -10.085     5.973    14.118


          ATOMIC ORBITAL ELECTRON POPULATIONS

     Atom    s        px        py        pz   
    1  C   1.09389   0.91852   1.01313   1.03725
    2  C   1.08669   1.02071   1.08765   0.98111
    3  C   1.07910   0.90794   0.97687   0.96223
    4  C   1.08577   1.01918   1.05335   1.02601
    5  C   1.09524   0.91600   1.06728   0.98580
    6  C   1.06882   1.16591   1.02100   0.84221
    7  H   0.80606
    8  H   0.81062
    9  H   0.81415
   10  C   1.11115   1.09026   1.02315   0.96111
   11  H   0.64339
   12  C   1.05521   1.20291   1.07043   1.12573
   13  H   0.82524
   14  H   0.83559
   15  H   0.81937
   16  N   1.46836   0.97091   0.94939   0.95220
   17  O   1.94011   1.82871   1.62325   1.09332
   18  O   1.93975   1.31048   1.65584   1.57315
   19  O   1.84006   1.53003   1.64130   1.91500
   20  H   0.64437
   21  H   0.81174
   22  N   1.44771   0.90924   0.95184   1.01567
   23  O   1.94093   1.57853   1.10173   1.84780
   24  O   1.94113   1.58401   1.36972   1.57382
   25  H   0.65716
   26  H   0.56915
   27  O   1.86348   1.80005   1.74564   1.70842

          BONDING CONTRIBUTION OF EACH M.O.

  1.3476  1.3281  1.8723  0.9956  0.9990  1.6722  1.0633  1.2947  1.8613  0.9551
  1.0817  1.5070  1.4234  1.6924  1.5329  1.6587  1.2048  1.3033  1.4819  1.5371
  1.5846  1.4677  1.7445  1.9162  1.9287  1.9686  1.1598  1.3055  1.3300  1.6169
  1.8082  1.7517  1.8080  1.7208  0.8436  0.8383  0.2952  0.3208  0.0001  0.6507
  0.7348  0.0095  1.4553  2.0462  1.1402 -2.1565 -1.9337 -2.3624 -2.2071 -2.1103
 -2.0842 -1.9839 -1.9640 -1.9496 -1.9672 -1.9476 -2.0412 -1.9301 -1.9728 -1.9942
 -1.9764 -1.8950 -1.9350 -1.9706 -1.9872 -1.9316 -1.9397 -1.9513 -1.9493 -1.8528
 -1.9459 -1.9471 -1.8935 -1.7598 -1.7184





            (VALENCIES)   BOND ORDERS

     1  C     (3.952)     2  C 1.478     6  C 1.364     7  H 0.948     4  C 0.099    23  O 0.018    24  O 0.011

     2  C     (3.964)     1  C 1.478     3  C 1.395     8  H 0.951     5  C 0.100

     3  C     (3.983)     4  C 1.417     2  C 1.395    10  C 1.005     6  C 0.105

     4  C     (3.965)     5  C 1.457     3  C 1.417     9  H 0.950     1  C 0.099

     5  C     (3.954)     4  C 1.457     6  C 1.382    21  H 0.950     2  C 0.100    24  O 0.019    23  O 0.012

     6  C     (3.923)     5  C 1.382     1  C 1.364    22  N 0.911     3  C 0.105    24  O 0.067    23  O 0.067

     7  H     (0.962)     1  C 0.948

     8  H     (0.964)     2  C 0.951

     9  H     (0.965)     4  C 0.950

    10  C     (3.797)     3  C 1.005    12  C 0.989    16  N 0.861    11  H 0.718    18  O 0.072    17  O 0.069
                         27  O 0.039

    11  H     (0.873)    10  C 0.718    27  O 0.117

    12  C     (3.904)    10  C 0.989    14  H 0.964    13  H 0.959    15  H 0.953    18  O 0.011

    13  H     (0.969)    12  C 0.959

    14  H     (0.973)    12  C 0.964

    15  H     (0.967)    12  C 0.953

    16  N     (3.752)    18  O 1.430    17  O 1.421    10  C 0.861

    17  O     (1.800)    16  N 1.421    18  O 0.283    10  C 0.069

    18  O     (1.812)    16  N 1.430    17  O 0.283    10  C 0.072    12  C 0.011

    19  O     (1.548)    20  H 0.870    26  H 0.610    27  O 0.059

    20  H     (0.874)    19  O 0.870

    21  H     (0.965)     5  C 0.950

    22  N     (3.780)    23  O 1.420    24  O 1.417     6  C 0.911

    23  O     (1.810)    22  N 1.420    24  O 0.283     6  C 0.067     1  C 0.018     5  C 0.012

    24  O     (1.808)    22  N 1.417    23  O 0.283     6  C 0.067     5  C 0.019     1  C 0.011

    25  H     (0.882)    27  O 0.875

    26  H     (0.814)    19  O 0.610    27  O 0.197

    27  O     (1.298)    25  H 0.875    26  H 0.197    11  H 0.117    19  O 0.059    10  C 0.039


 **********************
 *                    *
 * JOB ENDED NORMALLY *
 *                    *
 **********************



 TOTAL JOB TIME:           224.68 SECONDS

 == MOPAC DONE ==
