 *******************************************************************************
 **                                                                           **
 **                              MOPAC v22.0.6                                **
 **                                                                           **
 *******************************************************************************
 **          Digital Object Identifier (DOI): 10.5281/zenodo.6511958          **
 **    Visit the DOI location for information on how to cite this program.    **
 *******************************************************************************

                              PM7 CALCULATION RESULTS

 *******************************************************************************
 *  CALCULATION DONE:                                Sun Mar 24 16:55:13 2024  *
 *  PM7        - The PM7 Hamiltonian to be used
 *  SINGLET    - SPIN STATE DEFINED AS A SINGLET
 *
 *
 *
 *                 CHARGE ON SYSTEM = 0
 *
 *
 *
 *  EPS=32.66  - USE ANDREAS KLAMT'S COSMO IMPLICIT SOLVATION MODEL
 *  THREADS    - USE A MAXIMUM OF 30 THREADS
 *  T=         - A TIME OF 14.0 DAYS REQUESTED
 *  DUMP=N     - RESTART FILE WRITTEN EVERY 30.0 MINUTES REQUESTED
 *  RELSCF     - DEFAULT SCF CRITERION MULTIPLIED BY 1.0000
 *              (DEFAULT SCF CRITERION = 0.00010)
 *  ITRY=      - DO A MAXIMUM OF 15000 ITERATIONS FOR SCF
 *  AUX        - OUTPUT AUXILIARY INFORMATION
 *  BONDS      - FINAL BOND-ORDER MATRIX TO BE PRINTED
 *******************************************************************************
PM7 BONDS AUX DUMP=30M ITRY=15000 T=14D THREADS=30 CHARGE=0 SINGLET eps=32.66 RELSCF=1
 Title: ASE calculation

   ATOM   CHEMICAL          X               Y               Z
  NUMBER   SYMBOL      (ANGSTROMS)     (ANGSTROMS)     (ANGSTROMS)

     1       C         -2.68528381  *  -2.63614992  *   0.60830505  *
     2       C         -2.07023160  *  -1.45080633  *   1.06311098  *
     3       C         -0.67473788  *  -1.43505348  *   1.37288225  *
     4       C          0.10957610  *  -2.59491745  *   1.26280620  *
     5       C         -0.48967203  *  -3.74212586  *   0.77491940  *
     6       N          0.07203445     -4.97475562      0.52044748   
     7       C         -0.95568125  *  -5.77561802  *   0.05806588  *
     8       C         -2.17611688  *  -5.10466109  *   0.00220987  *
     9       C         -1.92395492  *  -3.76780886  *   0.45077402  *
    10       H         -3.11550930  *  -5.48798818  *  -0.31304183  *
    11       H         -0.75069589  *  -6.79926363  *  -0.20958469  *
    12       H          1.14858311  *  -2.59088687  *   1.56237487  *
    13       H         -3.75217387  *  -2.63984597  *   0.38319413  *
    14       N         -0.04257335  *  -0.26870804  *   1.78125188  *
    15       C         -0.75518239  *   0.83308787  *   1.91658612  *
    16       C         -2.15809442  *   0.89225610  *   1.65536068  *
    17       H         -2.68178320  *   1.83370579  *   1.79637075  *
    18       H         -0.21955882  *   1.73616212  *   2.24172410  *
    19       C         -2.79877184  *  -0.23781869  *   1.22799322  *
    20       H         -3.86968904  *  -0.23449307  *   1.00634972  *
    21       H          2.02572971     -5.05283571  *   0.18329412  *
    22       C          2.48258926  *  -1.09365220  *  -0.65800277  *
    23       H          1.63550009  *  -1.77080423  *  -0.81867793  *
    24       H          2.28287305  *  -0.11082230  *  -1.10157542  *
    25       H          3.41067547  *  -1.51720903  *  -1.05904308  *
    26       H          1.89839345  *  -0.59532196  *   1.19052910  *
    27       O          2.72713209  *  -0.92929080  *   0.73427006  *
    28       C          2.56995894  *  -6.27191157  *   1.72298804  *
    29       H          3.51798346  *  -6.37422859  *   2.26408141  *
    30       H          1.74870136  *  -5.94575122  *   2.37128969  *
    31       H          2.31425582  *  -7.18930310  *   1.18065092  *
    32       H          3.06566316  *  -4.24613282  *   1.23525414  *
    33       O          2.84491413     -5.26631438      0.70428234   
    34       C          4.81983317  *  -3.14046486  *   2.08729513  *
    35       H          5.31648962  *  -3.11470720  *   1.11196153  *
    36       H          5.06663386  *  -2.25238880  *   2.68191448  *
    37       H          5.06138047  *  -4.05827473  *   2.63767124  *
    38       H          3.09075406  *  -2.30687913  *   1.40160900  *
    39       O          3.39610971  *  -3.16606683  *   1.91866135  *



          CARTESIAN COORDINATES 

    NO.       ATOM           X           Y           Z

     1         C         -2.6853     -2.6361      0.6083
     2         C         -2.0702     -1.4508      1.0631
     3         C         -0.6747     -1.4351      1.3729
     4         C          0.1096     -2.5949      1.2628
     5         C         -0.4897     -3.7421      0.7749
     6         N          0.0720     -4.9748      0.5204
     7         C         -0.9557     -5.7756      0.0581
     8         C         -2.1761     -5.1047      0.0022
     9         C         -1.9240     -3.7678      0.4508
    10         H         -3.1155     -5.4880     -0.3130
    11         H         -0.7507     -6.7993     -0.2096
    12         H          1.1486     -2.5909      1.5624
    13         H         -3.7522     -2.6398      0.3832
    14         N         -0.0426     -0.2687      1.7813
    15         C         -0.7552      0.8331      1.9166
    16         C         -2.1581      0.8923      1.6554
    17         H         -2.6818      1.8337      1.7964
    18         H         -0.2196      1.7362      2.2417
    19         C         -2.7988     -0.2378      1.2280
    20         H         -3.8697     -0.2345      1.0063
    21         H          2.0257     -5.0528      0.1833
    22         C          2.4826     -1.0937     -0.6580
    23         H          1.6355     -1.7708     -0.8187
    24         H          2.2829     -0.1108     -1.1016
    25         H          3.4107     -1.5172     -1.0590
    26         H          1.8984     -0.5953      1.1905
    27         O          2.7271     -0.9293      0.7343
    28         C          2.5700     -6.2719      1.7230
    29         H          3.5180     -6.3742      2.2641
    30         H          1.7487     -5.9458      2.3713
    31         H          2.3143     -7.1893      1.1807
    32         H          3.0657     -4.2461      1.2353
    33         O          2.8449     -5.2663      0.7043
    34         C          4.8198     -3.1405      2.0873
    35         H          5.3165     -3.1147      1.1120
    36         H          5.0666     -2.2524      2.6819
    37         H          5.0614     -4.0583      2.6377
    38         H          3.0908     -2.3069      1.4016
    39         O          3.3961     -3.1661      1.9187

 General Reference for PM7:
 "Optimization of Parameters for Semiempirical Methods VI: More Modifications to the 
 NDDO Approximations and Re-optimization of Parameters", J. J. P. Stewart, J. Mol. Mod., 1:32, 19 (2013)
 https://link.springer.com/article/10.1007/s00894-012-1667-x

           Empirical Formula: C14 H20 N2 O3  =    39 atoms



      MOLECULAR POINT GROUP   :   C1  


 SINGLET STATE CALCULATION


      RHF CALCULATION, NO. OF DOUBLY OCCUPIED LEVELS = 52


          Geometry optimization using L-BFGS
  SCF CRITERION =    0.1000E-03
 CYCLE:     1 TIME:   0.141 TIME LEFT:  2.00W  GRAD.:     6.111 HEAT: -87.62056
 CYCLE:     2 TIME:   0.059 TIME LEFT:  2.00W  GRAD.:     6.079 HEAT: -87.62092
 CYCLE:     3 TIME:   0.059 TIME LEFT:  2.00W  GRAD.:     6.824 HEAT: -87.66216
 CYCLE:     4 TIME:   0.062 TIME LEFT:  2.00W  GRAD.:    10.168 HEAT: -87.66447
 CYCLE:     5 TIME:   0.055 TIME LEFT:  2.00W  GRAD.:     2.575 HEAT: -87.67879
 CYCLE:     6 TIME:   0.066 TIME LEFT:  2.00W  GRAD.:     2.133 HEAT: -87.68172
 CYCLE:     7 TIME:   0.062 TIME LEFT:  2.00W  GRAD.:     3.806 HEAT: -87.67795
 CYCLE:     8 TIME:   0.055 TIME LEFT:  2.00W  GRAD.:     3.714 HEAT: -87.68464
 CYCLE:     9 TIME:   0.062 TIME LEFT:  2.00W  GRAD.:     3.672 HEAT: -87.70715
 CYCLE:    10 TIME:   0.059 TIME LEFT:  2.00W  GRAD.:     5.382 HEAT: -87.71732
 CYCLE:    11 TIME:   0.059 TIME LEFT:  2.00W  GRAD.:     3.177 HEAT: -87.72564
 CYCLE:    12 TIME:   0.059 TIME LEFT:  2.00W  GRAD.:     2.498 HEAT: -87.70881
 CYCLE:    13 TIME:   0.059 TIME LEFT:  2.00W  GRAD.:     2.929 HEAT: -87.71150
 CYCLE:    14 TIME:   0.059 TIME LEFT:  2.00W  GRAD.:     3.932 HEAT: -87.71366
 CYCLE:    15 TIME:   0.059 TIME LEFT:  2.00W  GRAD.:     3.547 HEAT: -87.72724
 CYCLE:    16 TIME:   0.059 TIME LEFT:  2.00W  GRAD.:     3.154 HEAT: -87.73452
 CYCLE:    17 TIME:   0.059 TIME LEFT:  2.00W  GRAD.:     6.809 HEAT: -87.75983
 CYCLE:    18 TIME:   0.059 TIME LEFT:  2.00W  GRAD.:     3.246 HEAT: -87.76627
 CYCLE:    19 TIME:   0.059 TIME LEFT:  2.00W  GRAD.:     2.803 HEAT: -87.79636
 CYCLE:    20 TIME:   0.055 TIME LEFT:  2.00W  GRAD.:     2.888 HEAT: -87.79131
 CYCLE:    21 TIME:   0.062 TIME LEFT:  2.00W  GRAD.:     6.573 HEAT: -87.79075
 CYCLE:    22 TIME:   0.059 TIME LEFT:  2.00W  GRAD.:     2.225 HEAT: -87.79098
 CYCLE:    23 TIME:   0.062 TIME LEFT:  2.00W  GRAD.:     1.592 HEAT: -87.79605
 CYCLE:    24 TIME:   0.059 TIME LEFT:  2.00W  GRAD.:     1.893 HEAT: -87.79868
 CYCLE:    25 TIME:   0.062 TIME LEFT:  2.00W  GRAD.:     2.067 HEAT: -87.79685
 CYCLE:    26 TIME:   0.059 TIME LEFT:  2.00W  GRAD.:     8.841 HEAT: -87.76652
 CYCLE:    27 TIME:   0.062 TIME LEFT:  2.00W  GRAD.:     0.789 HEAT: -87.77438


          CURRENT BEST VALUE OF HEAT OF FORMATION =    -87.798676

 PM7 BONDS AUX DUMP=30M ITRY=15000 T=14D THREADS=30 CHARGE=0 SINGLET eps=32.66 RELSCF=1
 Title: ASE calculation

  C    -2.68378379 +1  -2.63280417 +1   0.60952196 +1
  C    -2.06773221 +1  -1.44803975 +1   1.06389486 +1
  C    -0.67207499 +1  -1.43344115 +1   1.37239946 +1
  C     0.11129375 +1  -2.59401786 +1   1.26184106 +1
  C    -0.48858510 +1  -3.74135870 +1   0.77453889 +1
  N     0.07203445 +0  -4.97475562 +0   0.52044748 +0
  C    -0.95762637 +1  -5.77442246 +1   0.06034090 +1
  C    -2.17747621 +1  -5.10161696 +1   0.00440382 +1
  C    -1.92299874 +1  -3.76530203 +1   0.45155068 +1
  H    -3.11777027 +1  -5.48414050 +1  -0.30985556 +1
  H    -0.75486242 +1  -6.79879243 +1  -0.20613989 +1
  H     1.14984169 +1  -2.59021305 +1   1.56094916 +1
  H    -3.75060070 +1  -2.63580393 +1   0.38477966 +1
  N    -0.03868363 +1  -0.26784985 +1   1.78023156 +1
  C    -0.74977117 +1   0.83458937 +1   1.91649612 +1
  C    -2.15288659 +1   0.89534636 +1   1.65668111 +1
  H    -2.67548025 +1   1.83740084 +1   1.79818845 +1
  H    -0.21274932 +1   1.73729551 +1   2.24104533 +1
  C    -2.79487928 +1  -0.23441833 +1   1.22953188 +1
  H    -3.86586255 +1  -0.22950659 +1   1.00857304 +1
  H     2.02572971 +0  -5.05301917 +1   0.14255956 +1
  C     2.48310947 +1  -1.09438019 +1  -0.65963078 +1
  H     1.63629751 +1  -1.77165918 +1  -0.82180654 +1
  H     2.28449378 +1  -0.11165929 +1  -1.10386435 +1
  H     3.41209838 +1  -1.51820319 +1  -1.05863017 +1
  H     1.89593400 +1  -0.59432027 +1   1.18847843 +1
  O     2.72526273 +1  -0.92863033 +1   0.73294862 +1
  C     2.49829744 +1  -6.26536686 +1   1.71166481 +1
  H     3.41507329 +1  -6.39018543 +1   2.29867098 +1
  H     1.65379346 +1  -5.91713169 +1   2.31958995 +1
  H     2.24628738 +1  -7.17735591 +1   1.15666691 +1
  H     3.04204973 +1  -4.24452210 +1   1.23943280 +1
  O     2.84491413 +0  -5.26631438 +0   0.70428234 +0
  C     4.79938154 +1  -3.14847640 +1   2.08563586 +1
  H     5.29272098 +1  -3.12389675 +1   1.10866884 +1
  H     5.05386043 +1  -2.26386189 +1   2.68186944 +1
  H     5.03638452 +1  -4.06991614 +1   2.63163046 +1
  H     3.07559404 +1  -2.30301141 +1   1.40192801 +1
  O     3.37534503 +1  -3.16371721 +1   1.92111502 +1



 -------------------------------------------------------------------------------
 PM7 BONDS AUX DUMP=30M ITRY=15000 T=14D THREADS=30 CHARGE=0 SINGLET eps=32.66 RELSCF=1
 Title: ASE calculation



     HERBERTS TEST WAS SATISFIED IN BFGS                      
     SCF FIELD WAS ACHIEVED                                   


                              PM7 CALCULATION
                                                       MOPAC v22.0.6 Linux
                                                       Sun Mar 24 16:55:15 2024




          FINAL HEAT OF FORMATION =        -87.79868 KCAL/MOL =    -367.34966 KJ/MOL
          VAN DER WAALS AREA      =        299.81 SQUARE ANGSTROMS



          DIELECTRIC ENERGY       =         -0.93183 EV
          COSMO AREA              =        299.81 SQUARE ANGSTROMS
          COSMO VOLUME            =        345.55 CUBIC ANGSTROMS

          GRADIENT NORM           =          1.89319          =       0.30315 PER ATOM
          IONIZATION POTENTIAL    =          7.922148 EV
          HOMO LUMO ENERGIES (EV) =         -7.922 -0.853
          NO. OF FILLED LEVELS    =         52
          MOLECULAR WEIGHT        =        264.3236         POINT GROUP:  C1  

          MOLECULAR DIMENSIONS (Angstroms)

            Atom       Atom       Distance
            H    31    H    17    10.29083
            H    36    H    10     9.23498
            H    24    H    30     4.60957


          SCF CALCULATIONS        =         29

          WALL-CLOCK TIME         =      1.754 SECONDS
          COMPUTATION TIME        =          2 MINUTES AND 45.477 SECONDS




   ATOM   CHEMICAL          X               Y               Z
  NUMBER   SYMBOL      (ANGSTROMS)     (ANGSTROMS)     (ANGSTROMS)

     1       C         -2.68378379  *  -2.63280417  *   0.60952196  *
     2       C         -2.06773221  *  -1.44803975  *   1.06389486  *
     3       C         -0.67207499  *  -1.43344115  *   1.37239946  *
     4       C          0.11129375  *  -2.59401786  *   1.26184106  *
     5       C         -0.48858510  *  -3.74135870  *   0.77453889  *
     6       N          0.07203445     -4.97475562      0.52044748   
     7       C         -0.95762637  *  -5.77442246  *   0.06034090  *
     8       C         -2.17747621  *  -5.10161696  *   0.00440382  *
     9       C         -1.92299874  *  -3.76530203  *   0.45155068  *
    10       H         -3.11777027  *  -5.48414050  *  -0.30985556  *
    11       H         -0.75486242  *  -6.79879243  *  -0.20613989  *
    12       H          1.14984169  *  -2.59021305  *   1.56094916  *
    13       H         -3.75060070  *  -2.63580393  *   0.38477966  *
    14       N         -0.03868363  *  -0.26784985  *   1.78023156  *
    15       C         -0.74977117  *   0.83458937  *   1.91649612  *
    16       C         -2.15288659  *   0.89534636  *   1.65668111  *
    17       H         -2.67548025  *   1.83740084  *   1.79818845  *
    18       H         -0.21274932  *   1.73729551  *   2.24104533  *
    19       C         -2.79487928  *  -0.23441833  *   1.22953188  *
    20       H         -3.86586255  *  -0.22950659  *   1.00857304  *
    21       H          2.02572971     -5.05301917  *   0.14255956  *
    22       C          2.48310947  *  -1.09438019  *  -0.65963078  *
    23       H          1.63629751  *  -1.77165918  *  -0.82180654  *
    24       H          2.28449378  *  -0.11165929  *  -1.10386435  *
    25       H          3.41209838  *  -1.51820319  *  -1.05863017  *
    26       H          1.89593400  *  -0.59432027  *   1.18847843  *
    27       O          2.72526273  *  -0.92863033  *   0.73294862  *
    28       C          2.49829744  *  -6.26536686  *   1.71166481  *
    29       H          3.41507329  *  -6.39018543  *   2.29867098  *
    30       H          1.65379346  *  -5.91713169  *   2.31958995  *
    31       H          2.24628738  *  -7.17735591  *   1.15666691  *
    32       H          3.04204973  *  -4.24452210  *   1.23943280  *
    33       O          2.84491413     -5.26631438      0.70428234   
    34       C          4.79938154  *  -3.14847640  *   2.08563586  *
    35       H          5.29272098  *  -3.12389675  *   1.10866884  *
    36       H          5.05386043  *  -2.26386189  *   2.68186944  *
    37       H          5.03638452  *  -4.06991614  *   2.63163046  *
    38       H          3.07559404  *  -2.30301141  *   1.40192801  *
    39       O          3.37534503  *  -3.16371721  *   1.92111502  *

                             CARTESIAN COORDINATES

   1    C       -2.683783789    -2.632804166     0.609521957
   2    C       -2.067732215    -1.448039755     1.063894859
   3    C       -0.672074986    -1.433441155     1.372399460
   4    C        0.111293753    -2.594017861     1.261841061
   5    C       -0.488585101    -3.741358701     0.774538887
   6    N        0.072034450    -4.974755620     0.520447480
   7    C       -0.957626370    -5.774422463     0.060340897
   8    C       -2.177476206    -5.101616963     0.004403820
   9    C       -1.922998737    -3.765302030     0.451550679
  10    H       -3.117770271    -5.484140505    -0.309855555
  11    H       -0.754862425    -6.798792430    -0.206139892
  12    H        1.149841689    -2.590213054     1.560949157
  13    H       -3.750600697    -2.635803934     0.384779658
  14    N       -0.038683625    -0.267849849     1.780231564
  15    C       -0.749771167     0.834589369     1.916496122
  16    C       -2.152886593     0.895346356     1.656681109
  17    H       -2.675480251     1.837400845     1.798188450
  18    H       -0.212749322     1.737295511     2.241045326
  19    C       -2.794879282    -0.234418326     1.229531877
  20    H       -3.865862547    -0.229506588     1.008573038
  21    H        2.025729710    -5.053019175     0.142559559
  22    C        2.483109470    -1.094380195    -0.659630782
  23    H        1.636297505    -1.771659176    -0.821806535
  24    H        2.284493778    -0.111659293    -1.103864347
  25    H        3.412098384    -1.518203192    -1.058630174
  26    H        1.895934003    -0.594320267     1.188478430
  27    O        2.725262735    -0.928630331     0.732948616
  28    C        2.498297444    -6.265366856     1.711664811
  29    H        3.415073286    -6.390185427     2.298670980
  30    H        1.653793465    -5.917131688     2.319589947
  31    H        2.246287383    -7.177355914     1.156666910
  32    H        3.042049729    -4.244522099     1.239432796
  33    O        2.844914130    -5.266314380     0.704282340
  34    C        4.799381540    -3.148476401     2.085635864
  35    H        5.292720978    -3.123896746     1.108668840
  36    H        5.053860433    -2.263861892     2.681869444
  37    H        5.036384517    -4.069916142     2.631630457
  38    H        3.075594037    -2.303011406     1.401928006
  39    O        3.375345026    -3.163717213     1.921115018


           Empirical Formula: C14 H20 N2 O3  =    39 atoms



      MOLECULAR POINT GROUP   :   C1  


                  EIGENVALUES  
 -35.86198 -35.35870 -31.46388 -30.16060 -29.70512 -29.33611 -28.08372 -26.56537
 -25.02408 -24.83419 -24.50028 -24.44096 -24.11122 -22.12034 -21.10774 -20.97197
 -19.45509 -19.20267 -18.42159 -18.16681 -17.77840 -17.37807 -17.21330 -16.73827
 -15.83203 -15.67519 -15.62718 -15.41383 -15.25655 -15.13745 -14.96722 -14.73559
 -14.38265 -14.21486 -13.84464 -13.70906 -13.68981 -13.28420 -13.03238 -12.93784
 -12.65425 -12.39244 -12.16938 -11.93985 -11.71802 -11.38491 -11.10629 -10.62082
 -10.28945 -10.13287  -8.66454  -7.92215  -0.85272  -0.01722   0.40826   0.59457
   1.62598   1.86589   2.00346   2.46430   2.88250   3.30342   3.72990   3.97545
   4.09009   4.18043   4.33936   4.54220   4.71876   4.84149   4.94805   5.08969
   5.13506   5.23831   5.26598   5.28904   5.31460   5.35518   5.46578   5.53653
   5.58108   5.66617   5.73179   5.76533   5.82193   5.85060   5.92930   5.94888
   6.05433   6.11290   6.18808   6.27192   6.29757   6.46651   6.54931   6.87290


              NET ATOMIC CHARGES AND DIPOLE CONTRIBUTIONS

  ATOM NO.   TYPE          CHARGE      No. of ELECS.   s-Pop       p-Pop       
    1          C          -0.154087        4.1541     1.08090     3.07319
    2          C          -0.150473        4.1505     1.05771     3.09277
    3          C           0.161014        3.8390     1.05941     2.77958
    4          C          -0.324790        4.3248     1.06512     3.25967
    5          C           0.156722        3.8433     1.06958     2.77369
    6          N          -0.651119        5.6511     1.76943     3.88169
    7          C           0.059583        3.9404     1.09858     2.84183
    8          C          -0.419057        4.4191     1.06826     3.35080
    9          C          -0.068845        4.0688     1.07044     2.99840
   10          H           0.160534        0.8395     0.83947
   11          H           0.151361        0.8486     0.84864
   12          H           0.158730        0.8413     0.84127
   13          H           0.172735        0.8273     0.82726
   14          N          -0.491087        5.4911     1.73926     3.75182
   15          C           0.099954        3.9000     1.10076     2.79929
   16          C          -0.291053        4.2911     1.08489     3.20616
   17          H           0.175805        0.8242     0.82420
   18          H           0.176529        0.8235     0.82347
   19          C          -0.043575        4.0436     1.09556     2.94801
   20          H           0.173086        0.8269     0.82691
   21          H           0.413830        0.5862     0.58617
   22          C          -0.142695        4.1427     1.08599     3.05670
   23          H           0.138991        0.8610     0.86101
   24          H           0.145348        0.8547     0.85465
   25          H           0.147588        0.8524     0.85241
   26          H           0.388220        0.6118     0.61178
   27          O          -0.625028        6.6250     1.84196     4.78307
   28          C          -0.138149        4.1381     1.10657     3.03158
   29          H           0.158642        0.8414     0.84136
   30          H           0.171738        0.8283     0.82826
   31          H           0.165130        0.8349     0.83487
   32          H           0.425900        0.5741     0.57410
   33          O          -0.440408        6.4404     1.82242     4.61798
   34          C          -0.141792        4.1418     1.09259     3.04920
   35          H           0.144061        0.8559     0.85594
   36          H           0.154471        0.8455     0.84553
   37          H           0.155436        0.8446     0.84456
   38          H           0.407941        0.5921     0.59206
   39          O          -0.581190        6.5812     1.83782     4.74337
 DIPOLE           X         Y         Z       TOTAL
 POINT-CHG.    11.011    -1.329     0.072    11.091
 HYBRID        -1.450     0.765    -0.209     1.652
 SUM            9.561    -0.564    -0.137     9.579


          ATOMIC ORBITAL ELECTRON POPULATIONS

     Atom    s        px        py        pz   
    1  C   1.08090   1.08560   0.97567   1.01192
    2  C   1.05771   0.99221   0.99800   1.10256
    3  C   1.05941   0.93383   0.89539   0.95036
    4  C   1.06512   1.09554   0.99730   1.16682
    5  C   1.06958   0.93972   0.89619   0.93778
    6  N   1.76943   1.36085   1.12554   1.39530
    7  C   1.09858   0.90600   1.01059   0.92525
    8  C   1.06826   1.07333   1.01800   1.25947
    9  C   1.07044   0.98658   0.98079   1.03103
   10  H   0.83947
   11  H   0.84864
   12  H   0.84127
   13  H   0.82726
   14  N   1.73926   1.43270   1.08734   1.23179
   15  C   1.10076   0.95477   0.96128   0.88324
   16  C   1.08489   1.02334   1.08537   1.09745
   17  H   0.82420
   18  H   0.82347
   19  C   1.09556   1.07852   0.96459   0.90491
   20  H   0.82691
   21  H   0.58617
   22  C   1.08599   1.14922   1.15328   0.75420
   23  H   0.86101
   24  H   0.85465
   25  H   0.85241
   26  H   0.61178
   27  O   1.84196   1.56007   1.87823   1.34478
   28  C   1.10657   1.15440   0.93093   0.94624
   29  H   0.84136
   30  H   0.82826
   31  H   0.83487
   32  H   0.57410
   33  O   1.82242   1.57511   1.52274   1.52013
   34  C   1.09259   0.72513   1.17241   1.15165
   35  H   0.85594
   36  H   0.84553
   37  H   0.84456
   38  H   0.59206
   39  O   1.83782   1.36865   1.58300   1.79173

          BONDING CONTRIBUTION OF EACH M.O.

  1.3390  1.3754  1.0810  1.1240  1.8271  1.1436  1.8347  1.8131  1.8522  1.7519
  1.7551  1.7601  1.6506  1.8508  1.9114  1.8893  1.4741  1.8447  1.5334  1.5839
  1.7295  1.8902  1.8779  1.8935  1.3936  1.4053  1.4914  1.5743  1.8567  1.5266
  1.8333  1.8596  1.9807  2.0114  1.7791  1.7728  1.8295  1.6938  1.4685  2.0230
  1.5123  1.9975  1.8693  0.9287  1.8242  0.7695  1.8487  1.2155  1.4007  1.7396
  1.9281  1.5780 -2.0336 -2.0580 -1.7947 -2.0760 -1.7883 -2.0581 -2.2345 -1.8111
 -2.0883 -1.9384 -1.9217 -1.8002 -1.9566 -1.9642 -2.0044 -1.9575 -1.8610 -1.9245
 -1.8309 -1.9514 -2.0007 -1.9421 -1.9529 -1.9749 -1.9470 -1.9350 -1.9102 -1.9791
 -1.9512 -1.9873 -1.9462 -1.9424 -1.9692 -1.9422 -1.9452 -1.8937 -1.9533 -1.9483
 -1.9391 -1.9463 -1.9709 -1.9544 -1.9551 -1.9579





            (VALENCIES)   BOND ORDERS

     1  C     (3.970)     9  C 1.489     2  C 1.301    13  H 0.955     4  C 0.097     7  C 0.046    16  C 0.028
                          5  C 0.021

     2  C     (3.983)     1  C 1.301     3  C 1.268    19  C 1.219    15  C 0.062     5  C 0.046     8  C 0.020
                          4  C 0.014    14  N 0.013     6  N 0.012

     3  C     (3.965)     4  C 1.342     2  C 1.268    14  N 1.162    16  C 0.057     9  C 0.048     6  N 0.019
                         18  H 0.014    15  C 0.011

     4  C     (3.942)     5  C 1.380     3  C 1.342    12  H 0.950     1  C 0.097    15  C 0.035     7  C 0.034
                          6  N 0.031     9  C 0.015     2  C 0.014     8  C 0.010

     5  C     (3.969)     4  C 1.380     6  N 1.276     9  C 1.129     2  C 0.046     8  C 0.045     1  C 0.021
                         14  N 0.014     7  C 0.014    16  C 0.011

     6  N     (2.843)     7  C 1.304     5  C 1.276     8  C 0.078     9  C 0.048    21  H 0.038     4  C 0.031
                          3  C 0.019    33  O 0.013     2  C 0.012

     7  C     (3.942)     8  C 1.546     6  N 1.304    11  H 0.959     1  C 0.046     4  C 0.034     5  C 0.014

     8  C     (3.892)     7  C 1.546     9  C 1.201    10  H 0.963     6  N 0.078     5  C 0.045     2  C 0.020
                          4  C 0.010

     9  C     (3.992)     1  C 1.489     8  C 1.201     5  C 1.129     3  C 0.048     6  N 0.048    19  C 0.020
                          4  C 0.015    15  C 0.015

    10  H     (0.974)     8  C 0.963

    11  H     (0.977)     7  C 0.959

    12  H     (0.975)     4  C 0.950

    13  H     (0.970)     1  C 0.955

    14  N     (2.960)    15  C 1.608     3  C 1.162    19  C 0.084    26  H 0.021    16  C 0.020     5  C 0.014
                          2  C 0.013

    15  C     (3.921)    14  N 1.608    16  C 1.218    18  H 0.947     2  C 0.062     4  C 0.035     9  C 0.015
                          3  C 0.011

    16  C     (3.959)    19  C 1.645    15  C 1.218    17  H 0.957     3  C 0.057     1  C 0.028    14  N 0.020
                          5  C 0.011

    17  H     (0.969)    16  C 0.957

    18  H     (0.969)    15  C 0.947     3  C 0.014

    19  C     (3.956)    16  C 1.645     2  C 1.219    20  H 0.956    14  N 0.084     9  C 0.020

    20  H     (0.970)    19  C 0.956

    21  H     (0.829)    33  O 0.774     6  N 0.038

    22  C     (3.843)    23  H 0.971    24  H 0.971    25  H 0.969    27  O 0.922

    23  H     (0.981)    22  C 0.971

    24  H     (0.979)    22  C 0.971

    25  H     (0.978)    22  C 0.969

    26  H     (0.849)    27  O 0.812    14  N 0.021

    27  O     (1.902)    22  C 0.922    26  H 0.812    38  H 0.099    39  O 0.035

    28  C     (3.786)    29  H 0.966    31  H 0.966    30  H 0.964    33  O 0.875

    29  H     (0.975)    28  C 0.966

    30  H     (0.971)    28  C 0.964

    31  H     (0.973)    28  C 0.966

    32  H     (0.819)    33  O 0.506    39  O 0.297

    33  O     (2.270)    28  C 0.875    21  H 0.774    32  H 0.506    39  O 0.075     6  N 0.013

    34  C     (3.824)    35  H 0.972    36  H 0.969    37  H 0.967    39  O 0.903

    35  H     (0.979)    34  C 0.972

    36  H     (0.976)    34  C 0.969

    37  H     (0.976)    34  C 0.967

    38  H     (0.834)    39  O 0.713    27  O 0.099

    39  O     (2.056)    34  C 0.903    38  H 0.713    32  H 0.297    33  O 0.075    27  O 0.035


 **********************
 *                    *
 * JOB ENDED NORMALLY *
 *                    *
 **********************



 TOTAL JOB TIME:             1.77 SECONDS

 == MOPAC DONE ==
