 *******************************************************************************
 **                                                                           **
 **                              MOPAC v22.0.6                                **
 **                                                                           **
 *******************************************************************************
 **          Digital Object Identifier (DOI): 10.5281/zenodo.6511958          **
 **    Visit the DOI location for information on how to cite this program.    **
 *******************************************************************************

                              PM7 CALCULATION RESULTS

 *******************************************************************************
 *  CALCULATION DONE:                                Sun Mar 24 16:55:30 2024  *
 *  PM7        - The PM7 Hamiltonian to be used
 *  SINGLET    - SPIN STATE DEFINED AS A SINGLET
 *
 *
 *
 *                 CHARGE ON SYSTEM = 0
 *
 *
 *
 *  EPS=32.66  - USE ANDREAS KLAMT'S COSMO IMPLICIT SOLVATION MODEL
 *  LET        - OVERRIDE SOME SAFETY CHECKS
 *  THREADS    - USE A MAXIMUM OF 30 THREADS
 *  T=         - A TIME OF 14.0 DAYS REQUESTED
 *  DUMP=N     - RESTART FILE WRITTEN EVERY 30.0 MINUTES REQUESTED
 *  RELSCF     - DEFAULT SCF CRITERION MULTIPLIED BY 1.0000
 *              (DEFAULT SCF CRITERION = 0.00010)
 *  ITRY=      - DO A MAXIMUM OF 15000 ITERATIONS FOR SCF
 *  AUX        - OUTPUT AUXILIARY INFORMATION
 *  ISOTOPE    - SAVE THE FORCE MATRIX FOR USE LATER
 *  BONDS      - FINAL BOND-ORDER MATRIX TO BE PRINTED
 *  LARGE      - EXPANDED OUTPUT TO BE PRINTED
 *  THERMO     - THERMODYNAMIC QUANTITIES TO BE CALCULATED
 *******************************************************************************
PM7 AUX LARGE THERMO(298,298) LET ISOTOPE BONDS DUMP=30M ITRY=15000 T=14D THREADS=30 CHARGE=0 SINGLET eps=32.66 RELSCF=1
 Title: ASE calculation

   ATOM   CHEMICAL          X               Y               Z
  NUMBER   SYMBOL      (ANGSTROMS)     (ANGSTROMS)     (ANGSTROMS)

     1       C         -2.68378379  *  -2.63280417  *   0.60952196  *
     2       C         -2.06773221  *  -1.44803975  *   1.06389486  *
     3       C         -0.67207499  *  -1.43344115  *   1.37239946  *
     4       C          0.11129375  *  -2.59401786  *   1.26184106  *
     5       C         -0.48858510  *  -3.74135870  *   0.77453889  *
     6       N          0.07203445  *  -4.97475562  *   0.52044748  *
     7       C         -0.95762637  *  -5.77442246  *   0.06034090  *
     8       C         -2.17747621  *  -5.10161696  *   0.00440382  *
     9       C         -1.92299874  *  -3.76530203  *   0.45155068  *
    10       H         -3.11777027  *  -5.48414051  *  -0.30985556  *
    11       H         -0.75486243  *  -6.79879243  *  -0.20613989  *
    12       H          1.14984169  *  -2.59021305  *   1.56094916  *
    13       H         -3.75060070  *  -2.63580393  *   0.38477966  *
    14       N         -0.03868362  *  -0.26784985  *   1.78023156  *
    15       C         -0.74977117  *   0.83458937  *   1.91649612  *
    16       C         -2.15288659  *   0.89534636  *   1.65668111  *
    17       H         -2.67548025  *   1.83740084  *   1.79818845  *
    18       H         -0.21274932  *   1.73729551  *   2.24104533  *
    19       C         -2.79487928  *  -0.23441833  *   1.22953188  *
    20       H         -3.86586255  *  -0.22950659  *   1.00857304  *
    21       D          2.02572971  *  -5.05301918  *   0.14255956  *
    22       C          2.48310947  *  -1.09438020  *  -0.65963078  *
    23       H          1.63629750  *  -1.77165918  *  -0.82180654  *
    24       H          2.28449378  *  -0.11165929  *  -1.10386435  *
    25       H          3.41209838  *  -1.51820319  *  -1.05863017  *
    26       D          1.89593400  *  -0.59432027  *   1.18847843  *
    27       O          2.72526273  *  -0.92863033  *   0.73294862  *
    28       C          2.49829744  *  -6.26536686  *   1.71166481  *
    29       H          3.41507329  *  -6.39018543  *   2.29867098  *
    30       H          1.65379346  *  -5.91713169  *   2.31958995  *
    31       H          2.24628738  *  -7.17735591  *   1.15666691  *
    32       D          3.04204973  *  -4.24452210  *   1.23943280  *
    33       O          2.84491413  *  -5.26631438  *   0.70428234  *
    34       C          4.79938154  *  -3.14847640  *   2.08563586  *
    35       H          5.29272098  *  -3.12389675  *   1.10866884  *
    36       H          5.05386043  *  -2.26386189  *   2.68186944  *
    37       H          5.03638452  *  -4.06991614  *   2.63163046  *
    38       D          3.07559404  *  -2.30301141  *   1.40192801  *
    39       O          3.37534503  *  -3.16371721  *   1.92111502  *


                                Isotopes Used

              Atom:   21  H  Default mass  1.0079,  mass used:  2.0140 amu
              Atom:   26  H  Default mass  1.0079,  mass used:  2.0140 amu
              Atom:   32  H  Default mass  1.0079,  mass used:  2.0140 amu
              Atom:   38  H  Default mass  1.0079,  mass used:  2.0140 amu


          CARTESIAN COORDINATES 

    NO.       ATOM           X           Y           Z

     1         C         -2.6838     -2.6328      0.6095
     2         C         -2.0677     -1.4480      1.0639
     3         C         -0.6721     -1.4334      1.3724
     4         C          0.1113     -2.5940      1.2618
     5         C         -0.4886     -3.7414      0.7745
     6         N          0.0720     -4.9748      0.5204
     7         C         -0.9576     -5.7744      0.0603
     8         C         -2.1775     -5.1016      0.0044
     9         C         -1.9230     -3.7653      0.4516
    10         H         -3.1178     -5.4841     -0.3099
    11         H         -0.7549     -6.7988     -0.2061
    12         H          1.1498     -2.5902      1.5609
    13         H         -3.7506     -2.6358      0.3848
    14         N         -0.0387     -0.2678      1.7802
    15         C         -0.7498      0.8346      1.9165
    16         C         -2.1529      0.8953      1.6567
    17         H         -2.6755      1.8374      1.7982
    18         H         -0.2127      1.7373      2.2410
    19         C         -2.7949     -0.2344      1.2295
    20         H         -3.8659     -0.2295      1.0086
    21         H          2.0257     -5.0530      0.1426
    22         C          2.4831     -1.0944     -0.6596
    23         H          1.6363     -1.7717     -0.8218
    24         H          2.2845     -0.1117     -1.1039
    25         H          3.4121     -1.5182     -1.0586
    26         H          1.8959     -0.5943      1.1885
    27         O          2.7253     -0.9286      0.7329
    28         C          2.4983     -6.2654      1.7117
    29         H          3.4151     -6.3902      2.2987
    30         H          1.6538     -5.9171      2.3196
    31         H          2.2463     -7.1774      1.1567
    32         H          3.0420     -4.2445      1.2394
    33         O          2.8449     -5.2663      0.7043
    34         C          4.7994     -3.1485      2.0856
    35         H          5.2927     -3.1239      1.1087
    36         H          5.0539     -2.2639      2.6819
    37         H          5.0364     -4.0699      2.6316
    38         H          3.0756     -2.3030      1.4019
    39         O          3.3753     -3.1637      1.9211

 General Reference for PM7:
 "Optimization of Parameters for Semiempirical Methods VI: More Modifications to the 
 NDDO Approximations and Re-optimization of Parameters", J. J. P. Stewart, J. Mol. Mod., 1:32, 19 (2013)
 https://link.springer.com/article/10.1007/s00894-012-1667-x

           Empirical Formula: C14 H20 N2 O3  =    39 atoms



      MOLECULAR POINT GROUP   :   C1  


 SINGLET STATE CALCULATION


      RHF CALCULATION, NO. OF DOUBLY OCCUPIED LEVELS = 52

  SCF CRITERION =    0.1000E-03


          HEAT OF FORMATION =     -87.798681 KCALS/MOLE


          CARTESIAN COORDINATE DERIVATIVES

   NUMBER  ATOM         X            Y            Z

     1       C      0.362424    -0.485110     0.022679
     2       C     -0.048784    -0.016690     0.008617
     3       C      0.204131    -0.053512     0.039460
     4       C     -0.516281     0.190373     0.018062
     5       C      0.331219     0.371721    -0.024964
     6       N     -1.553400    -5.824077    -4.821869
     7       C     -0.344080     0.313828    -0.006989
     8       C     -0.014223    -0.688679    -0.056565
     9       C     -0.156915     0.882494     0.031853
    10       H     -0.003649     0.074392     0.014930
    11       H      0.015053     0.055597     0.002029
    12       H     -0.106154    -0.237095     0.016729
    13       H     -0.091839    -0.169949    -0.006327
    14       N     -0.102099    -0.085933    -0.049844
    15       C      0.016804    -0.074907    -0.025076
    16       C      0.049676    -0.072415    -0.025134
    17       H     -0.004714     0.015944     0.005694
    18       H      0.010167    -0.010506    -0.000871
    19       C     -0.048944     0.102776     0.032464
    20       H     -0.038222    -0.039555    -0.023905
    21       H      8.440754    17.629556     4.149056
    22       C     -0.081229     0.011064     0.031444
    23       H     -0.075397    -0.023574    -0.021416
    24       H      0.073427     0.026272    -0.025864
    25       H      0.007107     0.027119     0.014397
    26       H     -0.113388     0.097546    -0.036925
    27       O      0.016121     0.023862    -0.126882
    28       C     -0.147347     0.018237    -0.093822
    29       H     -0.337771     0.092535    -0.222731
    30       H      0.267826     0.086974    -0.411001
    31       H     -0.173098     0.376110     0.034822
    32       H     -0.223326    -0.049687    -0.000019
    33       O     -5.647834   -12.362190     1.188364
    34       C      0.143725     0.037680     0.139869
    35       H     -0.148053    -0.050909    -0.026571
    36       H     -0.039205    -0.173884     0.025547
    37       H     -0.090009     0.051048     0.091866
    38       H      0.084826    -0.042726     0.034835
    39       O      0.085798    -0.022967     0.104876

 DIPOLE           X         Y         Z       TOTAL
 POINT-CHG.     3.714    10.280     1.863    11.088
 HYBRID        -0.058    -1.649     0.093     1.652
 SUM            3.656     8.632     1.956     9.576


          GRADIENT NORM =  25.46567



 ** GRADIENT IS VERY LARGE, BUT SINCE "LET" IS USED, CALCULATION WILL CONTINUE


                              **** WARNING ****

           GRADIENT IS VERY LARGE FOR A THERMO CALCULATION
           RESULTS ARE LIKELY TO BE INACCURATE IF THERE ARE
           ANY LOW-LYING VIBRATIONS (LESS THAN ABOUT 400CM-1)
           GRADIENT NORM SHOULD BE LESS THAN ABOUT 1.2 FOR THERMO
           TO GIVE ACCURATE RESULTS


          TIME FOR SCF CALCULATION =    0.22

          TIME FOR DERIVATIVES     =    0.09

          MOLECULAR WEIGHT =  268.35



          ROTATIONAL CONSTANTS IN CM(-1)

          A =    0.01413701   B =    0.00922576   C =    0.00610327



           PRINCIPAL MOMENTS OF INERTIA IN UNITS OF 10**(-40)*GRAM-CM**2

          A =     1980.1044   B =     3034.1933   C =     4586.5177


          ORIENTATION OF MOLECULE IN FORCE CALCULATION

    NO.       ATOM         X         Y         Z

     1          C      -1.4190   -2.7252   -0.2327
     2          C      -0.0085   -2.7252   -0.2327
     3          C       0.7127   -1.4911   -0.2327
     4          C       0.0444   -0.2560   -0.2628
     5          C      -1.3382   -0.2618   -0.2188
     6          N      -2.2112    0.8042   -0.1779
     7          C      -3.4808    0.2572   -0.1595
     8          C      -3.4664   -1.1367   -0.1865
     9          C      -2.0888   -1.5264   -0.2155
    10          H      -4.2996   -1.7962   -0.1810
    11          H      -4.3385    0.9089   -0.1273
    12          H       0.5976    0.6700   -0.3303
    13          H      -1.9599   -3.6718   -0.2411
    14          N       2.0997   -1.4696   -0.1900
    15          C       2.7591   -2.6119   -0.1841
    16          C       2.1136   -3.8857   -0.2124
    17          H       2.7222   -4.7858   -0.2135
    18          H       3.8564   -2.5540   -0.1497
    19          C       0.7467   -3.9331   -0.2295
    20          H       0.2119   -4.8868   -0.2403
    21          H      -1.5454    2.5291    0.5619
    22          C       1.7210    0.9839    2.4239
    23          H       0.7300    0.5568    2.2297
    24          H       2.3165    0.3118    3.0533
    25          H       1.6422    1.9757    2.8842
    26          H       2.4799    0.3443    0.6845
    27          O       2.4145    1.2025    1.2005
    28          C      -1.8518    3.6204   -1.1323
    29          H      -1.3672    4.5192   -1.5296
    30          H      -1.7323    2.7517   -1.7918
    31          H      -2.9067    3.8023   -0.8926
    32          H      -0.0691    3.0995   -0.0585
    33          O      -1.1858    3.3832    0.1457
    34          C       1.8916    4.1655   -0.2160
    35          H       1.8130    4.5254    0.8149
    36          H       2.9378    4.0014   -0.5012
    37          H       1.3970    4.8481   -0.9180
    38          H       1.6286    2.2089    0.2902
    39          O       1.2039    2.9157   -0.3581


    FIRST DERIVATIVES WILL BE USED IN THE CALCULATION OF SECOND DERIVATIVES

          ESTIMATED TIME TO COMPLETE CALCULATION =       72.21 SECONDS

    FOR POINT-GROUP C1   THERE ARE   1 UNIQUE SYMMETRY FUNCTIONS.

 STEP:   1 TIME =     0.15 SECS, INTEGRAL =      0.15 TIME LEFT:1209599.54
 STEP:   2 TIME =     0.19 SECS, INTEGRAL =      0.34 TIME LEFT:1209599.35
 STEP:   3 TIME =     0.12 SECS, INTEGRAL =      0.46 TIME LEFT:1209599.23
 STEP:   4 TIME =     0.18 SECS, INTEGRAL =      0.64 TIME LEFT:1209599.05
 STEP:   5 TIME =     0.24 SECS, INTEGRAL =      0.88 TIME LEFT:1209598.81
 STEP:   6 TIME =     0.12 SECS, INTEGRAL =      1.01 TIME LEFT:1209598.68
 STEP:   7 TIME =     0.16 SECS, INTEGRAL =      1.16 TIME LEFT:1209598.53
 STEP:   8 TIME =     0.12 SECS, INTEGRAL =      1.29 TIME LEFT:1209598.41
 STEP:   9 TIME =     0.12 SECS, INTEGRAL =      1.41 TIME LEFT:1209598.28
 STEP:  10 TIME =     0.12 SECS, INTEGRAL =      1.53 TIME LEFT:1209598.16
 STEP:  11 TIME =     0.15 SECS, INTEGRAL =      1.68 TIME LEFT:1209598.02
 STEP:  12 TIME =     0.12 SECS, INTEGRAL =      1.80 TIME LEFT:1209597.89
 STEP:  13 TIME =     0.12 SECS, INTEGRAL =      1.92 TIME LEFT:1209597.77
 STEP:  14 TIME =     0.12 SECS, INTEGRAL =      2.04 TIME LEFT:1209597.65
 STEP:  15 TIME =     0.14 SECS, INTEGRAL =      2.18 TIME LEFT:1209597.51
 STEP:  16 TIME =     0.12 SECS, INTEGRAL =      2.30 TIME LEFT:1209597.39
 STEP:  17 TIME =     0.12 SECS, INTEGRAL =      2.43 TIME LEFT:1209597.27
 STEP:  18 TIME =     0.12 SECS, INTEGRAL =      2.55 TIME LEFT:1209597.14
 STEP:  19 TIME =     0.12 SECS, INTEGRAL =      2.67 TIME LEFT:1209597.02
 STEP:  20 TIME =     0.12 SECS, INTEGRAL =      2.79 TIME LEFT:1209596.90
 STEP:  21 TIME =     0.12 SECS, INTEGRAL =      2.91 TIME LEFT:1209596.78
 STEP:  22 TIME =     0.12 SECS, INTEGRAL =      3.03 TIME LEFT:1209596.66
 STEP:  23 TIME =     0.12 SECS, INTEGRAL =      3.15 TIME LEFT:1209596.54
 STEP:  24 TIME =     0.12 SECS, INTEGRAL =      3.27 TIME LEFT:1209596.42
 STEP:  25 TIME =     0.12 SECS, INTEGRAL =      3.39 TIME LEFT:1209596.30
 STEP:  26 TIME =     0.12 SECS, INTEGRAL =      3.52 TIME LEFT:1209596.18
 STEP:  27 TIME =     0.12 SECS, INTEGRAL =      3.64 TIME LEFT:1209596.05
 STEP:  28 TIME =     0.12 SECS, INTEGRAL =      3.76 TIME LEFT:1209595.93
 STEP:  29 TIME =     0.12 SECS, INTEGRAL =      3.88 TIME LEFT:1209595.81
 STEP:  30 TIME =     0.12 SECS, INTEGRAL =      4.01 TIME LEFT:1209595.68
 STEP:  31 TIME =     0.12 SECS, INTEGRAL =      4.13 TIME LEFT:1209595.56
 STEP:  32 TIME =     0.12 SECS, INTEGRAL =      4.26 TIME LEFT:1209595.43
 STEP:  33 TIME =     0.12 SECS, INTEGRAL =      4.38 TIME LEFT:1209595.32
 STEP:  34 TIME =     0.12 SECS, INTEGRAL =      4.50 TIME LEFT:1209595.20
 STEP:  35 TIME =     0.12 SECS, INTEGRAL =      4.62 TIME LEFT:1209595.07
 STEP:  36 TIME =     0.12 SECS, INTEGRAL =      4.74 TIME LEFT:1209594.95
 STEP:  37 TIME =     0.12 SECS, INTEGRAL =      4.86 TIME LEFT:1209594.83
 STEP:  38 TIME =     0.12 SECS, INTEGRAL =      4.98 TIME LEFT:1209594.71
 STEP:  39 TIME =     0.14 SECS, INTEGRAL =      5.13 TIME LEFT:1209594.56
 STEP:  40 TIME =     0.12 SECS, INTEGRAL =      5.25 TIME LEFT:1209594.44
 STEP:  41 TIME =     0.12 SECS, INTEGRAL =      5.38 TIME LEFT:1209594.32
 STEP:  42 TIME =     0.12 SECS, INTEGRAL =      5.50 TIME LEFT:1209594.20
 STEP:  43 TIME =     0.12 SECS, INTEGRAL =      5.62 TIME LEFT:1209594.07
 STEP:  44 TIME =     0.14 SECS, INTEGRAL =      5.75 TIME LEFT:1209593.94
 STEP:  45 TIME =     0.12 SECS, INTEGRAL =      5.88 TIME LEFT:1209593.81
 STEP:  46 TIME =     0.12 SECS, INTEGRAL =      6.00 TIME LEFT:1209593.69
 STEP:  47 TIME =     0.14 SECS, INTEGRAL =      6.14 TIME LEFT:1209593.55
 STEP:  48 TIME =     0.12 SECS, INTEGRAL =      6.26 TIME LEFT:1209593.43
 STEP:  49 TIME =     0.12 SECS, INTEGRAL =      6.39 TIME LEFT:1209593.30
 STEP:  50 TIME =     0.12 SECS, INTEGRAL =      6.51 TIME LEFT:1209593.18
 STEP:  51 TIME =     0.12 SECS, INTEGRAL =      6.63 TIME LEFT:1209593.06
 STEP:  52 TIME =     0.12 SECS, INTEGRAL =      6.75 TIME LEFT:1209592.94
 STEP:  53 TIME =     0.12 SECS, INTEGRAL =      6.87 TIME LEFT:1209592.82
 STEP:  54 TIME =     0.12 SECS, INTEGRAL =      6.99 TIME LEFT:1209592.70
 STEP:  55 TIME =     0.12 SECS, INTEGRAL =      7.12 TIME LEFT:1209592.57
 STEP:  56 TIME =     0.12 SECS, INTEGRAL =      7.23 TIME LEFT:1209592.46
 STEP:  57 TIME =     0.12 SECS, INTEGRAL =      7.36 TIME LEFT:1209592.34
 STEP:  58 TIME =     0.12 SECS, INTEGRAL =      7.48 TIME LEFT:1209592.21
 STEP:  59 TIME =     0.12 SECS, INTEGRAL =      7.60 TIME LEFT:1209592.09
 STEP:  60 TIME =     0.12 SECS, INTEGRAL =      7.72 TIME LEFT:1209591.97
 STEP:  61 TIME =     0.12 SECS, INTEGRAL =      7.84 TIME LEFT:1209591.85
 STEP:  62 TIME =     0.12 SECS, INTEGRAL =      7.97 TIME LEFT:1209591.72
 STEP:  63 TIME =     0.12 SECS, INTEGRAL =      8.09 TIME LEFT:1209591.61
 STEP:  64 TIME =     0.12 SECS, INTEGRAL =      8.21 TIME LEFT:1209591.48
 STEP:  65 TIME =     0.12 SECS, INTEGRAL =      8.33 TIME LEFT:1209591.36
 STEP:  66 TIME =     0.12 SECS, INTEGRAL =      8.45 TIME LEFT:1209591.24
 STEP:  67 TIME =     0.12 SECS, INTEGRAL =      8.57 TIME LEFT:1209591.12
 STEP:  68 TIME =     0.12 SECS, INTEGRAL =      8.69 TIME LEFT:1209591.00
 STEP:  69 TIME =     0.12 SECS, INTEGRAL =      8.80 TIME LEFT:1209590.89
 STEP:  70 TIME =     0.12 SECS, INTEGRAL =      8.93 TIME LEFT:1209590.77
 STEP:  71 TIME =     0.12 SECS, INTEGRAL =      9.04 TIME LEFT:1209590.65
 STEP:  72 TIME =     0.12 SECS, INTEGRAL =      9.17 TIME LEFT:1209590.52
 STEP:  73 TIME =     0.12 SECS, INTEGRAL =      9.29 TIME LEFT:1209590.40
 STEP:  74 TIME =     0.12 SECS, INTEGRAL =      9.41 TIME LEFT:1209590.28
 STEP:  75 TIME =     0.12 SECS, INTEGRAL =      9.53 TIME LEFT:1209590.16
 STEP:  76 TIME =     0.12 SECS, INTEGRAL =      9.65 TIME LEFT:1209590.04
 STEP:  77 TIME =     0.12 SECS, INTEGRAL =      9.77 TIME LEFT:1209589.92
 STEP:  78 TIME =     0.12 SECS, INTEGRAL =      9.89 TIME LEFT:1209589.80
 STEP:  79 TIME =     0.12 SECS, INTEGRAL =     10.01 TIME LEFT:1209589.68
 STEP:  80 TIME =     0.12 SECS, INTEGRAL =     10.13 TIME LEFT:1209589.56
 STEP:  81 TIME =     0.12 SECS, INTEGRAL =     10.25 TIME LEFT:1209589.44
 STEP:  82 TIME =     0.12 SECS, INTEGRAL =     10.38 TIME LEFT:1209589.32
 STEP:  83 TIME =     0.12 SECS, INTEGRAL =     10.50 TIME LEFT:1209589.20
 STEP:  84 TIME =     0.12 SECS, INTEGRAL =     10.61 TIME LEFT:1209589.08
 STEP:  85 TIME =     0.12 SECS, INTEGRAL =     10.74 TIME LEFT:1209588.95
 STEP:  86 TIME =     0.12 SECS, INTEGRAL =     10.86 TIME LEFT:1209588.84
 STEP:  87 TIME =     0.12 SECS, INTEGRAL =     10.98 TIME LEFT:1209588.71
 STEP:  88 TIME =     0.12 SECS, INTEGRAL =     11.10 TIME LEFT:1209588.59
 STEP:  89 TIME =     0.12 SECS, INTEGRAL =     11.22 TIME LEFT:1209588.47
 STEP:  90 TIME =     0.12 SECS, INTEGRAL =     11.34 TIME LEFT:1209588.35
 STEP:  91 TIME =     0.12 SECS, INTEGRAL =     11.46 TIME LEFT:1209588.23
 STEP:  92 TIME =     0.12 SECS, INTEGRAL =     11.58 TIME LEFT:1209588.11
 STEP:  93 TIME =     0.12 SECS, INTEGRAL =     11.70 TIME LEFT:1209587.99
 STEP:  94 TIME =     0.12 SECS, INTEGRAL =     11.82 TIME LEFT:1209587.87
 STEP:  95 TIME =     0.12 SECS, INTEGRAL =     11.94 TIME LEFT:1209587.75
 STEP:  96 TIME =     0.12 SECS, INTEGRAL =     12.06 TIME LEFT:1209587.63
 STEP:  97 TIME =     0.12 SECS, INTEGRAL =     12.18 TIME LEFT:1209587.51
 STEP:  98 TIME =     0.12 SECS, INTEGRAL =     12.30 TIME LEFT:1209587.39
 STEP:  99 TIME =     0.12 SECS, INTEGRAL =     12.42 TIME LEFT:1209587.27
 STEP: 100 TIME =     0.12 SECS, INTEGRAL =     12.54 TIME LEFT:1209587.15
 STEP: 101 TIME =     0.12 SECS, INTEGRAL =     12.66 TIME LEFT:1209587.03
 STEP: 102 TIME =     0.12 SECS, INTEGRAL =     12.79 TIME LEFT:1209586.91
 STEP: 103 TIME =     0.12 SECS, INTEGRAL =     12.90 TIME LEFT:1209586.79
 STEP: 104 TIME =     0.12 SECS, INTEGRAL =     13.02 TIME LEFT:1209586.67
 STEP: 105 TIME =     0.12 SECS, INTEGRAL =     13.15 TIME LEFT:1209586.54
 STEP: 106 TIME =     0.12 SECS, INTEGRAL =     13.27 TIME LEFT:1209586.42
 STEP: 107 TIME =     0.12 SECS, INTEGRAL =     13.39 TIME LEFT:1209586.30
 STEP: 108 TIME =     0.12 SECS, INTEGRAL =     13.51 TIME LEFT:1209586.18
 STEP: 109 TIME =     0.12 SECS, INTEGRAL =     13.63 TIME LEFT:1209586.06
 STEP: 110 TIME =     0.12 SECS, INTEGRAL =     13.75 TIME LEFT:1209585.94
 STEP: 111 TIME =     0.12 SECS, INTEGRAL =     13.87 TIME LEFT:1209585.82
 STEP: 112 TIME =     0.12 SECS, INTEGRAL =     13.99 TIME LEFT:1209585.70
 STEP: 113 TIME =     0.12 SECS, INTEGRAL =     14.11 TIME LEFT:1209585.58
 STEP: 114 TIME =     0.12 SECS, INTEGRAL =     14.23 TIME LEFT:1209585.46
 STEP: 115 TIME =     0.12 SECS, INTEGRAL =     14.35 TIME LEFT:1209585.34
 STEP: 116 TIME =     0.12 SECS, INTEGRAL =     14.47 TIME LEFT:1209585.22
 STEP: 117 TIME =     0.12 SECS, INTEGRAL =     14.59 TIME LEFT:1209585.10

(To convert to Hartree/Bohr^2, multiply by (10^(-21) x N x a0^2)/(4.184 x 627.51) =  0.0642)


           FORCE MATRIX IN MILLIDYNES/ANGSTROM


                  C  1       C  2       C  3       C  4       C  5       N  6
 ------------------------------------------------------------------------------
     C    1  14.953648
     C    2   5.061520  15.827312
     C    3   1.368949   4.623023  15.989638
     C    4   0.842068   1.366039   5.387000  14.823890
     C    5   1.430059   0.750696   2.204569   5.967915  16.500007
     N    6   0.359565   0.252907   0.466340   1.713435   5.341078  12.246243
     C    7   0.492304   0.263849   0.160998   0.405454   2.531076   5.398153
     C    8   1.308943   0.368108   0.106758   0.173924   1.290358   2.239019
     C    9   6.716093   2.049436   0.674254   1.283839   3.249133   1.723731
     H   10   0.014760   0.008102   0.008754   0.016934   0.078234   0.118391
     H   11   0.021523   0.015987   0.010439   0.018614   0.120515   0.772945
     H   12   0.027611   0.079566   0.768782   3.420686   0.791722   0.050259
     H   13   3.400805   0.740870   0.074949   0.037176   0.102334   0.016701
     N   14   0.323430   1.469549   5.122199   1.747843   0.455987   0.102366
     C   15   0.406291   0.892708   2.194521   0.421503   0.285207   0.034424
     C   16   0.460326   1.719380   0.875628   0.253672   0.215587   0.076682
     H   17   0.013294   0.103515   0.016123   0.019049   0.018714   0.015173
     H   18   0.010792   0.014102   0.178443   0.019478   0.012502   0.006420
     C   19   1.458364   4.873888   1.356402   0.184776   0.210018   0.129047
     H   20   0.031270   0.715230   0.076225   0.011687   0.013113   0.010159
     H   21   0.007085   0.012255   0.020399   0.041187   0.101553   0.211828
     C   22   0.002352   0.003242   0.005846   0.029509   0.005262   0.005776
     H   23   0.004464   0.004480   0.010421   0.012001   0.009302   0.009825
     H   24   0.001230   0.002337   0.004911   0.005780   0.003259   0.002799
     H   25   0.001866   0.001801   0.002450   0.005048   0.002980   0.005338
     H   26   0.014610   0.018704   0.089104   0.029756   0.033208   0.032573
     O   27   0.013445   0.014935   0.022867   0.062260   0.028193   0.033881
     C   28   0.001367   0.001748   0.003031   0.008373   0.008975   0.084085
     H   29   0.000797   0.001081   0.000854   0.002399   0.002828   0.013429
     H   30   0.001189   0.002246   0.003132   0.006057   0.012844   0.017683
     H   31   0.000934   0.001154   0.001316   0.003833   0.006667   0.020361
     H   32   0.010502   0.009356   0.009704   0.038924   0.057844   0.142482
     O   33   0.006889   0.007995   0.011059   0.030603   0.042428   0.295924
     C   34   0.002298   0.004192   0.007606   0.015000   0.005500   0.017316
     H   35   0.000352   0.000671   0.000893   0.001535   0.000917   0.002978
     H   36   0.000487   0.001428   0.001618   0.002644   0.002163   0.003929
     H   37   0.000650   0.000915   0.001487   0.002974   0.001597   0.003457
     H   38   0.012501   0.013747   0.024694   0.034080   0.033945   0.040558
     O   39   0.011350   0.014039   0.021974   0.052302   0.034654   0.081641


                  C  7       C  8       C  9       H 10       H 11       H 12
 ------------------------------------------------------------------------------
     C    7  15.015230
     C    8   6.301780  14.689952
     C    9   2.038251   4.682548  16.636439
     H   10   0.725699   3.570365   0.669785   4.452422
     H   11   3.493806   0.624786   0.087555   0.016434   4.356004
     H   12   0.022099   0.013481   0.089513   0.002880   0.002737   4.442040
     H   13   0.018111   0.043226   0.764158   0.005700   0.003928   0.011072
     N   14   0.024935   0.030553   0.262384   0.002469   0.003870   0.039281
     C   15   0.042562   0.056893   0.304363   0.001153   0.005337   0.008717
     C   16   0.057795   0.063483   0.307309   0.003658   0.006770   0.004551
     H   17   0.004589   0.003963   0.012469   0.001431   0.001719   0.001283
     H   18   0.002457   0.006543   0.007910   0.001404   0.001650   0.003682
     C   19   0.098911   0.112612   0.430332   0.003392   0.007354   0.008280
     H   20   0.003729   0.004540   0.010067   0.002167   0.001180   0.002024
     H   21   0.076640   0.069516   0.048227   0.007042   0.014222   0.013235
     C   22   0.002297   0.001864   0.002243   0.000418   0.000488   0.012079
     H   23   0.005007   0.003319   0.003715   0.000881   0.000868   0.015501
     H   24   0.001158   0.001200   0.001152   0.000463   0.000305   0.003087
     H   25   0.001587   0.001130   0.001525   0.000307   0.000661   0.003411
     H   26   0.014140   0.009042   0.016717   0.001809   0.002195   0.048670
     O   27   0.013070   0.008358   0.013468   0.002019   0.002120   0.028842
     C   28   0.009571   0.008629   0.004636   0.000725   0.007872   0.004409
     H   29   0.003595   0.002784   0.002305   0.000874   0.002413   0.001096
     H   30   0.018086   0.010508   0.006418   0.001532   0.002471   0.001501
     H   31   0.011096   0.007509   0.003998   0.001369   0.005312   0.001206
     H   32   0.031139   0.027702   0.025971   0.001786   0.002858   0.029281
     O   33   0.032054   0.031496   0.023123   0.002746   0.007866   0.015682
     C   34   0.004190   0.004261   0.003142   0.000973   0.000917   0.014948
     H   35   0.000405   0.000839   0.000673   0.000255   0.000426   0.001642
     H   36   0.001316   0.001747   0.001707   0.000397   0.000282   0.001331
     H   37   0.000625   0.000873   0.000661   0.000298   0.000607   0.001238
     H   38   0.011499   0.007422   0.014572   0.001443   0.001977   0.040032
     O   39   0.021489   0.018762   0.017364   0.002267   0.002724   0.046128


                  H 13       N 14       C 15       C 16       H 17       H 18
 ------------------------------------------------------------------------------
     H   13   4.313258
     N   14   0.011023  14.800667
     C   15   0.006304   8.166112  15.496527
     C   16   0.012792   2.111328   4.683151  15.251052
     H   17   0.003733   0.076557   0.728863   3.423423   4.340795
     H   18   0.001441   0.934644   3.293779   0.672910   0.031067   4.255877
     C   19   0.038047   0.991520   1.874867   7.543648   0.788375   0.066755
     H   20   0.015917   0.037339   0.126612   0.745013   0.036938   0.009984
     H   21   0.003244   0.011333   0.004264   0.007059   0.003048   0.002985
     C   22   0.000579   0.047630   0.006980   0.003439   0.000630   0.001204
     H   23   0.001170   0.009060   0.003300   0.001855   0.000648   0.001080
     H   24   0.000571   0.010104   0.003176   0.002225   0.000987   0.000973
     H   25   0.000483   0.007676   0.003134   0.001386   0.000421   0.000415
     H   26   0.003105   0.128707   0.063061   0.033590   0.004375   0.009713
     O   27   0.002479   0.185806   0.049005   0.016932   0.002693   0.007700
     C   28   0.000633   0.002594   0.000677   0.001153   0.000743   0.000619
     H   29   0.000413   0.001193   0.000482   0.000947   0.000528   0.000608
     H   30   0.000846   0.002063   0.000792   0.001092   0.000656   0.000703
     H   31   0.000757   0.001344   0.001174   0.000761   0.000452   0.000316
     H   32   0.001937   0.045093   0.032795   0.003601   0.001702   0.001780
     O   33   0.002175   0.026176   0.021238   0.004139   0.002262   0.002233
     C   34   0.001219   0.006151   0.001733   0.002189   0.001125   0.000993
     H   35   0.000280   0.001113   0.000819   0.000853   0.000261   0.000303
     H   36   0.000384   0.002280   0.000509   0.000919   0.000323   0.000830
     H   37   0.000381   0.001278   0.000570   0.000804   0.000330   0.000234
     H   38   0.001971   0.064465   0.006670   0.008250   0.001488   0.002157
     O   39   0.003024   0.030291   0.005527   0.006779   0.002582   0.002639


                  C 19       H 20       H 21       C 22       H 23       H 24
 ------------------------------------------------------------------------------
     C   19  15.575809
     H   20   3.414838   4.288907
     H   21   0.008494   0.002837   3.718838
     C   22   0.001194   0.000557   0.007188  11.387636
     H   23   0.000861   0.000733   0.006292   3.345573   4.091019
     H   24   0.000324   0.000568   0.004607   3.359601   0.456043   4.107909
     H   25   0.000985   0.000298   0.003631   3.388659   0.449983   0.447252
     H   26   0.010984   0.003749   0.009994   0.934996   0.053557   0.051673
     O   27   0.006419   0.002011   0.028487   4.202411   0.708857   0.730399
     C   28   0.001128   0.000703   0.853273   0.005668   0.003455   0.002037
     H   29   0.000791   0.000288   0.112665   0.000705   0.000614   0.000382
     H   30   0.001044   0.000445   0.051961   0.001199   0.000351   0.000347
     H   31   0.000789   0.000562   0.055413   0.000852   0.000813   0.000311
     H   32   0.007819   0.002134   0.576100   0.036209   0.011053   0.006347
     O   33   0.005073   0.001907   3.230402   0.016955   0.008188   0.005249
     C   34   0.001036   0.000948   0.029769   0.014776   0.003664   0.002509
     H   35   0.000390   0.000264   0.006889   0.004365   0.000789   0.001390
     H   36   0.001074   0.000113   0.007748   0.002969   0.000609   0.001077
     H   37   0.000540   0.000433   0.006094   0.002826   0.000962   0.001133
     H   38   0.003749   0.001901   0.065790   0.249447   0.030869   0.040338
     O   39   0.005343   0.002611   0.178777   0.085822   0.014169   0.015992


                  H 25       H 26       O 27       C 28       H 29       H 30
 ------------------------------------------------------------------------------
     H   25   4.134991
     H   26   0.105815   3.894905
     O   27   0.755724   3.419603   7.783336
     C   28   0.002705   0.007332   0.020074  10.806955
     H   29   0.000521   0.001175   0.003451   3.387083   4.096922
     H   30   0.000730   0.002033   0.004498   3.338595   0.448405   4.029620
     H   31   0.000531   0.000872   0.003390   3.380512   0.437028   0.443295
     H   32   0.011651   0.050295   0.186229   0.701244   0.066926   0.064803
     O   33   0.006793   0.024920   0.077078   3.183754   0.706110   0.659193
     C   34   0.005744   0.019317   0.092646   0.035015   0.005845   0.005327
     H   35   0.004840   0.002521   0.012998   0.004879   0.000832   0.000671
     H   36   0.001011   0.005034   0.018045   0.008033   0.001742   0.001434
     H   37   0.001193   0.003801   0.019469   0.007543   0.001984   0.001889
     H   38   0.035602   0.243117   0.487011   0.033824   0.007304   0.007877
     O   39   0.015449   0.092510   0.676306   0.173566   0.024038   0.025205


                  H 31       H 32       O 33       C 34       H 35       H 36
 ------------------------------------------------------------------------------
     H   31   4.077651
     H   32   0.099436   2.679168
     O   33   0.705305   2.267270   8.935176
     C   34   0.005438   0.530483   0.147207  11.246862
     H   35   0.001271   0.053664   0.023867   3.384804   4.096235
     H   36   0.001589   0.100965   0.037985   3.381950   0.455650   4.105865
     H   37   0.001546   0.061531   0.021625   3.376029   0.449219   0.447404
     H   38   0.007462   0.539452   0.215394   0.842179   0.049335   0.067846
     O   39   0.032044   0.707137   2.031854   3.915826   0.708426   0.745387


                  H 37       H 38       O 39
 ------------------------------------------
     H   37   4.107406
     H   38   0.101941   2.950462
     O   39   0.743463   2.675392   8.302904


          HEAT OF FORMATION =     -87.798681 KCALS/MOLE


          TRIVIAL VIBRATIONS, SHOULD BE ZERO

  14.9597=TX  35.7846=TY  30.4157=TZ  -0.2558=RX -41.9718=RY -38.9570=RZ


      MOLECULAR POINT GROUP   :   C1  


           EIGENVECTORS  


   Root No.       1         2         3         4         5         6         7         8

                 1 A       2 A       3 A       4 A       5 A       6 A       7 A       8 A   

                  -0.1      -0.0      -0.0      -0.0      -0.0      -0.0      -0.0      -0.0
  
           1   -0.0024   -0.0077    0.0134    0.0065   -0.0256   -0.0306    0.0263   -0.0359
           2   -0.0248   -0.0092   -0.0050   -0.0278   -0.0117   -0.0060    0.0101   -0.0143
           3    0.0944   -0.2093    0.1560    0.0386   -0.0197    0.0101    0.0002    0.0112
           4   -0.0037   -0.0076    0.0137    0.0074   -0.0249   -0.0311    0.0263   -0.0386
           5   -0.0009    0.0101    0.0058   -0.0109   -0.0326    0.0132    0.0056    0.0469
           6    0.0606   -0.1754    0.0141    0.0239    0.0066    0.0212    0.0055    0.0154
           7   -0.0243   -0.0323    0.0009   -0.0100   -0.0059   -0.0489    0.0313   -0.0931
           8    0.0106    0.0250    0.0125   -0.0017   -0.0441    0.0231    0.0032    0.0780
           9    0.0448   -0.1722   -0.0891   -0.0137    0.0116    0.0185    0.0151    0.0474
          10   -0.0455   -0.0519   -0.0114   -0.0259    0.0135   -0.0648    0.0344   -0.1463
          11   -0.0007    0.0146    0.0064   -0.0102   -0.0336    0.0147    0.0047    0.0514
          12    0.0197   -0.2092   -0.1969   -0.0903    0.0208    0.0077    0.0341    0.1143
          13   -0.0481   -0.0520   -0.0083   -0.0244    0.0130   -0.0643    0.0343   -0.1454
          14   -0.0169   -0.0016   -0.0007   -0.0274   -0.0139   -0.0049    0.0090   -0.0094
          15   -0.0198   -0.1820   -0.1014   -0.0996    0.0147   -0.0202    0.0436    0.0674
          16   -0.0755   -0.0648   -0.0213   -0.0386    0.0324   -0.0804    0.0391   -0.1997
          17   -0.0301   -0.0211   -0.0031   -0.0334   -0.0008   -0.0149    0.0110   -0.0489
          18   -0.1884    0.0454   -0.2433   -0.1891    0.0355   -0.0485    0.0688    0.0822
          19   -0.0568   -0.0469   -0.0119   -0.0322    0.0217   -0.0718    0.0360   -0.1698
          20   -0.0598   -0.0504   -0.0173   -0.0455    0.0205   -0.0304    0.0149   -0.1079
          21   -0.2415    0.2496    0.0200   -0.1875   -0.0004   -0.0930    0.0623    0.0407
          22   -0.0305   -0.0271    0.0066   -0.0141   -0.0022   -0.0529    0.0308   -0.1052
          23   -0.0677   -0.0469   -0.0227   -0.0488    0.0216   -0.0323    0.0163   -0.1087
          24   -0.0281    0.0403    0.3053   -0.0343   -0.0429   -0.0560    0.0123   -0.0080
          25   -0.0233   -0.0257    0.0082   -0.0093   -0.0080   -0.0476    0.0298   -0.0883
          26   -0.0366   -0.0201   -0.0087   -0.0359   -0.0022   -0.0143    0.0118   -0.0419
          27    0.0693   -0.1993    0.1874   -0.0067   -0.0263   -0.0167    0.0122    0.0198
          28   -0.0184   -0.0170    0.0167   -0.0070   -0.0136   -0.0447    0.0285   -0.0753
          29   -0.0780   -0.0580   -0.0333   -0.0567    0.0354   -0.0420    0.0186   -0.1458
          30    0.0202    0.0735    0.4551    0.0300   -0.0651   -0.0489   -0.0160   -0.0449
          31   -0.0705   -0.0531   -0.0162   -0.0392    0.0324   -0.0817    0.0382   -0.2033
          32   -0.0736   -0.0689   -0.0210   -0.0510    0.0341   -0.0423    0.0171   -0.1519
          33   -0.3307    0.4302   -0.0262   -0.2383    0.0078   -0.1167    0.0747    0.0408
          34   -0.0574   -0.0561   -0.0154   -0.0335    0.0222   -0.0737    0.0351   -0.1760
          35    0.0046    0.0217    0.0015   -0.0075   -0.0378    0.0217    0.0035    0.0741
          36   -0.0041   -0.1386   -0.3114   -0.1203    0.0336    0.0245    0.0284    0.1906
          37    0.0122    0.0063    0.0182    0.0180   -0.0382   -0.0177    0.0232    0.0035
          38   -0.0322   -0.0175   -0.0077   -0.0344   -0.0044   -0.0133    0.0117   -0.0368
          39    0.0961   -0.1627    0.2091    0.0710   -0.0263    0.0194   -0.0144   -0.0006
          40   -0.0225   -0.0382   -0.0007   -0.0138   -0.0050   -0.0500    0.0321   -0.0921
          41    0.0269    0.0477    0.0235    0.0184   -0.0650    0.0423   -0.0006    0.1332
          42    0.0099    0.0098   -0.0786    0.0429    0.0092    0.0397   -0.0124    0.0241
          43   -0.0086   -0.0163    0.0102    0.0041   -0.0213   -0.0329    0.0275   -0.0441
          44    0.0346    0.0605    0.0290    0.0287   -0.0742    0.0531   -0.0036    0.1624
          45   -0.0420    0.2235   -0.0546    0.1687    0.0390    0.0787   -0.0557   -0.0738
          46    0.0089    0.0136    0.0227    0.0249   -0.0412   -0.0142    0.0221    0.0088
          47    0.0250    0.0481    0.0233    0.0200   -0.0641    0.0433   -0.0013    0.1337
          48   -0.0409    0.1401   -0.0462    0.1318    0.0534    0.0628   -0.0397   -0.0800
          49    0.0199    0.0270    0.0289    0.0371   -0.0537   -0.0010    0.0189    0.0473
          50    0.0327    0.0572    0.0275    0.0280   -0.0726    0.0521   -0.0035    0.1595
          51   -0.0698    0.1997   -0.0551    0.1371    0.0672    0.0616   -0.0449   -0.1055
          52   -0.0085   -0.0234    0.0087   -0.0001   -0.0202   -0.0350    0.0289   -0.0455
          53    0.0452    0.0830    0.0396    0.0480   -0.0891    0.0687   -0.0080    0.2044
          54   -0.0724    0.3790   -0.0305    0.2356    0.0391    0.0983   -0.0850   -0.1135
          55    0.0095    0.0155    0.0219    0.0255   -0.0416   -0.0128    0.0215    0.0118
          56    0.0076    0.0253    0.0120    0.0007   -0.0432    0.0235    0.0030    0.0757
          57    0.0177   -0.0732   -0.0058    0.0488    0.0303    0.0333   -0.0056   -0.0154
          58    0.0185    0.0352    0.0281    0.0401   -0.0547    0.0011    0.0178    0.0493
          59    0.0024    0.0146    0.0082   -0.0071   -0.0357    0.0158    0.0049    0.0543
          60    0.0207   -0.1294    0.0125    0.0015    0.0270    0.0151    0.0107    0.0084
          61    0.0970    0.0544   -0.0153    0.0139    0.0272   -0.0132    0.0093   -0.0342
          62    0.5314    0.2004   -0.0164   -0.1584    0.0336   -0.0925    0.0244   -0.0928
          63    0.4153    0.1569   -0.1219   -0.0848   -0.0025   -0.0247   -0.0036   -0.1038
          64    0.0026   -0.0184   -0.1044    0.0514    0.1291    0.0976   -0.1654    0.0792
          65   -0.0133   -0.0162   -0.0635   -0.0375    0.0942   -0.0102    0.0077    0.0207
          66   -0.0058   -0.0341   -0.0352   -0.0683   -0.0832   -0.0322    0.0179    0.0226
          67    0.0002   -0.0172   -0.0878    0.0427    0.0727    0.0766   -0.0988    0.0713
          68   -0.0110   -0.0162   -0.0784   -0.0248    0.1751    0.0203   -0.1112    0.0329
          69    0.0020   -0.0360   -0.0846   -0.0494    0.0267    0.0097   -0.0639    0.0375
          70    0.0152   -0.0118   -0.1119    0.0663    0.1164    0.1148   -0.1539    0.0816
          71   -0.0263   -0.0223   -0.0654   -0.0620    0.0719   -0.0464    0.1052    0.0092
          72   -0.0313   -0.0462   -0.0293   -0.1080   -0.0953   -0.0871    0.1111    0.0080
          73    0.0114   -0.0164   -0.1405    0.0778    0.2613    0.1513   -0.3290    0.1005
          74   -0.0227   -0.0226   -0.0768   -0.0507    0.1267   -0.0225    0.0207    0.0184
          75    0.0156   -0.0195   -0.0120   -0.0357   -0.1304    0.0037   -0.0389    0.0323
          76   -0.0041   -0.0158   -0.0411    0.0246   -0.0257    0.0224    0.0114    0.0706
          77    0.0119    0.0004   -0.0034   -0.0074   -0.0776    0.0129    0.0255    0.0172
          78   -0.0229   -0.0444   -0.0324   -0.0914   -0.0867   -0.0763    0.0888    0.0093
          79   -0.0163   -0.0247   -0.0650    0.0135    0.0431    0.0367   -0.0622    0.0646
          80    0.0120    0.0005   -0.0207   -0.0085   -0.0355    0.0109    0.0238    0.0218
          81   -0.0144   -0.0351   -0.0057   -0.0843   -0.1533   -0.0627    0.0781    0.0143
          82   -0.0255    0.0199    0.0782   -0.0499   -0.0302    0.0534   -0.0116    0.1569
          83   -0.0572   -0.0398    0.0385    0.1724   -0.0703   -0.0078   -0.0100   -0.0354
          84    0.0453    0.0028   -0.0983    0.1582   -0.0724    0.0278   -0.0243   -0.0982
          85   -0.1088   -0.0087    0.0724    0.1278   -0.0232   -0.1764    0.0577    0.3479
          86   -0.0859   -0.0567    0.0775    0.0716   -0.1089    0.2256   -0.0862   -0.1535
          87   -0.1297   -0.0745   -0.0164    0.1492   -0.1507    0.2738   -0.1110   -0.1320
          88   -0.0120    0.0259    0.1560   -0.3479   -0.0914    0.4324   -0.1170    0.0137
          89   -0.1603   -0.0865    0.0752    0.1783   -0.1157    0.1564   -0.0710   -0.0954
          90    0.1840    0.0664   -0.1325    0.0943   -0.0235   -0.1174    0.0360   -0.0456
          91   -0.0173    0.0218    0.0547    0.0246   -0.0125   -0.0408    0.0135    0.1826
          92   -0.0851   -0.0449   -0.0161    0.4256   -0.0224   -0.3960    0.1074    0.1878
          93    0.0942    0.0137   -0.1606    0.2941   -0.0284   -0.0938   -0.0013   -0.1544
          94    0.1082    0.0728    0.0223    0.0130    0.0057   -0.0011   -0.0015    0.0653
          95    0.0319    0.0131    0.0041   -0.0358   -0.0279    0.0274    0.0273   -0.0919
          96   -0.0290   -0.0214   -0.0260   -0.0094   -0.1143    0.0996   -0.0169    0.0164
          97    0.1286    0.0722    0.0064    0.0101    0.0234   -0.0271   -0.0010    0.0447
          98    0.2509    0.0899   -0.0056   -0.0800   -0.0055   -0.0413    0.0235   -0.1001
          99    0.0229   -0.0022   -0.0687    0.0786   -0.0887    0.0662   -0.0238   -0.0543
         100    0.0474    0.0508    0.0133    0.0021   -0.0660    0.0254    0.0617    0.0394
         101   -0.0205   -0.0175    0.0188   -0.0199    0.0956   -0.0035   -0.0416   -0.0385
         102    0.0045   -0.0111    0.1489   -0.0273    0.2121   -0.0196   -0.0247    0.0381
         103    0.0552    0.0584   -0.0429    0.0804   -0.0755    0.2831    0.4776    0.0373
         104   -0.0329   -0.0250   -0.0668   -0.0748   -0.1955   -0.0820   -0.2452   -0.0523
         105    0.0097   -0.0079    0.1744   -0.0020    0.3134    0.0265    0.0767    0.0426
         106    0.0428    0.0472    0.0286   -0.0191   -0.0592   -0.0449   -0.0518    0.0421
         107   -0.0334   -0.0341    0.0487   -0.0092    0.2723   -0.0088   -0.0219   -0.0178
         108   -0.0025   -0.0143    0.1901   -0.1120    0.1435   -0.2799   -0.4604    0.0344
         109    0.0499    0.0602    0.0488   -0.0460   -0.1388   -0.1238   -0.1853    0.0284
         110   -0.0063   -0.0037    0.0727    0.0183    0.2394    0.0655    0.1169   -0.0389
         111    0.0157   -0.0046    0.1759    0.0446    0.4026    0.1527    0.3043    0.0460
         112    0.0175    0.0190   -0.0107    0.0045    0.0261    0.0102   -0.0327    0.0812
         113   -0.0327   -0.0240   -0.0180   -0.0277   -0.0038    0.0028   -0.0166   -0.0493
         114    0.0200   -0.0069    0.0006   -0.0535   -0.1797    0.0068   -0.0157    0.0394
         115    0.0350    0.0329    0.0261   -0.0055    0.0384   -0.0212   -0.0028    0.0650
         116   -0.0189   -0.0090    0.0259   -0.0151    0.0678    0.0183   -0.0069   -0.0502
         117   -0.0095   -0.0211    0.0134   -0.0430   -0.1043    0.0360   -0.0225    0.0270


   Root No.       9        10        11        12        13        14        15        16

                 9 A      10 A      11 A      12 A      13 A      14 A      15 A      16 A   

                   0.0       0.0       0.0       0.0       0.0       0.0       0.0       0.0
  
           1    0.0149   -0.0187    0.0108    0.0056    0.0253   -0.0186    0.0322   -0.0029
           2   -0.0260   -0.0459   -0.0283   -0.0124    0.0337   -0.0964   -0.0484    0.0569
           3   -0.0174   -0.0099   -0.0091   -0.0378    0.0285    0.0052    0.0045    0.0289
           4    0.0159   -0.0178    0.0093    0.0041    0.0255   -0.0176    0.0325   -0.0019
           5   -0.0299   -0.0357   -0.0119   -0.0074    0.0446   -0.0902   -0.0537    0.0474
           6   -0.0774   -0.0342    0.0557   -0.0037    0.0306   -0.0015    0.0299   -0.0016
           7    0.0156   -0.0262   -0.0037   -0.0037    0.0139   -0.0213    0.0291    0.0080
           8   -0.0304   -0.0314   -0.0049   -0.0037    0.0514   -0.0883   -0.0525    0.0416
           9   -0.0344    0.0285   -0.0598   -0.1049    0.0801    0.0314    0.0763   -0.0225
          10    0.0172   -0.0354   -0.0158   -0.0079    0.0014   -0.0239    0.0278    0.0170
          11   -0.0277   -0.0345   -0.0136   -0.0075    0.0448   -0.0868   -0.0513    0.0449
          12   -0.0385    0.0561   -0.0879   -0.1526    0.1292    0.0668    0.1179   -0.0627
          13    0.0178   -0.0347   -0.0173   -0.0096    0.0031   -0.0227    0.0272    0.0196
          14   -0.0232   -0.0459   -0.0276   -0.0083    0.0322   -0.0953   -0.0397    0.0496
          15   -0.0354    0.0286   -0.0660   -0.1366    0.1158    0.0548    0.0966   -0.0044
          16    0.0161   -0.0419   -0.0240   -0.0144   -0.0041   -0.0247    0.0229    0.0308
          17   -0.0214   -0.0495   -0.0384   -0.0144    0.0264   -0.0949   -0.0406    0.0564
          18   -0.0945   -0.0112    0.0560   -0.0538    0.0994    0.0365    0.1026   -0.0287
          19    0.0173   -0.0376   -0.0177   -0.0085   -0.0016   -0.0231    0.0282    0.0196
          20   -0.0243   -0.0582   -0.0511   -0.0247    0.0185   -0.1004   -0.0560    0.0789
          21   -0.0128   -0.0102    0.0423   -0.0087    0.0408    0.0119    0.0650   -0.0686
          22    0.0199   -0.0287   -0.0078   -0.0017    0.0095   -0.0210    0.0325    0.0069
          23   -0.0260   -0.0597   -0.0487   -0.0237    0.0188   -0.1010   -0.0554    0.0795
          24    0.0988    0.0374   -0.1205   -0.0856    0.0154    0.0172   -0.0001   -0.0041
          25    0.0192   -0.0266   -0.0051   -0.0009    0.0132   -0.0205    0.0333    0.0053
          26   -0.0256   -0.0520   -0.0346   -0.0137    0.0275   -0.0992   -0.0484    0.0615
          27    0.0457    0.0399   -0.1277   -0.1360    0.0666    0.0382    0.0317    0.0328
          28    0.0219   -0.0249   -0.0041    0.0020    0.0136   -0.0202    0.0356   -0.0006
          29   -0.0277   -0.0640   -0.0543   -0.0283    0.0130   -0.1027   -0.0595    0.0890
          30    0.1668    0.0537   -0.1766   -0.0778   -0.0346    0.0031   -0.0552    0.0023
          31    0.0170   -0.0431   -0.0237   -0.0119   -0.0078   -0.0280    0.0216    0.0313
          32   -0.0231   -0.0639   -0.0640   -0.0337    0.0119   -0.1060   -0.0659    0.0984
          33   -0.0400   -0.0391    0.1369    0.0758    0.0115   -0.0097    0.0788   -0.1298
          34    0.0187   -0.0409   -0.0273   -0.0108   -0.0095   -0.0344    0.0267    0.0211
          35   -0.0289   -0.0298   -0.0080   -0.0062    0.0516   -0.0757   -0.0501    0.0371
          36   -0.0424    0.0862   -0.1094   -0.1657    0.1489    0.0924    0.1360   -0.1484
          37    0.0125   -0.0112    0.0221    0.0095    0.0331   -0.0135    0.0313   -0.0101
          38   -0.0244   -0.0500   -0.0355   -0.0152    0.0296   -0.0994   -0.0479    0.0613
          39   -0.0212   -0.0299    0.0370    0.0216   -0.0116   -0.0159   -0.0387    0.0387
          40    0.0128   -0.0278    0.0009   -0.0012    0.0129   -0.0212    0.0298    0.0056
          41   -0.0352   -0.0221    0.0096    0.0001    0.0664   -0.0828   -0.0525    0.0341
          42    0.0307    0.0680   -0.1460   -0.1335    0.0610    0.0261    0.0503    0.0063
          43    0.0149   -0.0200    0.0113    0.0069    0.0279   -0.0219    0.0317    0.0019
          44   -0.0355   -0.0185    0.0171    0.0061    0.0755   -0.0842   -0.0524    0.0321
          45    0.0086    0.0269   -0.1619   -0.1247    0.0410    0.0180    0.0287    0.0402
          46    0.0167   -0.0095    0.0183    0.0094    0.0418   -0.0175    0.0336   -0.0056
          47   -0.0318   -0.0208    0.0064    0.0002    0.0702   -0.0862   -0.0524    0.0376
          48   -0.1129   -0.0808    0.0642    0.0343   -0.0065   -0.0152    0.0136   -0.0006
          49    0.0148   -0.0036    0.0289    0.0150    0.0520   -0.0156    0.0350   -0.0115
          50   -0.0327   -0.0167    0.0132    0.0039    0.0772   -0.0852   -0.0521    0.0337
          51   -0.1419   -0.1174    0.1166    0.0837   -0.0299   -0.0255    0.0048   -0.0128
          52    0.0123   -0.0219    0.0158    0.0093    0.0264   -0.0223    0.0321    0.0003
          53   -0.0327   -0.0120    0.0273    0.0146    0.0910   -0.0861   -0.0518    0.0284
          54    0.0849    0.0713   -0.2984   -0.1985    0.0454    0.0282    0.0128    0.0903
          55    0.0159   -0.0091    0.0187    0.0094    0.0417   -0.0169    0.0330   -0.0063
          56   -0.0287   -0.0299   -0.0074   -0.0053    0.0546   -0.0897   -0.0529    0.0450
          57   -0.1613   -0.1140    0.2086    0.1248   -0.0223   -0.0373    0.0047   -0.0240
          58    0.0167   -0.0014    0.0231    0.0110    0.0548   -0.0143    0.0358   -0.0106
          59   -0.0284   -0.0336   -0.0120   -0.0075    0.0480   -0.0913   -0.0545    0.0480
          60   -0.2238   -0.1731    0.3732    0.2514   -0.0638   -0.0698   -0.0173   -0.0533
          61   -0.0575    0.1303    0.0858   -0.0868    0.0189    0.0774   -0.2271   -0.0961
          62    0.0329   -0.0687   -0.0568    0.0556   -0.0257   -0.0754    0.3036   -0.1948
          63   -0.0247    0.0159    0.0403   -0.0209   -0.1262   -0.1023    0.1026    0.0820
          64    0.0209   -0.0884   -0.1424    0.1087   -0.0239   -0.0245   -0.0324   -0.0048
          65    0.1567    0.2119    0.0705    0.0610   -0.0316    0.0159    0.0228    0.1050
          66    0.1569   -0.0351   -0.0546    0.1025   -0.0475   -0.0469   -0.1522   -0.1512
          67   -0.1378   -0.0241   -0.2457    0.1618   -0.0580   -0.0157   -0.0404   -0.0074
          68    0.4772    0.0558    0.3487   -0.1589    0.0502   -0.0215    0.0531    0.1334
          69    0.2670   -0.0220   -0.1411    0.3258   -0.0569   -0.0118   -0.1875   -0.2050
          70   -0.1288   -0.0705   -0.3542    0.3186   -0.0566    0.0415   -0.0805   -0.0835
          71   -0.0339    0.4292   -0.1350    0.3060   -0.1228    0.0148    0.0097    0.1277
          72    0.0943    0.1798   -0.0748    0.1660   -0.1152   -0.1106   -0.1238   -0.0568
          73    0.3948   -0.2483    0.0991   -0.0169    0.0568   -0.0470   -0.0186   -0.0023
          74    0.1814    0.3124    0.0547    0.1450   -0.0620   -0.0080    0.0334    0.1453
          75    0.1707   -0.2789    0.0223   -0.0948    0.0314   -0.0011   -0.1736   -0.2357
          76   -0.1963   -0.0140   -0.0768   -0.1675    0.0756   -0.1293    0.0576    0.0750
          77   -0.0970   -0.0765   -0.0081   -0.0936    0.0119    0.1202   -0.0362   -0.0299
          78    0.1482    0.0948   -0.0072    0.0259   -0.0233   -0.1230   -0.0945   -0.0800
          79   -0.0587    0.0075   -0.0373   -0.0741   -0.0499   -0.0943    0.0143    0.0938
          80   -0.0499   -0.0047   -0.0055   -0.0651    0.0212    0.0937   -0.0117   -0.0026
          81    0.0789   -0.0202   -0.0095   -0.0196   -0.0507   -0.0731   -0.1335   -0.1151
          82   -0.0136    0.0399    0.0353   -0.0453   -0.1701   -0.0185    0.0992    0.0075
          83    0.0360    0.0285    0.0083    0.0733    0.0267    0.0142    0.2147   -0.1904
          84   -0.0314    0.1028    0.0970   -0.0142   -0.0557   -0.0170   -0.0248    0.0759
          85    0.0263   -0.0547    0.0081   -0.0282   -0.2846    0.0204    0.1888    0.1139
          86    0.0126    0.1205    0.0377    0.0713    0.0874   -0.0282    0.2060   -0.2775
          87   -0.0365    0.1934    0.1298    0.0009   -0.0561   -0.0637    0.0503    0.0218
          88   -0.0303    0.0735    0.0346   -0.0240   -0.1639   -0.0259    0.2015    0.0202
          89    0.0210    0.1218    0.0432    0.0719    0.0718   -0.0323    0.2097   -0.2812
          90   -0.0152   -0.0122    0.0515   -0.0082   -0.1119    0.0422    0.0033    0.1917
          91   -0.0121    0.0395    0.0387   -0.0537   -0.1655   -0.0204    0.0654   -0.0072
          92    0.0780   -0.0866   -0.0226    0.0789   -0.0722    0.0662    0.2517   -0.1026
          93   -0.0570    0.1881    0.1357   -0.0546    0.0485   -0.0608   -0.2129   -0.0593
          94   -0.0503    0.1340    0.0846   -0.0806   -0.0414    0.0002   -0.1076   -0.1186
          95    0.0182   -0.0844   -0.0093    0.0776    0.0617    0.3293    0.0294    0.0337
          96    0.0233   -0.0815    0.0128    0.0481   -0.1853    0.1010    0.1335    0.2902
          97   -0.0492    0.1423    0.0757   -0.0920   -0.0465   -0.0856   -0.0823   -0.1555
          98    0.0334   -0.0793   -0.0446    0.0711    0.0146    0.0616    0.2119   -0.0997
          99   -0.0113    0.0275    0.0651    0.0113   -0.1272    0.0294    0.0737    0.1844
         100    0.0082    0.0587    0.0638    0.0490    0.1465    0.1653   -0.1035    0.0238
         101   -0.0577   -0.0095    0.0169   -0.0922   -0.1609    0.2033   -0.0744   -0.0773
         102   -0.0461   -0.0131    0.0115    0.0644    0.0591    0.0254    0.0144    0.0631
         103    0.1265   -0.0727    0.0323    0.0787    0.0873    0.2352   -0.1083    0.0792
         104   -0.0282   -0.0546   -0.0015   -0.0755   -0.2509    0.2892   -0.0767    0.0149
         105   -0.0476   -0.0064    0.0158    0.0608    0.0870   -0.0004    0.0151    0.0352
         106   -0.0261    0.0954    0.0722    0.0336    0.1517    0.1414   -0.1074    0.0029
         107   -0.1095    0.0422    0.0185   -0.2303   -0.3298    0.0140   -0.1216   -0.2438
         108   -0.1464    0.0973    0.0418    0.0833    0.1729    0.0323    0.0316    0.0756
         109   -0.0356    0.1126    0.0894    0.1465    0.3603    0.2787   -0.0649    0.1127
         110   -0.0535   -0.0042    0.0298   -0.0362   -0.0106    0.2433   -0.0515   -0.0670
         111   -0.0111   -0.0455    0.0064    0.0517    0.0606   -0.0152    0.0090    0.0137
         112   -0.0609    0.1080    0.0605   -0.1431   -0.1626   -0.0608   -0.1058   -0.0414
         113   -0.0176   -0.0477    0.0022   -0.0614   -0.1269    0.2426   -0.0934   -0.0615
         114    0.0617   -0.1340   -0.0405    0.0365   -0.1295    0.0470   -0.0764    0.0304
         115   -0.0475    0.1118    0.0634   -0.0966   -0.0471   -0.0192   -0.1595   -0.1301
         116   -0.0360   -0.0319    0.0198   -0.0114   -0.0389    0.2988   -0.0426    0.0071
         117    0.0449   -0.1274   -0.0294    0.0634   -0.1198    0.0939    0.0027    0.1613


   Root No.      17        18        19        20        21        22        23        24

                17 A      18 A      19 A      20 A      21 A      22 A      23 A      24 A   

                   0.1       0.1       0.1       0.2       0.2       0.2       0.2       0.3
  
           1   -0.0226   -0.0120   -0.0009   -0.0168   -0.0054    0.0163   -0.1197    0.0127
           2   -0.0317   -0.0133   -0.0108   -0.0279   -0.0089    0.0124   -0.1280    0.0048
           3   -0.0741   -0.0126    0.2213    0.0431    0.1140    0.0908   -0.0103   -0.0485
           4   -0.0255   -0.0111    0.0005   -0.0128   -0.0072    0.0152   -0.0915    0.0109
           5   -0.0267   -0.0205   -0.0095   -0.0364   -0.0015    0.0098   -0.1898   -0.0016
           6   -0.0303   -0.0003    0.1527   -0.0311   -0.0926   -0.0857   -0.0296   -0.2449
           7   -0.0146    0.0057   -0.0013   -0.0159   -0.0133    0.0198   -0.1089    0.0106
           8   -0.0296   -0.0287   -0.0080   -0.0355    0.0033    0.0065   -0.1761   -0.0012
           9   -0.0146    0.0001    0.0404   -0.0626   -0.1746   -0.0898   -0.0486   -0.3959
          10   -0.0125    0.0142   -0.0044   -0.0107   -0.0253    0.0217   -0.0695    0.0017
          11   -0.0290   -0.0267   -0.0126   -0.0314    0.0027    0.0069   -0.1737    0.0045
          12   -0.0543   -0.0376   -0.1186   -0.0090   -0.0771    0.0512   -0.0176   -0.0400
          13   -0.0198    0.0139   -0.0051    0.0019   -0.0181    0.0123   -0.0463    0.0094
          14   -0.0276   -0.0184   -0.0081   -0.0278   -0.0025    0.0087   -0.1509    0.0069
          15   -0.1533   -0.0305   -0.0694    0.2742    0.1669   -0.2146   -0.0256    0.0896
          16   -0.0350    0.0275   -0.0015    0.0220   -0.0353    0.0175    0.1161    0.0093
          17   -0.0359   -0.0105   -0.0106   -0.0160   -0.0128    0.0101   -0.0351    0.0037
          18   -0.1498   -0.0233    0.0614    0.2538    0.1972   -0.1629   -0.0191    0.1776
          19   -0.0268    0.0202   -0.0008    0.0110   -0.0309    0.0183    0.0608    0.0085
          20   -0.0502    0.0075   -0.0116    0.0016   -0.0325    0.0172    0.1203   -0.0010
          21   -0.0192   -0.0112    0.0540    0.0521    0.0268   -0.0368   -0.0113    0.0103
          22   -0.0172    0.0019   -0.0067   -0.0081   -0.0132    0.0133   -0.0979    0.0156
          23   -0.0503    0.0081   -0.0075    0.0009   -0.0317    0.0178    0.1100   -0.0009
          24    0.0129   -0.0141   -0.1686    0.0378   -0.0001   -0.0734   -0.0059    0.0418
          25   -0.0167   -0.0023   -0.0055   -0.0099   -0.0053    0.0104   -0.1358    0.0166
          26   -0.0308   -0.0093   -0.0100   -0.0253   -0.0096    0.0138   -0.1095    0.0063
          27   -0.1080   -0.0228   -0.0676    0.2291    0.1654   -0.1845   -0.0278    0.0306
          28   -0.0060   -0.0073   -0.0133   -0.0252   -0.0024    0.0097   -0.2614    0.0262
          29   -0.0643    0.0199   -0.0019    0.0206   -0.0485    0.0236    0.3158   -0.0128
          30    0.1336   -0.0050   -0.3912   -0.1771   -0.2272    0.0008    0.0308    0.0542
          31   -0.0337    0.0331    0.0017    0.0167   -0.0537    0.0308    0.1795    0.0001
          32   -0.0639    0.0234   -0.0169    0.0179   -0.0555    0.0254    0.2807   -0.0017
          33    0.0566    0.0030    0.2219   -0.1228   -0.1110    0.1246   -0.0014   -0.2174
          34    0.0119    0.0233   -0.0014   -0.0242   -0.0197    0.0202   -0.0345    0.0000
          35   -0.0387   -0.0386   -0.0231   -0.0443   -0.0081    0.0358   -0.1916    0.0295
          36    0.0280   -0.0815   -0.2486   -0.2938   -0.2028    0.4657    0.0767    0.2915
          37   -0.0234   -0.0172    0.0018   -0.0212   -0.0067    0.0145   -0.1394    0.0064
          38   -0.0321   -0.0107   -0.0151   -0.0248   -0.0093    0.0089   -0.1244    0.0072
          39   -0.0583   -0.0126    0.4801   -0.0783    0.2424    0.5410    0.0358    0.1045
          40   -0.0120    0.0057   -0.0039   -0.0169   -0.0112    0.0236   -0.1198    0.0095
          41   -0.0433   -0.0265   -0.0113   -0.0055    0.0023   -0.0051    0.0117   -0.0117
          42    0.0078    0.0072    0.1252   -0.1250   -0.2333   -0.1305   -0.0326   -0.3149
          43   -0.0464   -0.0183   -0.0069   -0.0033   -0.0157    0.0119    0.0174   -0.0023
          44   -0.0651   -0.0423   -0.0144    0.0020    0.0003   -0.0116    0.1037   -0.0185
          45   -0.0371   -0.0062    0.0866   -0.0217   -0.0606   -0.0543   -0.0154   -0.0785
          46   -0.0595   -0.0304   -0.0005    0.0077   -0.0128    0.0008    0.1040    0.0003
          47   -0.0624   -0.0391   -0.0117   -0.0041   -0.0046   -0.0105    0.0645   -0.0202
          48   -0.0006   -0.0187   -0.1682    0.0576    0.0823    0.0621   -0.0148   -0.1261
          49   -0.0744   -0.0417    0.0022    0.0182   -0.0193   -0.0129    0.2355   -0.0084
          50   -0.0725   -0.0469   -0.0093    0.0023   -0.0084   -0.0202    0.1504   -0.0261
          51    0.0147   -0.0391   -0.4725    0.1920    0.3443    0.2844   -0.0182   -0.1566
          52   -0.0424   -0.0169   -0.0128   -0.0045   -0.0163    0.0159    0.0057   -0.0170
          53   -0.1037   -0.0712   -0.0198    0.0187    0.0033   -0.0253    0.2697   -0.0284
          54   -0.0884   -0.0109    0.2644   -0.0210   -0.0561   -0.1275    0.0003    0.4109
          55   -0.0570   -0.0297   -0.0033    0.0075   -0.0094    0.0042    0.0948   -0.0012
          56   -0.0450   -0.0307   -0.0110   -0.0242   -0.0029    0.0023   -0.0922   -0.0093
          57    0.0186   -0.0107    0.0137   -0.0616   -0.1336   -0.1263   -0.0012   -0.0217
          58   -0.0807   -0.0419   -0.0078    0.0319   -0.0103   -0.0053    0.2953   -0.0177
          59   -0.0331   -0.0244   -0.0088   -0.0372   -0.0004    0.0096   -0.2053   -0.0056
          60    0.0606   -0.0182   -0.0092   -0.1442   -0.2890   -0.2943    0.0357    0.3988
          61   -0.0566    0.0199    0.0027    0.0304   -0.0468    0.0073    0.0546   -0.1838
          62    0.0547   -0.0576    0.0325    0.0562    0.0127   -0.0101    0.0036    0.0533
          63   -0.0525    0.0714   -0.0203   -0.0401    0.0348   -0.0116   -0.0146    0.0796
          64    0.1043   -0.0217    0.0133    0.0073    0.0312   -0.0296    0.0097    0.0079
          65    0.1013    0.1222    0.0056    0.0745   -0.0304    0.0209    0.0019    0.0037
          66    0.0081    0.0712    0.0025   -0.0323    0.0812   -0.0304    0.0138    0.0159
          67    0.1468    0.0047    0.0215    0.0249    0.0338   -0.0309    0.0143    0.0191
          68    0.1258    0.0545    0.0028    0.0542   -0.0093    0.0151    0.0064    0.0050
          69   -0.2586    0.0997   -0.0309   -0.0730    0.0263   -0.0122   -0.0160   -0.0376
          70   -0.0402    0.1514    0.0033    0.0416   -0.0436   -0.0019   -0.0117   -0.0217
          71    0.0566    0.0567    0.0017    0.0761   -0.0299    0.0211   -0.0009    0.0006
          72    0.0951   -0.1612    0.0082   -0.0662    0.1563   -0.0590    0.0317    0.0414
          73    0.0142   -0.0817   -0.0001   -0.0315    0.0306   -0.0354    0.0030   -0.0205
          74    0.0681    0.0095   -0.0007    0.0593   -0.0241    0.0189   -0.0015   -0.0050
          75    0.0670    0.3098    0.0131    0.0009    0.0654   -0.0231    0.0203    0.0315
          76    0.4976    0.0349    0.0368   -0.2297    0.2899   -0.1494    0.0993   -0.0762
          77    0.2035    0.4890    0.0165    0.2093   -0.0900    0.0780   -0.0059    0.0724
          78    0.1585   -0.0332    0.0157   -0.2121    0.2396   -0.1268    0.0570   -0.0461
          79    0.3454   -0.1691    0.0373    0.0410    0.0801   -0.0361    0.0299    0.0572
          80    0.1907    0.4365    0.0189    0.1302   -0.0564    0.0397    0.0069    0.0206
          81    0.1525    0.0322    0.0170   -0.0175    0.1131   -0.0358    0.0279    0.0444
          82   -0.0955    0.0898   -0.0140   -0.0134    0.0080    0.0008    0.0023   -0.0127
          83    0.0456   -0.0431    0.0215    0.0280    0.0108   -0.0116    0.0137   -0.0114
          84   -0.0458    0.0678   -0.0255   -0.0426    0.0101   -0.0051   -0.0018   -0.0072
          85   -0.1356    0.1564   -0.0345   -0.0727    0.0294   -0.0003   -0.0054    0.0112
          86    0.0660   -0.0635    0.0306    0.0562    0.0025   -0.0091    0.0076    0.0001
          87   -0.0481    0.1019   -0.0316   -0.0544    0.0140    0.0016   -0.0259    0.0450
          88   -0.1146    0.1175   -0.0175   -0.0595    0.0490   -0.0155    0.0202   -0.0295
          89    0.0627   -0.0506    0.0285    0.0659   -0.0096   -0.0017   -0.0045    0.0199
          90   -0.0702    0.0798   -0.0339   -0.0965    0.0451   -0.0221    0.0252   -0.0501
          91   -0.0913    0.0830   -0.0126    0.0008   -0.0029    0.0043   -0.0012   -0.0121
          92    0.0224   -0.0135    0.0104    0.0070    0.0215   -0.0153    0.0126   -0.0002
          93    0.0038   -0.0071   -0.0066    0.0454   -0.0488    0.0137   -0.0157   -0.0109
          94   -0.0542    0.0513    0.0052    0.0922   -0.0714    0.0282   -0.0100   -0.0473
          95    0.0146   -0.0680    0.0047   -0.1015    0.0764   -0.0484    0.0554   -0.1235
          96   -0.0126   -0.0128   -0.0248   -0.0771    0.0311   -0.0090    0.0132   -0.0160
          97   -0.0498    0.0267    0.0063    0.0732   -0.0418    0.0139   -0.0061   -0.0147
          98    0.0366   -0.0629    0.0234   -0.0005    0.0349   -0.0268    0.0451   -0.0570
          99   -0.0692    0.0896   -0.0372   -0.1079    0.0502   -0.0191    0.0117   -0.0166
         100    0.0137   -0.0435   -0.0007    0.0011    0.0122   -0.0092   -0.0105    0.0281
         101   -0.0243   -0.0669    0.0058   -0.0717    0.0494   -0.0328    0.0010    0.0107
         102    0.0660   -0.0418    0.0170    0.0726   -0.0424    0.0311   -0.0009   -0.0021
         103    0.0669   -0.1130    0.0043    0.0471   -0.0284    0.0067   -0.0178    0.0350
         104    0.0320   -0.2231    0.0211    0.0230   -0.0260   -0.0017   -0.0044   -0.0035
         105    0.0512    0.0079    0.0121    0.0443   -0.0199    0.0220    0.0007    0.0030
         106    0.0020   -0.0319   -0.0005   -0.0054    0.0203   -0.0125   -0.0100    0.0325
         107   -0.0583   -0.0955    0.0186   -0.0408    0.0416   -0.0360    0.0055   -0.0001
         108    0.0359    0.0214    0.0102    0.0294   -0.0082    0.0200    0.0021    0.0065
         109   -0.0084    0.0560   -0.0184   -0.0961    0.0793   -0.0365   -0.0108    0.0596
         110   -0.0571    0.0563   -0.0119   -0.1768    0.1239   -0.0664    0.0038    0.0347
         111    0.0534    0.0126    0.0122    0.0425   -0.0193    0.0196    0.0008    0.0037
         112    0.0666   -0.1643    0.0208    0.1157   -0.0584    0.0258   -0.0194    0.0543
         113    0.0209   -0.0460    0.0070   -0.0509    0.0504   -0.0258    0.0011    0.0425
         114    0.1624   -0.1310    0.0567    0.3756   -0.2600    0.1296   -0.0208   -0.0331
         115    0.0027   -0.0834    0.0170    0.0857   -0.0389    0.0127   -0.0150    0.0222
         116   -0.0259   -0.0350   -0.0050   -0.1212    0.0769   -0.0440    0.0023    0.0134
         117    0.1586   -0.2334    0.0383    0.2175   -0.1498    0.0768   -0.0084   -0.0167


   Root No.      25        26        27        28        29        30        31        32

                25 A      26 A      27 A      28 A      29 A      30 A      31 A      32 A   

                   0.3       0.4       0.4       0.5       0.6       0.7       0.7       0.7
  
           1    0.0144    0.0040    0.0785    0.0038    0.0021   -0.0082   -0.0651    0.0008
           2    0.0056   -0.0028   -0.0529   -0.0027    0.0010   -0.0103   -0.1455   -0.0031
           3   -0.0175   -0.0010    0.0074   -0.0101   -0.1547   -0.0112   -0.0171    0.0112
           4    0.0106    0.0038    0.0929    0.0037   -0.0003   -0.0099   -0.0767    0.0004
           5    0.0279    0.0052    0.1413   -0.0044    0.0016   -0.0008    0.0085   -0.0003
           6   -0.0879   -0.0344    0.0180   -0.0081    0.0076   -0.0045   -0.0241    0.0173
           7    0.0122    0.0119    0.1329    0.0031   -0.0010   -0.0090   -0.0829    0.0003
           8    0.0267    0.0023    0.1097   -0.0028    0.0018    0.0005    0.0028   -0.0009
           9   -0.1358   -0.0452   -0.0004   -0.0011    0.0620    0.0016    0.0074    0.0003
          10   -0.0037    0.0020   -0.0450   -0.0032    0.0039    0.0072    0.0307   -0.0005
          11    0.0207   -0.0058    0.0012   -0.0059   -0.0005    0.0051    0.0264   -0.0021
          12   -0.0136   -0.0195   -0.0083   -0.0117   -0.0180    0.0011   -0.0101   -0.0052
          13   -0.0017    0.0040   -0.0505   -0.0021   -0.0002    0.0097    0.0650    0.0005
          14   -0.0005   -0.0129   -0.2001   -0.0037    0.0031   -0.0054   -0.1170   -0.0035
          15    0.0351    0.0226    0.0088   -0.0042    0.0086    0.0072    0.0021   -0.0070
          16   -0.0085    0.0108    0.0585   -0.0005    0.0106    0.0183    0.1481   -0.0002
          17   -0.0080   -0.0074   -0.1238    0.0009   -0.0103   -0.0075   -0.1017   -0.0004
          18    0.0704    0.0290    0.0031    0.0240    0.5430    0.0407    0.0103   -0.0221
          19   -0.0063    0.0107    0.0241   -0.0009    0.0056    0.0184    0.1258   -0.0006
          20   -0.0207    0.0080   -0.0025    0.0002   -0.0071   -0.0048   -0.0536   -0.0013
          21    0.0083    0.0134   -0.0025    0.0002    0.0251    0.0067    0.0079   -0.0058
          22    0.0059   -0.0039   -0.1136   -0.0004   -0.0032    0.0121    0.0666   -0.0005
          23   -0.0211    0.0056   -0.0152    0.0003   -0.0020   -0.0058   -0.0579   -0.0006
          24    0.0148    0.0148   -0.0034   -0.0095   -0.2502   -0.0127    0.0114    0.0037
          25    0.0081   -0.0069   -0.1369   -0.0008   -0.0076    0.0089    0.0439   -0.0006
          26   -0.0018   -0.0078   -0.1724   -0.0030    0.0013   -0.0036   -0.1026   -0.0031
          27    0.0139    0.0237    0.0030   -0.0212   -0.4360   -0.0224   -0.0017    0.0097
          28    0.0244   -0.0223   -0.3230   -0.0028   -0.0092    0.0386    0.3167   -0.0079
          29   -0.0453    0.0302    0.2363    0.0031    0.0080   -0.0365   -0.3682    0.0079
          30    0.0077   -0.0163    0.0151    0.0204    0.4423    0.0193   -0.0190   -0.0080
          31   -0.0236    0.0260    0.1333   -0.0043   -0.0250    0.0381    0.4180   -0.0066
          32   -0.0409    0.0293    0.1431   -0.0024   -0.0318    0.0167    0.3019   -0.0103
          33   -0.0773   -0.0160    0.0067   -0.0219   -0.3020   -0.0167   -0.0175    0.0090
          34   -0.0220    0.0035   -0.3760   -0.0217    0.0123   -0.0033   -0.0082    0.0118
          35    0.0385   -0.0025    0.1927    0.0066   -0.0139    0.0112    0.0483   -0.0075
          36    0.0922    0.0065   -0.0192   -0.0105   -0.1471   -0.0098    0.0040    0.0079
          37    0.0318    0.0208    0.4514    0.0105    0.0107   -0.0269    0.0307    0.0114
          38   -0.0043   -0.0120   -0.2702   -0.0070   -0.0085   -0.0010   -0.2206   -0.0093
          39    0.0360    0.0128   -0.0265    0.0147    0.2230    0.0163    0.0266   -0.0167
          40    0.0124    0.0125    0.1406    0.0032   -0.0003   -0.0117   -0.1178    0.0005
          41    0.0091    0.0008    0.0198   -0.0035    0.0004    0.0080    0.0760    0.0035
          42   -0.1089   -0.0297   -0.0045    0.0190    0.1357    0.0096    0.0505   -0.0211
          43   -0.0087    0.0031    0.0665    0.0023    0.0000   -0.0110   -0.1173   -0.0024
          44   -0.0045   -0.0045   -0.0388   -0.0047    0.0026    0.0100    0.0914    0.0023
          45   -0.0331   -0.0197    0.0022    0.0008    0.0701    0.0046    0.0086    0.0009
          46   -0.0172   -0.0050    0.0022    0.0027   -0.0012   -0.0106   -0.1156   -0.0024
          47   -0.0022   -0.0039   -0.0059   -0.0062    0.0015    0.0096    0.0823    0.0011
          48   -0.0405   -0.0138    0.0043   -0.0027    0.0471    0.0029   -0.0036    0.0091
          49   -0.0371   -0.0163   -0.1083    0.0025    0.0069   -0.0088   -0.1237   -0.0030
          50   -0.0144   -0.0109   -0.0792   -0.0074    0.0071    0.0137    0.1040    0.0011
          51   -0.0349    0.0135    0.0056    0.0039   -0.0574   -0.0014    0.0023   -0.0097
          52   -0.0126    0.0023    0.0802    0.0031    0.0065   -0.0134   -0.1444   -0.0027
          53   -0.0291   -0.0246   -0.1755   -0.0140   -0.0017    0.0291    0.2951   -0.0010
          54    0.1206    0.0103    0.0077   -0.0110   -0.1132   -0.0060   -0.0270    0.0052
          55   -0.0155   -0.0043    0.0058    0.0032    0.0007   -0.0102   -0.1099   -0.0018
          56    0.0153    0.0014    0.1028   -0.0063   -0.0000    0.0019    0.0187   -0.0015
          57   -0.0131   -0.0132    0.0034   -0.0046    0.0344    0.0012   -0.0102    0.0110
          58   -0.0497   -0.0142   -0.1317    0.0078    0.0008   -0.0201   -0.2797   -0.0045
          59    0.0329    0.0065    0.1863   -0.0095    0.0011    0.0070    0.1080   -0.0001
          60    0.1258    0.0305   -0.0140   -0.0026   -0.0835    0.0007    0.0069   -0.0121
          61    0.5296   -0.0898   -0.0036   -0.2231   -0.0189    0.3634   -0.0326   -0.1006
          62   -0.1499    0.0602    0.0139   -0.0008    0.0013    0.0183    0.0031   -0.0507
          63   -0.2438    0.0899    0.0175   -0.1905    0.0076    0.2959   -0.0198   -0.0061
          64   -0.0245   -0.1188    0.0112   -0.0657   -0.0057   -0.0062    0.0009   -0.0226
          65    0.0074    0.0161   -0.0058    0.0357   -0.0049    0.0223   -0.0055   -0.0215
          66   -0.0192   -0.0764    0.0085    0.0037   -0.0023    0.0092   -0.0001   -0.0120
          67   -0.0395   -0.1978    0.0170   -0.0934   -0.0028   -0.0032   -0.0002   -0.0527
          68    0.0145    0.0264   -0.0056    0.0316   -0.0059    0.0246   -0.0072   -0.0110
          69    0.0378    0.2717   -0.0184    0.1465   -0.0170   -0.0067    0.0093    0.1077
          70    0.0059    0.1150   -0.0118    0.1049   -0.0089    0.0436   -0.0097   -0.0229
          71    0.0140    0.0243   -0.0046    0.0105   -0.0072    0.0124   -0.0060   -0.0235
          72   -0.0440   -0.3013    0.0331   -0.1867   -0.0021   -0.0478    0.0101   -0.0178
          73    0.0095   -0.0100    0.0071   -0.1114   -0.0049   -0.0598    0.0090    0.0245
          74    0.0208    0.0458   -0.0052   -0.0157   -0.0050   -0.0189    0.0003    0.0341
          75   -0.0367   -0.1108    0.0057    0.1087   -0.0036    0.0862   -0.0122   -0.1152
          76    0.1551    0.4976   -0.0242    0.0325   -0.0057   -0.0480    0.0037    0.0928
          77   -0.0464   -0.1425    0.0022    0.0351   -0.0173   -0.0017   -0.0082    0.0537
          78    0.0519    0.1822   -0.0014    0.0544    0.0123    0.0337   -0.0075   -0.0672
          79   -0.0722   -0.3684    0.0307   -0.1176   -0.0050    0.0045    0.0003   -0.0319
          80    0.0021    0.0323   -0.0113    0.0752   -0.0063    0.0230   -0.0082   -0.0026
          81   -0.0467   -0.2025    0.0172   -0.0308   -0.0007    0.0055    0.0012   -0.0045
          82    0.0376    0.0074   -0.0045   -0.0101    0.0104   -0.0985    0.0030   -0.0783
          83    0.0591   -0.0370    0.0013    0.0588    0.0081   -0.0750    0.0121    0.0298
          84    0.0216   -0.0116   -0.0054   -0.0160   -0.0063   -0.0429    0.0048    0.0551
          85   -0.0633    0.0522    0.0073   -0.2057   -0.0107    0.2038   -0.0319   -0.0694
          86    0.0322   -0.0218    0.0048    0.0601    0.0143   -0.0507    0.0151    0.0809
          87   -0.1597    0.0729    0.0122   -0.2244   -0.0246    0.3526   -0.0307    0.1950
          88    0.1170   -0.0649   -0.0017    0.0170    0.0302   -0.2912    0.0334    0.0227
          89   -0.0439    0.0434    0.0083   -0.0228    0.0123    0.0858   -0.0089   -0.1560
          90    0.1719   -0.1307   -0.0130    0.0993   -0.0043   -0.2853    0.0388    0.3225
          91    0.0340    0.0211   -0.0072   -0.0098    0.0133   -0.1594    0.0046   -0.1621
          92    0.0268   -0.0289    0.0129    0.0167    0.0231   -0.0184    0.0229    0.1309
          93    0.0221    0.0325   -0.0243    0.0743   -0.0079   -0.3503    0.0074   -0.3598
          94    0.1209    0.1032   -0.0063   -0.0492   -0.0003   -0.0508   -0.0065   -0.1078
          95    0.3951   -0.1733   -0.0016    0.0242   -0.0075    0.1987   -0.0459    0.0489
          96    0.0351   -0.0890   -0.0019    0.3494   -0.0355    0.0062   -0.0048   -0.1825
          97    0.0401    0.0414   -0.0092   -0.0355    0.0101   -0.0901    0.0033   -0.0567
          98    0.2078   -0.1074   -0.0029    0.0806    0.0048   -0.0154    0.0037   -0.0004
          99    0.0528   -0.0727   -0.0031    0.0344   -0.0121   -0.0365    0.0044    0.0624
         100   -0.0986    0.0067    0.0003    0.0587    0.0040    0.0151   -0.0029    0.1038
         101   -0.0713    0.0500    0.0002   -0.0387    0.0020   -0.0235    0.0046   -0.0481
         102    0.0176    0.0425   -0.0021    0.0330    0.0012    0.0432   -0.0044   -0.0474
         103   -0.1442    0.0983   -0.0012    0.0974   -0.0108    0.0893   -0.0090    0.0621
         104   -0.0699    0.2046   -0.0043    0.0263   -0.0186    0.0814   -0.0009   -0.3180
         105    0.0158   -0.0047   -0.0006    0.0142    0.0067    0.0158   -0.0033    0.0357
         106   -0.1067   -0.0115   -0.0005    0.0974    0.0074    0.0288   -0.0068    0.2120
         107   -0.0276   -0.0106   -0.0078    0.1511    0.0158    0.0397   -0.0136    0.4511
         108    0.0051    0.0040   -0.0015    0.0633    0.0040    0.0693   -0.0106    0.0112
         109   -0.2005   -0.0239    0.0074   -0.0588    0.0174   -0.1149    0.0213    0.0854
         110   -0.1457    0.0029    0.0071   -0.1970    0.0145   -0.1722    0.0312   -0.1885
         111    0.0066    0.0146   -0.0003   -0.0324    0.0042   -0.0103    0.0051   -0.1571
         112   -0.1422   -0.1167    0.0122    0.4817   -0.0405    0.1691    0.0150   -0.0150
         113   -0.1263   -0.0229    0.0002   -0.2323    0.0243   -0.1725    0.0136    0.0813
         114    0.1059    0.2126   -0.0234   -0.3572    0.0529   -0.2354    0.0088    0.2334
         115   -0.0713    0.0164   -0.0046    0.0816    0.0091   -0.0037    0.0009    0.1248
         116   -0.0827    0.0440    0.0016   -0.0265   -0.0016    0.0047    0.0013   -0.0614
         117    0.0440    0.1085   -0.0053    0.0932   -0.0092    0.0705   -0.0042   -0.0306


   Root No.      33        34        35        36        37        38        39        40

                33 A      34 A      35 A      36 A      37 A      38 A      39 A      40 A   

                   0.8       0.8       0.8       0.8       0.8       0.9       1.0       1.0
  
           1    0.0049    0.0046   -0.0004    0.0027    0.0129    0.0150    0.0120    0.0521
           2    0.0120    0.0059   -0.0450    0.0000    0.0109    0.0025    0.0066    0.0888
           3   -0.0507   -0.0522   -0.0129   -0.0244   -0.1575    0.0420   -0.0290    0.0312
           4    0.0067    0.0061   -0.0104    0.0018    0.0135    0.0168    0.0086    0.0295
           5    0.0015   -0.0061    0.0277   -0.0027   -0.0065   -0.0197   -0.0112   -0.0330
           6   -0.1355   -0.1349   -0.0499   -0.0573   -0.3462    0.0764   -0.0054    0.0420
           7    0.0015   -0.0020   -0.0306   -0.0014   -0.0066   -0.0134   -0.0196   -0.1057
           8    0.0064    0.0067   -0.0251    0.0009    0.0076   -0.0097    0.0029    0.0221
           9   -0.0027    0.0041    0.0070    0.0039    0.0538   -0.0212   -0.1524    0.0135
[...]
 FORCE CONSTANT      0.2645

 VIBRATION         79   79A           ATOM PAIR      ENERGY CONTRIBUTION    RADIAL
 FREQUENCY          1350.72         C 34 -- H 35         +31.9% ( 55.2%)      0.8%
 TRANSITION DIPOLE   0.3177         C 34 -- H 36         +29.5% ( 53.1%)      0.6%
 TRAVEL (Ang.)       0.3699         C 34 -- H 37         +28.5% ( 52.2%)      0.6%
 REDUCED MASS        0.3649         C 34 -- O 39          +4.2% ( 20.0%)     94.3%
 EFFECTIVE MASS      1.8015
 FORCE CONSTANT      0.3923

 VIBRATION         80   80A           ATOM PAIR      ENERGY CONTRIBUTION    RADIAL
 FREQUENCY          1364.32         C 22 -- H 23         +32.8% ( 57.0%)      1.0%
 TRANSITION DIPOLE   0.2411         C 22 -- H 25         +29.3% ( 53.9%)      0.6%
 TRAVEL (Ang.)       0.3470         C 22 -- H 24         +29.1% ( 53.7%)      1.0%
 REDUCED MASS        0.4106         C 22 -- O 27          +5.2% ( 22.7%)     99.5%
 EFFECTIVE MASS      1.9718
 FORCE CONSTANT      0.4503

 VIBRATION         81   81A           ATOM PAIR      ENERGY CONTRIBUTION    RADIAL
 FREQUENCY          1370.92         C  8 -- C  9          +8.4% ( 45.6%)     72.4%
 TRANSITION DIPOLE   2.5196         N  6 -- C  7          +8.3% ( 45.3%)     98.6%
 TRAVEL (Ang.)       0.2262         C  7 -- C  9          +8.1% ( 44.8%)     89.6%
 REDUCED MASS        0.9609         C  7 -- C  8          +7.6% ( 43.2%)      1.6%
 EFFECTIVE MASS      9.8736
 FORCE CONSTANT      1.0640

 VIBRATION         82   82A           ATOM PAIR      ENERGY CONTRIBUTION    RADIAL
 FREQUENCY          1404.08         H 32 -- O 33         +17.9% ( 58.3%)     99.3%
 TRANSITION DIPOLE   4.5323         H 32 -- O 39         +13.0% ( 49.7%)     66.6%
 TRAVEL (Ang.)       0.3602         H 38 -- O 39         +10.6% ( 44.8%)     95.2%
 REDUCED MASS        0.3701         O 27 -- H 38          +7.5% ( 37.9%)     95.3%
 EFFECTIVE MASS      5.5421
 FORCE CONSTANT      0.4299

 VIBRATION         83   83A           ATOM PAIR      ENERGY CONTRIBUTION    RADIAL
 FREQUENCY          1406.14         C  2 -- C 19         +11.3% ( 45.3%)     60.4%
 TRANSITION DIPOLE   2.6739         C 15 -- H 18         +10.1% ( 42.7%)      1.3%
 TRAVEL (Ang.)       0.2809         C  1 -- C  2          +8.3% ( 38.9%)     23.6%
 REDUCED MASS        0.6078         H 32 -- O 33          +7.6% ( 37.2%)     99.5%
 EFFECTIVE MASS      7.1658
 FORCE CONSTANT      0.7081

 VIBRATION         84   84A           ATOM PAIR      ENERGY CONTRIBUTION    RADIAL
 FREQUENCY          1425.98         N  6 -- C  7          +8.1% ( 40.7%)     93.2%
 TRANSITION DIPOLE   2.4225         C  5 -- N  6          +6.2% ( 35.6%)     17.7%
 TRAVEL (Ang.)       0.2801         C  7 -- C  8          +6.1% ( 35.2%)      4.8%
 REDUCED MASS        0.6028         C  5 -- C  7          +5.7% ( 34.3%)     71.8%
 EFFECTIVE MASS      8.2230
 FORCE CONSTANT      0.7221

 VIBRATION         85   85A           ATOM PAIR      ENERGY CONTRIBUTION    RADIAL
 FREQUENCY          1455.91         C  3 -- N 14          +8.3% ( 43.8%)     46.4%
 TRANSITION DIPOLE   2.5324         C  3 -- C  4          +7.7% ( 42.2%)     99.6%
 TRAVEL (Ang.)       0.2352         C 19 -- H 20          +7.1% ( 40.4%)      0.1%
 REDUCED MASS        0.8373         C  2 -- C 19          +6.9% ( 40.0%)     62.8%
 EFFECTIVE MASS     10.3163
 FORCE CONSTANT      1.0457

 VIBRATION         86   86A           ATOM PAIR      ENERGY CONTRIBUTION    RADIAL
 FREQUENCY          1501.58         C  2 -- C  3         +12.4% ( 54.6%)     93.7%
 TRANSITION DIPOLE   2.4416         C  7 -- C  8         +12.1% ( 53.9%)    100.0%
 TRAVEL (Ang.)       0.1816         C  3 -- N 14         +10.4% ( 50.0%)     94.6%
 REDUCED MASS        1.3617         C  2 -- C 19          +5.7% ( 37.0%)     63.2%
 EFFECTIVE MASS     11.2199
 FORCE CONSTANT      1.8089

 VIBRATION         87   87A           ATOM PAIR      ENERGY CONTRIBUTION    RADIAL
 FREQUENCY          1522.74         C  7 -- C  8         +19.1% ( 72.2%)     97.0%
 TRANSITION DIPOLE   1.1013         C  2 -- C  3          +8.7% ( 48.6%)     93.8%
 TRAVEL (Ang.)       0.1486         C  5 -- C  7          +7.4% ( 44.9%)     61.5%
 REDUCED MASS        2.0046         C  5 -- C  8          +7.3% ( 44.7%)     41.0%
 EFFECTIVE MASS     11.5903
 FORCE CONSTANT      2.7386

 VIBRATION         88   88A           ATOM PAIR      ENERGY CONTRIBUTION    RADIAL
 FREQUENCY          1581.71         C  2 -- C  3         +19.5% ( 66.3%)      7.5%
 TRANSITION DIPOLE   2.0003         C  3 -- C  4         +16.1% ( 60.2%)     99.4%
 TRAVEL (Ang.)       0.1341         C  1 -- C  2         +13.1% ( 54.4%)     86.3%
 REDUCED MASS        2.3692         C  2 -- C 19         +12.1% ( 52.2%)     96.4%
 EFFECTIVE MASS     11.7892
 FORCE CONSTANT      3.4922

 VIBRATION         89   89A           ATOM PAIR      ENERGY CONTRIBUTION    RADIAL
 FREQUENCY          1607.60         C 15 -- C 16         +15.4% ( 57.7%)     99.8%
 TRANSITION DIPOLE   3.3755         N 14 -- C 15         +15.3% ( 57.6%)     89.9%
 TRAVEL (Ang.)       0.1500         C 16 -- C 19         +14.4% ( 55.8%)     86.0%
 REDUCED MASS        1.8642         C 15 -- H 18          +7.4% ( 40.1%)      1.1%
 EFFECTIVE MASS     12.1323
 FORCE CONSTANT      2.8386

 VIBRATION         90   90A           ATOM PAIR      ENERGY CONTRIBUTION    RADIAL
 FREQUENCY          1674.37         C  4 -- C  5         +19.4% ( 72.7%)     99.5%
 TRANSITION DIPOLE   3.8959         C  5 -- C  7         +11.7% ( 56.4%)     92.4%
 TRAVEL (Ang.)       0.1283         C  5 -- N  6         +11.1% ( 55.0%)     72.3%
 REDUCED MASS        2.4463         C  5 -- C  9         +10.7% ( 54.1%)     14.3%
 EFFECTIVE MASS     11.1212         C  5 -- C  8         +10.2% ( 52.8%)     68.2%
 FORCE CONSTANT      4.0408

 VIBRATION         91   91A           ATOM PAIR      ENERGY CONTRIBUTION    RADIAL
 FREQUENCY          1680.33         H 38 -- O 39         +29.8% ( 71.0%)     99.9%
 TRANSITION DIPOLE   4.4833         O 27 -- H 38         +23.8% ( 63.5%)     95.4%
 TRAVEL (Ang.)       0.2359         H 32 -- O 33         +11.1% ( 43.3%)     98.6%
 REDUCED MASS        0.7209         H 32 -- O 39          +9.5% ( 40.1%)     78.8%
 EFFECTIVE MASS      4.0214
 FORCE CONSTANT      1.1992

 VIBRATION         92   92A           ATOM PAIR      ENERGY CONTRIBUTION    RADIAL
 FREQUENCY          1714.81         C  1 -- C  9         +14.3% ( 57.2%)     99.7%
 TRANSITION DIPOLE   2.6262         N 14 -- C 15         +13.5% ( 55.5%)     99.9%
 TRAVEL (Ang.)       0.1501         C  5 -- C  9          +8.8% ( 44.9%)     57.9%
 REDUCED MASS        1.7458         C  8 -- C  9          +8.7% ( 44.7%)     84.7%
 EFFECTIVE MASS     12.2352
 FORCE CONSTANT      3.0246

 VIBRATION         93   93A           ATOM PAIR      ENERGY CONTRIBUTION    RADIAL
 FREQUENCY          1746.58         C  1 -- C  9         +17.2% ( 62.4%)     98.4%
 TRANSITION DIPOLE   0.7049         C 16 -- C 19         +11.9% ( 51.8%)     98.3%
 TRAVEL (Ang.)       0.1411         C  8 -- C  9          +9.6% ( 46.7%)     84.3%
 REDUCED MASS        1.9404         C  7 -- C  9          +9.3% ( 45.9%)     96.6%
 EFFECTIVE MASS     12.0719
 FORCE CONSTANT      3.4876

 VIBRATION         94   94A           ATOM PAIR      ENERGY CONTRIBUTION    RADIAL
 FREQUENCY          1863.56         H 21 -- O 33         +86.5% ( 93.1%)     98.9%
 TRANSITION DIPOLE   2.6638         H 32 -- O 33          +5.7% ( 23.9%)     49.8%
 TRAVEL (Ang.)       0.1568         H 32 -- O 39          +4.2% ( 20.6%)     99.3%
 REDUCED MASS        1.4721         C 28 -- O 33          +1.2% ( 11.0%)      1.7%
 EFFECTIVE MASS      2.7574
 FORCE CONSTANT      3.0122

 VIBRATION         95   95A           ATOM PAIR      ENERGY CONTRIBUTION    RADIAL
 FREQUENCY          1889.06         H 26 -- O 27         +90.0% ( 96.2%)     99.7%
 TRANSITION DIPOLE   2.6202         O 27 -- H 38          +4.2% ( 20.7%)     14.8%
 TRAVEL (Ang.)       0.1499         H 38 -- O 39          +3.2% ( 18.2%)     99.5%
 REDUCED MASS        1.5884         C 22 -- O 27          +1.3% ( 11.4%)      2.2%
 EFFECTIVE MASS      2.8317
 FORCE CONSTANT      3.3396

 VIBRATION         96   96A           ATOM PAIR      ENERGY CONTRIBUTION    RADIAL
 FREQUENCY          2625.37         C 28 -- H 30         +71.0% ( 87.2%)     99.8%
 TRANSITION DIPOLE   0.9822         C 28 -- H 31         +15.6% ( 40.8%)     85.2%
 TRAVEL (Ang.)       0.2121         C 28 -- H 29         +12.3% ( 36.4%)     80.7%
 REDUCED MASS        0.5711         C 28 -- O 33          +1.0% ( 10.4%)      1.1%
 EFFECTIVE MASS      1.4943
 FORCE CONSTANT      2.3194

 VIBRATION         97   97A           ATOM PAIR      ENERGY CONTRIBUTION    RADIAL
 FREQUENCY          2637.24         C 22 -- H 23         +57.5% ( 78.3%)     98.8%
 TRANSITION DIPOLE   0.6319         C 22 -- H 24         +39.9% ( 65.2%)     96.7%
 TRAVEL (Ang.)       0.2238         C 22 -- H 25          +1.5% ( 12.6%)     16.9%
 REDUCED MASS        0.5107         C 22 -- O 27          +0.9% ( 10.0%)      0.1%
 EFFECTIVE MASS      1.4739
 FORCE CONSTANT      2.0926

 VIBRATION         98   98A           ATOM PAIR      ENERGY CONTRIBUTION    RADIAL
 FREQUENCY          2640.97         C 28 -- H 31         +49.1% ( 72.5%)     97.8%
 TRANSITION DIPOLE   0.7998         C 28 -- H 29         +45.4% ( 69.7%)     97.9%
 TRAVEL (Ang.)       0.2323         C 34 -- H 36          +2.0% ( 14.7%)     99.6%
 REDUCED MASS        0.4731         C 28 -- H 30          +1.2% ( 11.3%)      6.2%
 EFFECTIVE MASS      1.4943
 FORCE CONSTANT      1.9441

 VIBRATION         99   99A           ATOM PAIR      ENERGY CONTRIBUTION    RADIAL
 FREQUENCY          2643.16         C 34 -- H 36         +60.7% ( 80.6%)     99.6%
 TRANSITION DIPOLE   0.9430         C 34 -- H 37         +21.5% ( 47.9%)     89.7%
 TRAVEL (Ang.)       0.2365         C 34 -- H 35         +13.6% ( 38.1%)     82.3%
 REDUCED MASS        0.4562         C 28 -- H 31          +1.6% ( 13.1%)     98.0%
 EFFECTIVE MASS      1.4850
 FORCE CONSTANT      1.8779

 VIBRATION        100  100A           ATOM PAIR      ENERGY CONTRIBUTION    RADIAL
 FREQUENCY          2643.63         C 34 -- H 35         +53.9% ( 75.9%)     98.4%
 TRANSITION DIPOLE   0.8627         C 34 -- H 37         +42.1% ( 67.1%)     97.3%
 TRAVEL (Ang.)       0.2278         C 22 -- H 25          +1.2% ( 11.2%)     99.6%
 REDUCED MASS        0.4917         C 34 -- H 36          +1.1% ( 10.7%)      4.7%
 EFFECTIVE MASS      1.4872
 FORCE CONSTANT      2.0245

 VIBRATION        101  101A           ATOM PAIR      ENERGY CONTRIBUTION    RADIAL
 FREQUENCY          2649.14         C 22 -- H 25         +58.0% ( 78.7%)     99.5%
 TRANSITION DIPOLE   0.7368         C 22 -- H 24         +26.7% ( 53.3%)     92.1%
 TRAVEL (Ang.)       0.2389         C 22 -- H 23         +12.4% ( 36.4%)     80.1%
 REDUCED MASS        0.4459         C 34 -- H 35          +1.1% ( 10.8%)     98.8%
 EFFECTIVE MASS      1.4826
 FORCE CONSTANT      1.8437

 VIBRATION        102  102A           ATOM PAIR      ENERGY CONTRIBUTION    RADIAL
 FREQUENCY          2705.93         C 15 -- H 18         +96.7% ( 99.3%)    100.0%
 TRANSITION DIPOLE   1.1935         C 15 -- C 16          +1.1% ( 10.5%)     15.2%
 TRAVEL (Ang.)       0.1656         N 14 -- C 15          +1.0% ( 10.3%)     16.5%
 REDUCED MASS        0.9091         C 16 -- H 17          +0.9% (  9.6%)     97.4%
 EFFECTIVE MASS      1.3822
 FORCE CONSTANT      3.9218

 VIBRATION        103  103A           ATOM PAIR      ENERGY CONTRIBUTION    RADIAL
 FREQUENCY          2726.78         C 19 -- H 20         +89.8% ( 95.8%)    100.0%
 TRANSITION DIPOLE   0.8672         C 16 -- H 17          +7.0% ( 26.7%)     99.7%
 TRAVEL (Ang.)       0.1769         C  2 -- C 19          +1.0% ( 10.2%)     13.9%
 REDUCED MASS        0.7907         C  1 -- H 13          +1.0% ( 10.2%)     99.9%
 EFFECTIVE MASS      1.3825
 FORCE CONSTANT      3.4637

 VIBRATION        104  104A           ATOM PAIR      ENERGY CONTRIBUTION    RADIAL
 FREQUENCY          2735.14         C  1 -- H 13         +86.6% ( 93.5%)    100.0%
 TRANSITION DIPOLE   1.2661         C 28 -- H 29          +4.0% ( 20.1%)     97.5%
 TRAVEL (Ang.)       0.1854         C 28 -- H 31          +3.1% ( 17.8%)     96.3%
 REDUCED MASS        0.7169         C 28 -- H 30          +2.5% ( 15.8%)     95.0%
 EFFECTIVE MASS      1.3529
 FORCE CONSTANT      3.1598

 VIBRATION        105  105A           ATOM PAIR      ENERGY CONTRIBUTION    RADIAL
 FREQUENCY          2735.95         C 28 -- H 29         +36.2% ( 57.8%)     97.4%
 TRANSITION DIPOLE   0.5153         C 28 -- H 31         +29.0% ( 51.8%)     96.4%
 TRAVEL (Ang.)       0.2973         C 28 -- H 30         +22.8% ( 45.9%)     95.1%
 REDUCED MASS        0.2788         C  1 -- H 13         +11.1% ( 32.0%)    100.0%
 EFFECTIVE MASS      1.1218
 FORCE CONSTANT      1.2297

 VIBRATION        106  106A           ATOM PAIR      ENERGY CONTRIBUTION    RADIAL
 FREQUENCY          2740.46         C 22 -- H 25         +39.2% ( 59.9%)     97.1%
 TRANSITION DIPOLE   0.2426         C 22 -- H 24         +32.0% ( 54.2%)     96.2%
 TRAVEL (Ang.)       0.2731         C 22 -- H 23         +28.1% ( 50.8%)     95.6%
 REDUCED MASS        0.3298         C 22 -- O 27          +0.2% (  4.1%)     94.0%
 EFFECTIVE MASS      1.0994
 FORCE CONSTANT      1.4594

 VIBRATION        107  107A           ATOM PAIR      ENERGY CONTRIBUTION    RADIAL
 FREQUENCY          2742.56         C 34 -- H 36         +35.4% ( 56.9%)     96.8%
 TRANSITION DIPOLE   0.3203         C 34 -- H 37         +34.3% ( 56.0%)     96.4%
 TRAVEL (Ang.)       0.2745         C 34 -- H 35         +29.6% ( 52.0%)     95.8%
 REDUCED MASS        0.3264         C 34 -- O 39          +0.2% (  4.0%)     97.1%
 EFFECTIVE MASS      1.0957
 FORCE CONSTANT      1.4465

 VIBRATION        108  108A           ATOM PAIR      ENERGY CONTRIBUTION    RADIAL
 FREQUENCY          2750.83         C 16 -- H 17         +88.4% ( 95.0%)    100.0%
 TRANSITION DIPOLE   1.8306         C 19 -- H 20          +7.0% ( 26.7%)     99.7%
 TRAVEL (Ang.)       0.1787         C 16 -- C 19          +1.2% ( 11.1%)     58.7%
 REDUCED MASS        0.7674         C 15 -- C 16          +1.1% ( 10.4%)     26.8%
 EFFECTIVE MASS      1.4145
 FORCE CONSTANT      3.4213

 VIBRATION        109  109A           ATOM PAIR      ENERGY CONTRIBUTION    RADIAL
 FREQUENCY          2762.74         C  7 -- H 11         +92.6% ( 99.0%)    100.0%
 TRANSITION DIPOLE   1.1200         C  5 -- C  7          +1.4% ( 12.3%)     82.0%
 TRAVEL (Ang.)       0.1653         C  7 -- C  9          +1.4% ( 12.2%)     95.5%
 REDUCED MASS        0.8935         N  6 -- C  7          +1.4% ( 12.0%)     17.9%
 EFFECTIVE MASS      1.4416
 FORCE CONSTANT      4.0181

 VIBRATION        110  110A           ATOM PAIR      ENERGY CONTRIBUTION    RADIAL
 FREQUENCY          2773.99         C  4 -- H 12         +97.2% ( 99.5%)    100.0%
 TRANSITION DIPOLE   0.9042         C  3 -- C  4          +1.0% (  9.9%)     22.5%
 TRAVEL (Ang.)       0.1628         C  4 -- C  5          +1.0% (  9.8%)     22.1%
 REDUCED MASS        0.9174         C  7 -- H 11          +0.3% (  5.2%)     99.9%
 EFFECTIVE MASS      1.3659
 FORCE CONSTANT      4.1592

 VIBRATION        111  111A           ATOM PAIR      ENERGY CONTRIBUTION    RADIAL
 FREQUENCY          2798.91         C  8 -- H 10         +94.4% ( 99.2%)    100.0%
 TRANSITION DIPOLE   1.3225         C  7 -- C  8          +1.4% ( 12.1%)     51.2%
 TRAVEL (Ang.)       0.1634         C  5 -- C  8          +1.4% ( 12.0%)     91.7%
 REDUCED MASS        0.9019         C  8 -- C  9          +1.3% ( 11.7%)     32.8%
 EFFECTIVE MASS      1.4484
 FORCE CONSTANT      4.1629

      SYMMETRY NUMBER FOR POINT-GROUP C1  =  1


          SYSTEM IS A GROUND STATE



 Title: ASE calculation


          MOLECULE IS NOT LINEAR

          THERE ARE  111 GENUINE VIBRATIONS IN THIS SYSTEM
          THIS THERMODYNAMICS CALCULATION IS LIMITED TO
          MOLECULES WHICH HAVE NO INTERNAL ROTATIONS




                    CALCULATED THERMODYNAMIC PROPERTIES
                                          *
   TEMP. (K)   PARTITION FUNCTION   H.O.F.    ENTHALPY  HEAT CAPACITY ENTROPY
                                   KCAL/MOL   CAL/MOLE    CAL/K/MOL  CAL/K/MOL


 298.00  VIB.     0.2128D+10                 12402.3265    74.4868    84.3002
         ROT.     0.5922D+07                   888.2803     2.9808    33.9695
         INT.     0.1260D+17                 13290.6068    77.4676   118.2698
         TRA.     0.4250D+28                  1480.4672     4.9680    42.6582
         TOT.                      -87.799   14771.0740    82.4356   160.9280

   *: NOTE: HEATS OF FORMATION ARE RELATIVE TO THE
            ELEMENTS IN THEIR STANDARD STATE AT 298K
              (=  Standard Enthalpy of Formation).

            Hvib:  Zero-point energy is not included.
                   frequencies of less than zero cm-1 are not included.
            Hrot = (3/2)RT
            Htra = (3/2)RT + pV = (5/2)RT

            Heat capacity is Cp, not Cv

          For more information, see: HTTP://OpenMOPAC.net/Manual/thermochemistry.html


           FORCE CONSTANT IN CARTESIAN COORDINATES (Millidynes/A)

    ATOM   CHEMICAL       X               Y               Z
   NUMBER   SYMBOL  FORCE CONSTANT  FORCE CONSTANT  FORCE CONSTANT

      1       C       10.076576       10.726448        2.175553
      2       C       11.445506       10.577084        2.238953
      3       C       10.964441       11.584037        2.525683
      4       C       11.181606        9.638695        1.907662
      5       C       13.838574        8.475574        2.179387
      6       N        8.432414        8.912223        0.757858
      7       C       10.091892       10.695949        1.840535
      8       C        9.788792       10.688705        1.624388
      9       C       10.488238       12.011146        1.788681
     10       H        2.973720        2.145045        0.277024
     11       H        3.051813        2.023717        0.346214
     12       H        1.751816        3.425836        0.308845
     13       H        1.683701        3.382001        0.350311
     14       N       10.006744        9.875406        0.889012
     15       C        9.929353       11.397506        2.253420
     16       C       12.175951        9.206188        1.989119
     17       H        1.948070        3.164109        0.362049
     18       H        4.098295        0.954179        0.342221
     19       C       12.348475        9.119824        2.125535
     20       H        1.685002        3.385434        0.369097
     21       H        0.918080        2.314833        1.326330
     22       C        6.272000        6.518029        6.823701
     23       H        3.390445        1.081554        0.844063
     24       H        1.592946        1.839638        1.867560
     25       H        0.615134        3.347526        1.367798
     26       H        0.452814        2.777952        1.758434
     27       O        2.182872        4.151973        5.481610
     28       C        6.309228        6.348016        5.946587
     29       H        1.240671        2.866829        1.173146
     30       H        0.617886        2.632709        1.960895
     31       H        3.758163        0.637415        0.841558
     32       H        2.164582        1.001867        0.938818
     33       O        6.197088        4.118190        4.775705
     34       C        6.490077        6.624085        6.309526
     35       H        0.618406        1.102144        3.569162
     36       H        3.738775        0.779036        0.773750
     37       H        1.267225        2.095780        1.931184
     38       H        1.078076        1.934158        1.288977
     39       O        4.770196        6.035625        2.693173

 **********************
 *                    *
 * JOB ENDED NORMALLY *
 *                    *
 **********************



 TOTAL JOB TIME:            15.14 SECONDS

 == MOPAC DONE ==
