 *******************************************************************************
 **                                                                           **
 **                              MOPAC v22.0.6                                **
 **                                                                           **
 *******************************************************************************
 **          Digital Object Identifier (DOI): 10.5281/zenodo.6511958          **
 **    Visit the DOI location for information on how to cite this program.    **
 *******************************************************************************

                              PM7 CALCULATION RESULTS

 *******************************************************************************
 *  CALCULATION DONE:                                Tue Mar 26 11:02:12 2024  *
 *  PM7        - The PM7 Hamiltonian to be used
 *  DOUBLET    - SPIN STATE DEFINED AS A DOUBLET
 *
 *
 *
 *                 CHARGE ON SYSTEM = 0
 *
 *
 *
 *  EPS=78.4   - USE ANDREAS KLAMT'S COSMO IMPLICIT SOLVATION MODEL
 *  T=         - A TIME OF 14.0 DAYS REQUESTED
 *  DUMP=N     - RESTART FILE WRITTEN EVERY 30.0 MINUTES REQUESTED
 *  RELSCF     - DEFAULT SCF CRITERION MULTIPLIED BY 1.0000
 *              (DEFAULT SCF CRITERION = 0.00010)
 *  ITRY=      - DO A MAXIMUM OF 15000 ITERATIONS FOR SCF
 *  AUX        - OUTPUT AUXILIARY INFORMATION
 *  BONDS      - FINAL BOND-ORDER MATRIX TO BE PRINTED
 *******************************************************************************
PM7 BONDS AUX DUMP=30M ITRY=15000 T=14D CHARGE=0 DOUBLET eps=78.4 RELSCF=1
 Title: ASE calculation

   ATOM   CHEMICAL          X               Y               Z
  NUMBER   SYMBOL      (ANGSTROMS)     (ANGSTROMS)     (ANGSTROMS)

     1       C         -0.61264000  *   1.01134000  *   0.56696000  *
     2       C          0.76951000  *   0.96814000  *   0.74522000  *
     3       C          1.49328000  *  -0.17895000  *   0.40311000  *
     4       C          0.83396000  *  -1.28586000  *  -0.12419000  *
     5       C         -0.55462000  *  -1.23367000  *  -0.28502000  *
     6       C         -1.28961000  *  -0.09051000  *   0.05501000  *
     7       H         -1.16528000  *   1.91722000  *   0.83178000  *
     8       H          1.28798000  *   1.84198000  *   1.15939000  *
     9       H          1.38935000  *  -2.18925000  *  -0.40941000  *
    10       H         -2.37719000  *  -0.06080000  *  -0.07962000  *
    11       N         -1.23997000  *  -2.39057000  *  -0.80420000  *
    12       O         -2.45796000  *  -2.36364000  *  -0.92172000  *
    13       O         -0.58652000  *  -3.37927000  *  -1.11417000  *
    14       C          2.98072000  *  -0.19358000  *   0.62428000  *
    15       C          3.47325000  *  -1.48618000  *   1.26534000  *
    16       H          4.54394000  *  -1.44164000  *   1.51614000  *
    17       H          3.32730000  *  -2.36949000  *   0.62740000  *
    18       H          2.93910000  *  -1.67141000  *   2.21220000  *
    19       N          3.70027000  *  -0.00126000  *  -0.67826000  *
    20       O          4.91210000  *   0.15375000  *  -0.64641000  *
    21       O          3.07179000  *   0.00614000  *  -1.72226000  *
    22       H          3.28605000  *   0.68271000  *   1.28689000  *
    23       C          1.49815000  *   0.16393000  *   7.93527000  *
    24       C          2.68250000  *   0.63229000  *   8.67271000  *
    25       C          3.38033000  *   1.82747000  *   8.00533000  *
    26       C          3.43515000  *   1.62701000  *   6.48246000  *
    27       N          2.08003000  *   1.48158000  *   5.89927000  *
    28       C          1.40530000  *   0.28387000  *   6.46364000  *
    29       H          0.71205000  *  -0.33654000  *   8.46776000  *
    30       H          2.42509000  *   0.89091000  *   9.72278000  *
    31       H          3.40454000  *  -0.21609000  *   8.76157000  *
    32       H          4.39913000  *   1.95606000  *   8.41379000  *
    33       H          2.84083000  *   2.76329000  *   8.24569000  *
    34       H          3.93482000  *   2.48698000  *   5.98750000  *
    35       H          4.02886000  *   0.72106000  *   6.23099000  *
    36       H          1.52301000  *   2.31702000  *   6.11325000  *
    37       H          0.34463000  *   0.28829000  *   6.11834000  *
    38       H          1.87029000  *  -0.62144000  *   5.99172000  *
    39       H          2.49820000  *   1.48304000  *   3.96029000  *
    40       H          2.21271000  *   2.62157000  *   2.98315000  *
    41       O          2.71631000  *   1.80843000  *   3.06237000  *



          CARTESIAN COORDINATES 

    NO.       ATOM           X           Y           Z

     1         C         -0.6126      1.0113      0.5670
     2         C          0.7695      0.9681      0.7452
     3         C          1.4933     -0.1790      0.4031
     4         C          0.8340     -1.2859     -0.1242
     5         C         -0.5546     -1.2337     -0.2850
     6         C         -1.2896     -0.0905      0.0550
     7         H         -1.1653      1.9172      0.8318
     8         H          1.2880      1.8420      1.1594
     9         H          1.3894     -2.1892     -0.4094
    10         H         -2.3772     -0.0608     -0.0796
    11         N         -1.2400     -2.3906     -0.8042
    12         O         -2.4580     -2.3636     -0.9217
    13         O         -0.5865     -3.3793     -1.1142
    14         C          2.9807     -0.1936      0.6243
    15         C          3.4733     -1.4862      1.2653
    16         H          4.5439     -1.4416      1.5161
    17         H          3.3273     -2.3695      0.6274
    18         H          2.9391     -1.6714      2.2122
    19         N          3.7003     -0.0013     -0.6783
    20         O          4.9121      0.1538     -0.6464
    21         O          3.0718      0.0061     -1.7223
    22         H          3.2860      0.6827      1.2869
    23         C          1.4981      0.1639      7.9353
    24         C          2.6825      0.6323      8.6727
    25         C          3.3803      1.8275      8.0053
    26         C          3.4352      1.6270      6.4825
    27         N          2.0800      1.4816      5.8993
    28         C          1.4053      0.2839      6.4636
    29         H          0.7121     -0.3365      8.4678
    30         H          2.4251      0.8909      9.7228
    31         H          3.4045     -0.2161      8.7616
    32         H          4.3991      1.9561      8.4138
    33         H          2.8408      2.7633      8.2457
    34         H          3.9348      2.4870      5.9875
    35         H          4.0289      0.7211      6.2310
    36         H          1.5230      2.3170      6.1132
    37         H          0.3446      0.2883      6.1183
    38         H          1.8703     -0.6214      5.9917
    39         H          2.4982      1.4830      3.9603
    40         H          2.2127      2.6216      2.9832
    41         O          2.7163      1.8084      3.0624

 General Reference for PM7:
 "Optimization of Parameters for Semiempirical Methods VI: More Modifications to the 
 NDDO Approximations and Re-optimization of Parameters", J. J. P. Stewart, J. Mol. Mod., 1:32, 19 (2013)
 https://link.springer.com/article/10.1007/s00894-012-1667-x

           Empirical Formula: C13 H20 N3 O5  =    41 atoms



      MOLECULAR POINT GROUP   :   C1  


 DOUBLET STATE CALCULATION


          UHF CALCULATION, NO. OF ALPHA ELECTRONS =   59
                           NO. OF BETA  ELECTRONS =   58

          Geometry optimization using L-BFGS
  SCF CRITERION =    0.1000E-03
 CYCLE:     1 TIME:   4.277 TIME LEFT:  2.00W  GRAD.:     2.679 HEAT: -70.68687
 CYCLE:     2 TIME:   0.582 TIME LEFT:  2.00W  GRAD.:     2.635 HEAT: -70.68692
 CYCLE:     3 TIME:   0.500 TIME LEFT:  2.00W  GRAD.:     1.998 HEAT: -70.69193
 CYCLE:     4 TIME:   0.641 TIME LEFT:  2.00W  GRAD.:     2.630 HEAT: -70.68692
 CYCLE:     5 TIME:   0.586 TIME LEFT:  2.00W  GRAD.:     2.410 HEAT: -70.68747
 CYCLE:     6 TIME:   0.668 TIME LEFT:  2.00W  GRAD.:    39.486 HEAT: -70.42818
 CYCLE:     7 TIME:   0.215 TIME LEFT:  2.00W  GRAD.:     2.787 HEAT: -70.69672
 CYCLE:     8 TIME:   0.258 TIME LEFT:  2.00W  GRAD.:     1.908 HEAT: -70.69395
 CYCLE:     9 TIME:   0.156 TIME LEFT:  2.00W  GRAD.:     1.655 HEAT: -70.69484
 CYCLE:    10 TIME:   0.160 TIME LEFT:  2.00W  GRAD.:     2.477 HEAT: -70.69747
 CYCLE:    11 TIME:   0.184 TIME LEFT:  2.00W  GRAD.:     4.765 HEAT: -70.56536
 CYCLE:    12 TIME:   0.113 TIME LEFT:  2.00W  GRAD.:     2.396 HEAT: -70.56637
 CYCLE:    13 TIME:   0.113 TIME LEFT:  2.00W  GRAD.:     1.961 HEAT: -70.57232
 CYCLE:    14 TIME:   0.121 TIME LEFT:  2.00W  GRAD.:     2.465 HEAT: -70.57706
 CYCLE:    15 TIME:   0.121 TIME LEFT:  2.00W  GRAD.:     3.289 HEAT: -70.55692
 CYCLE:    16 TIME:   0.125 TIME LEFT:  2.00W  GRAD.:     5.064 HEAT: -70.56316
 CYCLE:    17 TIME:   0.133 TIME LEFT:  2.00W  GRAD.:     2.300 HEAT: -70.56727
 CYCLE:    18 TIME:   0.164 TIME LEFT:  2.00W  GRAD.:     1.749 HEAT: -70.57093
 CYCLE:    19 TIME:   0.289 TIME LEFT:  2.00W  GRAD.:     2.225 HEAT: -70.57479
 CYCLE:    20 TIME:   0.082 TIME LEFT:  2.00W  GRAD.:     3.437 HEAT: -70.57683
 CYCLE:    21 TIME:   0.086 TIME LEFT:  2.00W  GRAD.:     3.272 HEAT: -70.56413
 CYCLE:    22 TIME:   0.082 TIME LEFT:  2.00W  GRAD.:     3.260 HEAT: -70.74283
 CYCLE:    23 TIME:   0.086 TIME LEFT:  2.00W  GRAD.:     4.190 HEAT: -70.75344
 CYCLE:    24 TIME:   0.082 TIME LEFT:  2.00W  GRAD.:     3.723 HEAT: -70.75659
 CYCLE:    25 TIME:   0.082 TIME LEFT:  2.00W  GRAD.:     3.659 HEAT: -70.73590
 CYCLE:    26 TIME:   0.094 TIME LEFT:  2.00W  GRAD.:     4.899 HEAT: -70.97760
 CYCLE:    27 TIME:   0.082 TIME LEFT:  2.00W  GRAD.:     9.224 HEAT: -70.93550
 CYCLE:    28 TIME:   0.082 TIME LEFT:  2.00W  GRAD.:     7.980 HEAT: -70.79404
 CYCLE:    29 TIME:   0.086 TIME LEFT:  2.00W  GRAD.:     4.108 HEAT: -70.76016
 CYCLE:    30 TIME:   0.082 TIME LEFT:  2.00W  GRAD.:     4.868 HEAT: -70.74876
 CYCLE:    31 TIME:   0.090 TIME LEFT:  2.00W  GRAD.:     5.075 HEAT: -70.73523
 CYCLE:    32 TIME:   0.094 TIME LEFT:  2.00W  GRAD.:     8.464 HEAT: -70.72975
 CYCLE:    33 TIME:   0.082 TIME LEFT:  2.00W  GRAD.:     6.178 HEAT: -70.73167
 CYCLE:    34 TIME:   0.082 TIME LEFT:  2.00W  GRAD.:     6.214 HEAT: -70.74327
 CYCLE:    35 TIME:   0.094 TIME LEFT:  2.00W  GRAD.:     8.437 HEAT: -70.76272
 CYCLE:    36 TIME:   0.090 TIME LEFT:  2.00W  GRAD.:     8.638 HEAT: -70.64169
 CYCLE:    37 TIME:   0.090 TIME LEFT:  2.00W  GRAD.:     8.145 HEAT: -70.66121
 CYCLE:    38 TIME:   0.082 TIME LEFT:  2.00W  GRAD.:    13.255 HEAT: -70.67284
 CYCLE:    39 TIME:   0.090 TIME LEFT:  2.00W  GRAD.:     8.598 HEAT: -70.73390
 CYCLE:    40 TIME:   0.090 TIME LEFT:  2.00W  GRAD.:     9.366 HEAT: -70.73168
 CYCLE:    41 TIME:   0.090 TIME LEFT:  2.00W  GRAD.:    10.717 HEAT: -70.78927
 CYCLE:    42 TIME:   0.090 TIME LEFT:  2.00W  GRAD.:    10.581 HEAT: -70.83560
 CYCLE:    43 TIME:   0.090 TIME LEFT:  2.00W  GRAD.:    14.317 HEAT: -70.91484
 CYCLE:    44 TIME:   0.098 TIME LEFT:  2.00W  GRAD.:    16.766 HEAT: -70.93170
 CYCLE:    45 TIME:   0.090 TIME LEFT:  2.00W  GRAD.:    14.709 HEAT: -70.96117
 CYCLE:    46 TIME:   0.094 TIME LEFT:  2.00W  GRAD.:     6.957 HEAT: -71.04870
 CYCLE:    47 TIME:   0.078 TIME LEFT:  2.00W  GRAD.:    12.335 HEAT: -71.11136
 CYCLE:    48 TIME:   0.070 TIME LEFT:  2.00W  GRAD.:     7.820 HEAT: -71.17460
 CYCLE:    49 TIME:   0.086 TIME LEFT:  2.00W  GRAD.:     6.884 HEAT: -71.24366
 CYCLE:    50 TIME:   0.098 TIME LEFT:  2.00W  GRAD.:     9.759 HEAT: -71.33855
 CYCLE:    51 TIME:   0.090 TIME LEFT:  2.00W  GRAD.:     9.353 HEAT: -71.33664
 CYCLE:    52 TIME:   0.098 TIME LEFT:  2.00W  GRAD.:    17.675 HEAT: -71.33430
 CYCLE:    53 TIME:   0.090 TIME LEFT:  2.00W  GRAD.:    55.027 HEAT: -70.87783
 CYCLE:    54 TIME:   0.090 TIME LEFT:  2.00W  GRAD.:     8.424 HEAT: -71.49442
 CYCLE:    55 TIME:   0.098 TIME LEFT:  2.00W  GRAD.:    14.247 HEAT: -71.49442
 CYCLE:    56 TIME:   0.090 TIME LEFT:  2.00W  GRAD.:     6.940 HEAT: -71.55343
 CYCLE:    57 TIME:   0.094 TIME LEFT:  2.00W  GRAD.:     9.657 HEAT: -71.62815
 CYCLE:    58 TIME:   0.098 TIME LEFT:  2.00W  GRAD.:     9.955 HEAT: -71.65894
 CYCLE:    59 TIME:   0.090 TIME LEFT:  2.00W  GRAD.:     9.359 HEAT: -71.68174
 CYCLE:    60 TIME:   0.094 TIME LEFT:  2.00W  GRAD.:    11.195 HEAT: -71.71883
 CYCLE:    61 TIME:   0.090 TIME LEFT:  2.00W  GRAD.:    10.681 HEAT: -71.89649
 CYCLE:    62 TIME:   0.082 TIME LEFT:  2.00W  GRAD.:     5.463 HEAT: -71.80862
 CYCLE:    63 TIME:   0.082 TIME LEFT:  2.00W  GRAD.:     4.515 HEAT: -71.85262
 CYCLE:    64 TIME:   0.094 TIME LEFT:  2.00W  GRAD.:    16.991 HEAT: -71.93679
 CYCLE:    65 TIME:   0.098 TIME LEFT:  2.00W  GRAD.:    10.210 HEAT: -71.83284
 CYCLE:    66 TIME:   0.098 TIME LEFT:  2.00W  GRAD.:    19.204 HEAT: -71.95237
 CYCLE:    67 TIME:   0.098 TIME LEFT:  2.00W  GRAD.:    15.524 HEAT: -71.84235
 CYCLE:    68 TIME:   0.098 TIME LEFT:  2.00W  GRAD.:     4.405 HEAT: -71.96331
 CYCLE:    69 TIME:   0.082 TIME LEFT:  2.00W  GRAD.:     4.514 HEAT: -71.96584
 CYCLE:    70 TIME:   0.098 TIME LEFT:  2.00W  GRAD.:    50.076 HEAT: -71.41315
 CYCLE:    71 TIME:   0.098 TIME LEFT:  2.00W  GRAD.:     6.138 HEAT: -71.97177
 CYCLE:    72 TIME:   0.098 TIME LEFT:  2.00W  GRAD.:    60.204 HEAT: -71.12681
 CYCLE:    73 TIME:   0.098 TIME LEFT:  2.00W  GRAD.:    16.842 HEAT: -71.88383
 CYCLE:    74 TIME:   0.098 TIME LEFT:  2.00W  GRAD.:    19.545 HEAT: -71.80514
 CYCLE:    75 TIME:   0.113 TIME LEFT:  2.00W  GRAD.:     6.807 HEAT: -71.89636
 CYCLE:    76 TIME:   0.082 TIME LEFT:  2.00W  GRAD.:     4.519 HEAT: -71.91303
 CYCLE:    77 TIME:   0.086 TIME LEFT:  2.00W  GRAD.:     4.035 HEAT: -71.92069
 CYCLE:    78 TIME:   0.090 TIME LEFT:  2.00W  GRAD.:     7.085 HEAT: -72.02143
 CYCLE:    79 TIME:   0.090 TIME LEFT:  2.00W  GRAD.:    15.293 HEAT: -71.91654
 CYCLE:    80 TIME:   0.078 TIME LEFT:  2.00W  GRAD.:     6.534 HEAT: -71.95070
 CYCLE:    81 TIME:   0.082 TIME LEFT:  2.00W  GRAD.:     4.054 HEAT: -71.95512
 CYCLE:    82 TIME:   0.086 TIME LEFT:  2.00W  GRAD.:     4.443 HEAT: -71.94694
 CYCLE:    83 TIME:   0.102 TIME LEFT:  2.00W  GRAD.:     7.388 HEAT: -72.04982
 CYCLE:    84 TIME:   0.082 TIME LEFT:  2.00W  GRAD.:    12.005 HEAT: -72.01268
 CYCLE:    85 TIME:   0.078 TIME LEFT:  2.00W  GRAD.:     3.794 HEAT: -72.03421
 CYCLE:    86 TIME:   0.086 TIME LEFT:  2.00W  GRAD.:     3.430 HEAT: -72.04246
 CYCLE:    87 TIME:   0.098 TIME LEFT:  2.00W  GRAD.:     5.126 HEAT: -72.11609
 CYCLE:    88 TIME:   0.086 TIME LEFT:  2.00W  GRAD.:    14.365 HEAT: -71.98723
 CYCLE:    89 TIME:   0.090 TIME LEFT:  2.00W  GRAD.:     4.363 HEAT: -72.12511
 CYCLE:    90 TIME:   0.098 TIME LEFT:  2.00W  GRAD.:     4.675 HEAT: -72.14689
 CYCLE:    91 TIME:   0.086 TIME LEFT:  2.00W  GRAD.:    14.491 HEAT: -72.09872
 CYCLE:    92 TIME:   0.082 TIME LEFT:  2.00W  GRAD.:     2.508 HEAT: -72.13450
 CYCLE:    93 TIME:   0.094 TIME LEFT:  2.00W  GRAD.:     2.501 HEAT: -72.18975
 CYCLE:    94 TIME:   0.082 TIME LEFT:  2.00W  GRAD.:     1.851 HEAT: -72.19454
 CYCLE:    95 TIME:   0.121 TIME LEFT:  2.00W  GRAD.:     7.857 HEAT: -72.21624
 CYCLE:    96 TIME:   0.086 TIME LEFT:  2.00W  GRAD.:    11.918 HEAT: -72.25491
 CYCLE:    97 TIME:   0.082 TIME LEFT:  2.00W  GRAD.:     2.755 HEAT: -72.23927
 CYCLE:    98 TIME:   0.086 TIME LEFT:  2.00W  GRAD.:     2.312 HEAT: -72.25660
 CYCLE:    99 TIME:   0.098 TIME LEFT:  2.00W  GRAD.:     3.547 HEAT: -72.23078
 CYCLE:   100 TIME:   0.090 TIME LEFT:  2.00W  GRAD.:    10.091 HEAT: -72.30809
 CYCLE:   101 TIME:   0.082 TIME LEFT:  2.00W  GRAD.:     3.826 HEAT: -72.29638
 CYCLE:   102 TIME:   0.082 TIME LEFT:  2.00W  GRAD.:     2.139 HEAT: -72.33716
 CYCLE:   103 TIME:   0.090 TIME LEFT:  2.00W  GRAD.:     3.848 HEAT: -72.36697
 CYCLE:   104 TIME:   0.090 TIME LEFT:  2.00W  GRAD.:    11.610 HEAT: -72.35635
 CYCLE:   105 TIME:   0.086 TIME LEFT:  2.00W  GRAD.:     4.859 HEAT: -72.37055
 CYCLE:   106 TIME:   0.098 TIME LEFT:  2.00W  GRAD.:     2.898 HEAT: -72.41037
 CYCLE:   107 TIME:   0.090 TIME LEFT:  2.00W  GRAD.:     3.867 HEAT: -72.41202
 CYCLE:   108 TIME:   0.094 TIME LEFT:  2.00W  GRAD.:     4.380 HEAT: -72.37956
 CYCLE:   109 TIME:   0.090 TIME LEFT:  2.00W  GRAD.:    13.939 HEAT: -72.30482
 CYCLE:   110 TIME:   0.082 TIME LEFT:  2.00W  GRAD.:     4.048 HEAT: -72.39635
 CYCLE:   111 TIME:   0.094 TIME LEFT:  2.00W  GRAD.:     3.046 HEAT: -72.39750
 CYCLE:   112 TIME:   0.090 TIME LEFT:  2.00W  GRAD.:     4.377 HEAT: -72.40734
 CYCLE:   113 TIME:   0.082 TIME LEFT:  2.00W  GRAD.:     7.469 HEAT: -72.41735
 CYCLE:   114 TIME:   0.082 TIME LEFT:  2.00W  GRAD.:     4.359 HEAT: -72.36545
 CYCLE:   115 TIME:   0.133 TIME LEFT:  2.00W  GRAD.:     4.863 HEAT: -72.43464
 CYCLE:   116 TIME:   0.086 TIME LEFT:  2.00W  GRAD.:     4.806 HEAT: -72.43194
 CYCLE:   117 TIME:   0.117 TIME LEFT:  2.00W  GRAD.:     7.787 HEAT: -72.42179
 CYCLE:   118 TIME:   0.090 TIME LEFT:  2.00W  GRAD.:     6.820 HEAT: -72.49869
 CYCLE:   119 TIME:   0.090 TIME LEFT:  2.00W  GRAD.:     4.373 HEAT: -72.52128
 CYCLE:   120 TIME:   0.082 TIME LEFT:  2.00W  GRAD.:     2.824 HEAT: -72.58620
 CYCLE:   121 TIME:   0.082 TIME LEFT:  2.00W  GRAD.:     2.977 HEAT: -72.52489
 CYCLE:   122 TIME:   0.094 TIME LEFT:  2.00W  GRAD.:     2.707 HEAT: -72.51661
 CYCLE:   123 TIME:   0.094 TIME LEFT:  2.00W  GRAD.:     5.907 HEAT: -72.49868
 CYCLE:   124 TIME:   0.086 TIME LEFT:  2.00W  GRAD.:     4.755 HEAT: -72.50616
 CYCLE:   125 TIME:   0.078 TIME LEFT:  2.00W  GRAD.:     2.320 HEAT: -72.51443
 CYCLE:   126 TIME:   0.152 TIME LEFT:  2.00W  GRAD.:     3.247 HEAT: -72.54017
 CYCLE:   127 TIME:   0.086 TIME LEFT:  2.00W  GRAD.:     3.153 HEAT: -72.52484
 CYCLE:   128 TIME:   0.098 TIME LEFT:  2.00W  GRAD.:     6.331 HEAT: -72.51554
 CYCLE:   129 TIME:   0.078 TIME LEFT:  2.00W  GRAD.:     2.082 HEAT: -72.52112
 CYCLE:   130 TIME:   0.090 TIME LEFT:  2.00W  GRAD.:     2.020 HEAT: -72.52745
 CYCLE:   131 TIME:   0.086 TIME LEFT:  2.00W  GRAD.:     2.975 HEAT: -72.54686
 CYCLE:   132 TIME:   0.090 TIME LEFT:  2.00W  GRAD.:    10.330 HEAT: -72.45027
 CYCLE:   133 TIME:   0.078 TIME LEFT:  2.00W  GRAD.:     2.520 HEAT: -72.47208
 CYCLE:   134 TIME:   0.082 TIME LEFT:  2.00W  GRAD.:     2.068 HEAT: -72.46287
 CYCLE:   135 TIME:   0.098 TIME LEFT:  2.00W  GRAD.:     3.485 HEAT: -72.44515
 CYCLE:   136 TIME:   0.082 TIME LEFT:  2.00W  GRAD.:     3.476 HEAT: -72.44644
 CYCLE:   137 TIME:   0.090 TIME LEFT:  2.00W  GRAD.:     4.396 HEAT: -72.45078
 CYCLE:   138 TIME:   0.082 TIME LEFT:  2.00W  GRAD.:     3.980 HEAT: -72.47009
 CYCLE:   139 TIME:   0.086 TIME LEFT:  2.00W  GRAD.:     4.995 HEAT: -72.44885
 CYCLE:   140 TIME:   0.090 TIME LEFT:  2.00W  GRAD.:     5.374 HEAT: -72.44588
 CYCLE:   141 TIME:   0.090 TIME LEFT:  2.00W  GRAD.:     9.486 HEAT: -72.41791
 CYCLE:   142 TIME:   0.082 TIME LEFT:  2.00W  GRAD.:     2.932 HEAT: -72.44005
 CYCLE:   143 TIME:   0.090 TIME LEFT:  2.00W  GRAD.:     3.336 HEAT: -72.45776
 CYCLE:   144 TIME:   0.082 TIME LEFT:  2.00W  GRAD.:     2.713 HEAT: -72.49148
 CYCLE:   145 TIME:   0.090 TIME LEFT:  2.00W  GRAD.:     4.927 HEAT: -72.50050
 CYCLE:   146 TIME:   0.086 TIME LEFT:  2.00W  GRAD.:     4.341 HEAT: -72.45692
 CYCLE:   147 TIME:   0.094 TIME LEFT:  2.00W  GRAD.:     5.270 HEAT: -72.43829
 CYCLE:   148 TIME:   0.082 TIME LEFT:  2.00W  GRAD.:     5.625 HEAT: -72.46112
 CYCLE:   149 TIME:   0.086 TIME LEFT:  2.00W  GRAD.:     6.979 HEAT: -72.46609
 CYCLE:   150 TIME:   0.082 TIME LEFT:  2.00W  GRAD.:     4.711 HEAT: -72.47227


           HEAT OF FORMATION IS ESSENTIALLY STATIONARY


          CURRENT BEST VALUE OF HEAT OF FORMATION =    -72.586178

 PM7 BONDS AUX DUMP=30M ITRY=15000 T=14D CHARGE=0 DOUBLET eps=78.4 RELSCF=1
 Title: ASE calculation

  C    -0.84181814 +1   0.79034418 +1   0.96301806 +1
  C     0.52023545 +1   0.77596822 +1   1.25823005 +1
  C     1.32798470 +1  -0.27837062 +1   0.81924256 +1
  C     0.77677309 +1  -1.31503632 +1   0.06947836 +1
  C    -0.58899366 +1  -1.28096078 +1  -0.22910672 +1
  C    -1.41003918 +1  -0.23743990 +1   0.21794498 +1
  H    -1.46720337 +1   1.61520382 +1   1.31696410 +1
  H     0.95440362 +1   1.60034795 +1   1.83814090 +1
  H     1.40322598 +1  -2.14430693 +1  -0.28533778 +1
  H    -2.48098317 +1  -0.22674197 +1  -0.01626003 +1
  N    -1.16003318 +1  -2.34599365 +1  -1.01554189 +1
  O    -2.34920295 +1  -2.30572765 +1  -1.30336528 +1
  O    -0.44190682 +1  -3.26786294 +1  -1.38146586 +1
  C     2.78399276 +1  -0.28713036 +1   1.19173395 +1
  C     3.18855607 +1  -1.57161835 +1   1.90602226 +1
  H     4.20266372 +1  -1.50998977 +1   2.33087387 +1
  H     3.16039465 +1  -2.45474798 +1   1.24999586 +1
  H     2.50738999 +1  -1.78224453 +1   2.74694810 +1
  N     3.62469879 +1  -0.15715390 +1  -0.04684831 +1
  O     4.51255854 +1   0.68128848 +1  -0.05428821 +1
  O     3.41108260 +1  -0.89092759 +1  -0.99666843 +1
  H     3.02902943 +1   0.60602628 +1   1.85398883 +1
  C     1.65798600 +1  -0.03597478 +1   6.94292127 +1
  C     2.60803531 +1   0.23136275 +1   8.03354623 +1
  C     3.25453416 +1   1.62358330 +1   7.95372599 +1
  C     3.61008178 +1   1.98086970 +1   6.50108382 +1
  N     2.41834977 +1   1.93844337 +1   5.62151387 +1
  C     1.83698593 +1   0.57011042 +1   5.60644014 +1
  H     0.86011725 +1  -0.73721268 +1   7.09311087 +1
  H     2.12774768 +1   0.10236731 +1   9.02814546 +1
  H     3.40461210 +1  -0.55141054 +1   8.00479144 +1
  H     4.15837169 +1   1.66285797 +1   8.58861016 +1
  H     2.56368143 +1   2.38252763 +1   8.36731479 +1
  H     4.05085395 +1   3.00019380 +1   6.44341831 +1
  H     4.37445099 +1   1.28046791 +1   6.10091472 +1
  H     1.71634328 +1   2.60520274 +1   5.96188633 +1
  H     0.87601160 +1   0.61329405 +1   5.04088064 +1
  H     2.52192033 +1  -0.08177691 +1   5.00155473 +1
  H     2.88108672 +1   2.24387646 +1   3.79928044 +1
  H     2.46378290 +1   3.14599819 +1   2.62797977 +1
  O     3.06819163 +1   2.43565984 +1   2.85337915 +1



 -------------------------------------------------------------------------------
 PM7 BONDS AUX DUMP=30M ITRY=15000 T=14D CHARGE=0 DOUBLET eps=78.4 RELSCF=1
 Title: ASE calculation



     HERBERTS TEST WAS SATISFIED IN BFGS                      
     SCF FIELD WAS ACHIEVED                                   


                              PM7 CALCULATION
                                                       MOPAC v22.0.6 Linux
                                                       Tue Mar 26 11:02:33 2024




          FINAL HEAT OF FORMATION =        -72.58618 KCAL/MOL =    -303.70057 KJ/MOL
          VAN DER WAALS AREA      =        331.50 SQUARE ANGSTROMS



          DIELECTRIC ENERGY       =         -1.04582 EV
          COSMO AREA              =        331.50 SQUARE ANGSTROMS
          COSMO VOLUME            =        371.58 CUBIC ANGSTROMS

          GRADIENT NORM           =          2.82372          =       0.44099 PER ATOM
          IONIZATION POTENTIAL    =          8.899527 EV
          ALPHA SOMO LUMO (EV)    =         -8.900 -1.542
          BETA  SOMO LUMO (EV)    =         -9.646 -1.541
          NO. OF ALPHA ELECTRONS  =         59
          NO. OF BETA  ELECTRONS  =         58
          MOLECULAR WEIGHT        =        298.3181         POINT GROUP:  C1  

          MOLECULAR DIMENSIONS (Angstroms)

            Atom       Atom       Distance
            H    32    O    12    12.48797
            H    29    O    20     7.44971
            H     7    H    17     5.72054


          SCF CALCULATIONS        =        153

          WALL-CLOCK TIME         =     21.371 SECONDS
          COMPUTATION TIME        =         27 MINUTES AND 25.353 SECONDS



       FINAL  POINT  AND  DERIVATIVES

   PARAMETER     ATOM    TYPE            VALUE        GRADIENT
      1          1  C    CARTESIAN X    -0.841818      0.259622  KCAL/ANGSTROM
      2          1  C    CARTESIAN Y     0.790344      0.123523  KCAL/ANGSTROM
      3          1  C    CARTESIAN Z     0.963018      0.292500  KCAL/ANGSTROM
      4          2  C    CARTESIAN X     0.520235     -0.456430  KCAL/ANGSTROM
      5          2  C    CARTESIAN Y     0.775968      0.380227  KCAL/ANGSTROM
      6          2  C    CARTESIAN Z     1.258230     -0.079880  KCAL/ANGSTROM
      7          3  C    CARTESIAN X     1.327985     -0.031116  KCAL/ANGSTROM
      8          3  C    CARTESIAN Y    -0.278371     -0.216616  KCAL/ANGSTROM
      9          3  C    CARTESIAN Z     0.819243     -0.090854  KCAL/ANGSTROM
     10          4  C    CARTESIAN X     0.776773     -0.211979  KCAL/ANGSTROM
     11          4  C    CARTESIAN Y    -1.315036     -0.120773  KCAL/ANGSTROM
     12          4  C    CARTESIAN Z     0.069478     -0.229921  KCAL/ANGSTROM
     13          5  C    CARTESIAN X    -0.588994      0.543044  KCAL/ANGSTROM
     14          5  C    CARTESIAN Y    -1.280961     -0.577068  KCAL/ANGSTROM
     15          5  C    CARTESIAN Z    -0.229107     -0.006578  KCAL/ANGSTROM
     16          6  C    CARTESIAN X    -1.410039     -0.561352  KCAL/ANGSTROM
     17          6  C    CARTESIAN Y    -0.237440      0.280894  KCAL/ANGSTROM
     18          6  C    CARTESIAN Z     0.217945      0.368933  KCAL/ANGSTROM
     19          7  H    CARTESIAN X    -1.467203     -0.072483  KCAL/ANGSTROM
     20          7  H    CARTESIAN Y     1.615204      0.041593  KCAL/ANGSTROM
     21          7  H    CARTESIAN Z     1.316964     -0.076214  KCAL/ANGSTROM
     22          8  H    CARTESIAN X     0.954404     -0.124595  KCAL/ANGSTROM
     23          8  H    CARTESIAN Y     1.600348      0.230186  KCAL/ANGSTROM
     24          8  H    CARTESIAN Z     1.838141     -0.189903  KCAL/ANGSTROM
     25          9  H    CARTESIAN X     1.403226      0.011425  KCAL/ANGSTROM
     26          9  H    CARTESIAN Y    -2.144307     -0.039640  KCAL/ANGSTROM
     27          9  H    CARTESIAN Z    -0.285338     -0.066959  KCAL/ANGSTROM
     28         10  H    CARTESIAN X    -2.480983      0.132488  KCAL/ANGSTROM
     29         10  H    CARTESIAN Y    -0.226742      0.020245  KCAL/ANGSTROM
     30         10  H    CARTESIAN Z    -0.016260      0.079341  KCAL/ANGSTROM
     31         11  N    CARTESIAN X    -1.160033      0.165255  KCAL/ANGSTROM
     32         11  N    CARTESIAN Y    -2.345994      0.117167  KCAL/ANGSTROM
     33         11  N    CARTESIAN Z    -1.015542      0.119271  KCAL/ANGSTROM
     34         12  O    CARTESIAN X    -2.349203      0.005798  KCAL/ANGSTROM
     35         12  O    CARTESIAN Y    -2.305728      0.024062  KCAL/ANGSTROM
     36         12  O    CARTESIAN Z    -1.303365     -0.259414  KCAL/ANGSTROM
     37         13  O    CARTESIAN X    -0.441907      0.120199  KCAL/ANGSTROM
     38         13  O    CARTESIAN Y    -3.267863     -0.104467  KCAL/ANGSTROM
     39         13  O    CARTESIAN Z    -1.381466     -0.122965  KCAL/ANGSTROM
     40         14  C    CARTESIAN X     2.783993     -0.399151  KCAL/ANGSTROM
     41         14  C    CARTESIAN Y    -0.287130      0.139174  KCAL/ANGSTROM
     42         14  C    CARTESIAN Z     1.191734     -0.051104  KCAL/ANGSTROM
     43         15  C    CARTESIAN X     3.188556     -0.234069  KCAL/ANGSTROM
     44         15  C    CARTESIAN Y    -1.571618      0.198383  KCAL/ANGSTROM
     45         15  C    CARTESIAN Z     1.906022     -0.607827  KCAL/ANGSTROM
     46         16  H    CARTESIAN X     4.202664      0.418108  KCAL/ANGSTROM
     47         16  H    CARTESIAN Y    -1.509990      0.064241  KCAL/ANGSTROM
     48         16  H    CARTESIAN Z     2.330874      0.268780  KCAL/ANGSTROM
     49         17  H    CARTESIAN X     3.160395      0.167147  KCAL/ANGSTROM
     50         17  H    CARTESIAN Y    -2.454748      0.061334  KCAL/ANGSTROM
     51         17  H    CARTESIAN Z     1.249996     -0.347566  KCAL/ANGSTROM
     52         18  H    CARTESIAN X     2.507390     -0.231774  KCAL/ANGSTROM
     53         18  H    CARTESIAN Y    -1.782245     -0.221119  KCAL/ANGSTROM
     54         18  H    CARTESIAN Z     2.746948      0.095159  KCAL/ANGSTROM
     55         19  N    CARTESIAN X     3.624699     -0.215452  KCAL/ANGSTROM
     56         19  N    CARTESIAN Y    -0.157154     -0.707475  KCAL/ANGSTROM
     57         19  N    CARTESIAN Z    -0.046848     -0.223148  KCAL/ANGSTROM
     58         20  O    CARTESIAN X     4.512559      0.532642  KCAL/ANGSTROM
     59         20  O    CARTESIAN Y     0.681288      0.527863  KCAL/ANGSTROM
     60         20  O    CARTESIAN Z    -0.054288      0.310963  KCAL/ANGSTROM
     61         21  O    CARTESIAN X     3.411083     -0.060695  KCAL/ANGSTROM
     62         21  O    CARTESIAN Y    -0.890928     -0.227842  KCAL/ANGSTROM
     63         21  O    CARTESIAN Z    -0.996668     -0.234129  KCAL/ANGSTROM
     64         22  H    CARTESIAN X     3.029029     -0.254579  KCAL/ANGSTROM
     65         22  H    CARTESIAN Y     0.606026     -0.301440  KCAL/ANGSTROM
     66         22  H    CARTESIAN Z     1.853989      0.122777  KCAL/ANGSTROM
     67         23  C    CARTESIAN X     1.657986      0.093262  KCAL/ANGSTROM
     68         23  C    CARTESIAN Y    -0.035975     -0.255942  KCAL/ANGSTROM
     69         23  C    CARTESIAN Z     6.942921      0.096832  KCAL/ANGSTROM
     70         24  C    CARTESIAN X     2.608035     -0.304450  KCAL/ANGSTROM
     71         24  C    CARTESIAN Y     0.231363     -0.068652  KCAL/ANGSTROM
     72         24  C    CARTESIAN Z     8.033546      0.258242  KCAL/ANGSTROM
     73         25  C    CARTESIAN X     3.254534     -0.183566  KCAL/ANGSTROM
     74         25  C    CARTESIAN Y     1.623583     -0.245111  KCAL/ANGSTROM
     75         25  C    CARTESIAN Z     7.953726     -0.011914  KCAL/ANGSTROM
     76         26  C    CARTESIAN X     3.610082      0.113405  KCAL/ANGSTROM
     77         26  C    CARTESIAN Y     1.980870      0.095952  KCAL/ANGSTROM
     78         26  C    CARTESIAN Z     6.501084      0.125443  KCAL/ANGSTROM
     79         27  N    CARTESIAN X     2.418350      0.180841  KCAL/ANGSTROM
     80         27  N    CARTESIAN Y     1.938443      0.049454  KCAL/ANGSTROM
     81         27  N    CARTESIAN Z     5.621514      0.220023  KCAL/ANGSTROM
     82         28  C    CARTESIAN X     1.836986      0.083285  KCAL/ANGSTROM
     83         28  C    CARTESIAN Y     0.570110     -0.074604  KCAL/ANGSTROM
     84         28  C    CARTESIAN Z     5.606440      0.356473  KCAL/ANGSTROM
     85         29  H    CARTESIAN X     0.860117      0.033701  KCAL/ANGSTROM
     86         29  H    CARTESIAN Y    -0.737213      0.225042  KCAL/ANGSTROM
     87         29  H    CARTESIAN Z     7.093111     -0.322212  KCAL/ANGSTROM
     88         30  H    CARTESIAN X     2.127748      0.191658  KCAL/ANGSTROM
     89         30  H    CARTESIAN Y     0.102367     -0.007540  KCAL/ANGSTROM
     90         30  H    CARTESIAN Z     9.028145      0.338099  KCAL/ANGSTROM
     91         31  H    CARTESIAN X     3.404612     -0.529661  KCAL/ANGSTROM
     92         31  H    CARTESIAN Y    -0.551411      0.116304  KCAL/ANGSTROM
     93         31  H    CARTESIAN Z     8.004791     -0.014107  KCAL/ANGSTROM
     94         32  H    CARTESIAN X     4.158372     -0.179229  KCAL/ANGSTROM
     95         32  H    CARTESIAN Y     1.662858      0.086821  KCAL/ANGSTROM
     96         32  H    CARTESIAN Z     8.588610     -0.293964  KCAL/ANGSTROM
     97         33  H    CARTESIAN X     2.563681      0.181516  KCAL/ANGSTROM
     98         33  H    CARTESIAN Y     2.382528     -0.018114  KCAL/ANGSTROM
     99         33  H    CARTESIAN Z     8.367315     -0.218768  KCAL/ANGSTROM
    100         34  H    CARTESIAN X     4.050854      0.441721  KCAL/ANGSTROM
    101         34  H    CARTESIAN Y     3.000194      0.156150  KCAL/ANGSTROM
    102         34  H    CARTESIAN Z     6.443418     -0.075708  KCAL/ANGSTROM
    103         35  H    CARTESIAN X     4.374451     -0.030905  KCAL/ANGSTROM
    104         35  H    CARTESIAN Y     1.280468      0.298992  KCAL/ANGSTROM
    105         35  H    CARTESIAN Z     6.100915     -0.221066  KCAL/ANGSTROM
    106         36  H    CARTESIAN X     1.716343      0.165087  KCAL/ANGSTROM
    107         36  H    CARTESIAN Y     2.605203     -0.037742  KCAL/ANGSTROM
    108         36  H    CARTESIAN Z     5.961886      0.371119  KCAL/ANGSTROM
    109         37  H    CARTESIAN X     0.876012      0.002114  KCAL/ANGSTROM
    110         37  H    CARTESIAN Y     0.613294      0.360480  KCAL/ANGSTROM
    111         37  H    CARTESIAN Z     5.040881     -0.192645  KCAL/ANGSTROM
    112         38  H    CARTESIAN X     2.521920      0.584806  KCAL/ANGSTROM
    113         38  H    CARTESIAN Y    -0.081777      0.079899  KCAL/ANGSTROM
    114         38  H    CARTESIAN Z     5.001555      0.113894  KCAL/ANGSTROM
    115         39  H    CARTESIAN X     2.881087     -0.494120  KCAL/ANGSTROM
    116         39  H    CARTESIAN Y     2.243876     -0.178379  KCAL/ANGSTROM
    117         39  H    CARTESIAN Z     3.799280      0.251842  KCAL/ANGSTROM
    118         40  H    CARTESIAN X     2.463783      0.369916  KCAL/ANGSTROM
    119         40  H    CARTESIAN Y     3.145998     -0.257742  KCAL/ANGSTROM
    120         40  H    CARTESIAN Z     2.627980     -0.064030  KCAL/ANGSTROM
    121         41  O    CARTESIAN X     3.068192     -0.221325  KCAL/ANGSTROM
    122         41  O    CARTESIAN Y     2.435660     -0.017603  KCAL/ANGSTROM
    123         41  O    CARTESIAN Z     2.853379      0.211180  KCAL/ANGSTROM




   ATOM   CHEMICAL          X               Y               Z
  NUMBER   SYMBOL      (ANGSTROMS)     (ANGSTROMS)     (ANGSTROMS)

     1       C         -0.84181814  *   0.79034418  *   0.96301806  *
     2       C          0.52023545  *   0.77596822  *   1.25823005  *
     3       C          1.32798470  *  -0.27837062  *   0.81924256  *
     4       C          0.77677309  *  -1.31503632  *   0.06947836  *
     5       C         -0.58899366  *  -1.28096078  *  -0.22910672  *
     6       C         -1.41003918  *  -0.23743990  *   0.21794498  *
     7       H         -1.46720337  *   1.61520382  *   1.31696410  *
     8       H          0.95440362  *   1.60034795  *   1.83814090  *
     9       H          1.40322598  *  -2.14430693  *  -0.28533778  *
    10       H         -2.48098317  *  -0.22674197  *  -0.01626003  *
    11       N         -1.16003318  *  -2.34599365  *  -1.01554189  *
    12       O         -2.34920295  *  -2.30572765  *  -1.30336528  *
    13       O         -0.44190682  *  -3.26786294  *  -1.38146586  *
    14       C          2.78399276  *  -0.28713036  *   1.19173395  *
    15       C          3.18855607  *  -1.57161835  *   1.90602226  *
    16       H          4.20266372  *  -1.50998977  *   2.33087387  *
    17       H          3.16039465  *  -2.45474798  *   1.24999586  *
    18       H          2.50738999  *  -1.78224453  *   2.74694810  *
    19       N          3.62469879  *  -0.15715390  *  -0.04684831  *
    20       O          4.51255854  *   0.68128848  *  -0.05428821  *
    21       O          3.41108260  *  -0.89092759  *  -0.99666843  *
    22       H          3.02902943  *   0.60602628  *   1.85398883  *
    23       C          1.65798600  *  -0.03597478  *   6.94292127  *
    24       C          2.60803531  *   0.23136275  *   8.03354623  *
    25       C          3.25453416  *   1.62358330  *   7.95372599  *
    26       C          3.61008178  *   1.98086970  *   6.50108382  *
    27       N          2.41834977  *   1.93844337  *   5.62151387  *
    28       C          1.83698593  *   0.57011042  *   5.60644014  *
    29       H          0.86011725  *  -0.73721268  *   7.09311087  *
    30       H          2.12774768  *   0.10236731  *   9.02814546  *
    31       H          3.40461210  *  -0.55141054  *   8.00479144  *
    32       H          4.15837169  *   1.66285797  *   8.58861016  *
    33       H          2.56368143  *   2.38252763  *   8.36731479  *
    34       H          4.05085395  *   3.00019380  *   6.44341831  *
    35       H          4.37445099  *   1.28046791  *   6.10091472  *
    36       H          1.71634328  *   2.60520274  *   5.96188633  *
    37       H          0.87601160  *   0.61329405  *   5.04088064  *
    38       H          2.52192033  *  -0.08177691  *   5.00155473  *
    39       H          2.88108672  *   2.24387646  *   3.79928044  *
    40       H          2.46378290  *   3.14599819  *   2.62797977  *
    41       O          3.06819163  *   2.43565984  *   2.85337915  *

                             CARTESIAN COORDINATES

   1    C       -0.841818137     0.790344185     0.963018059
   2    C        0.520235452     0.775968219     1.258230052
   3    C        1.327984705    -0.278370623     0.819242557
   4    C        0.776773085    -1.315036319     0.069478357
   5    C       -0.588993656    -1.280960782    -0.229106715
   6    C       -1.410039183    -0.237439903     0.217944981
   7    H       -1.467203367     1.615203817     1.316964095
   8    H        0.954403618     1.600347955     1.838140900
   9    H        1.403225977    -2.144306933    -0.285337781
  10    H       -2.480983166    -0.226741971    -0.016260035
  11    N       -1.160033177    -2.345993651    -1.015541886
  12    O       -2.349202950    -2.305727649    -1.303365284
  13    O       -0.441906823    -3.267862943    -1.381465856
  14    C        2.783992757    -0.287130360     1.191733947
  15    C        3.188556071    -1.571618352     1.906022255
  16    H        4.202663720    -1.509989774     2.330873873
  17    H        3.160394646    -2.454747979     1.249995855
  18    H        2.507389986    -1.782244534     2.746948097
  19    N        3.624698789    -0.157153904    -0.046848308
  20    O        4.512558540     0.681288481    -0.054288215
  21    O        3.411082597    -0.890927588    -0.996668432
  22    H        3.029029427     0.606026279     1.853988827
  23    C        1.657985998    -0.035974777     6.942921268
  24    C        2.608035308     0.231362753     8.033546232
  25    C        3.254534165     1.623583299     7.953725987
  26    C        3.610081779     1.980869698     6.501083821
  27    N        2.418349773     1.938443366     5.621513869
  28    C        1.836985926     0.570110419     5.606440137
  29    H        0.860117253    -0.737212675     7.093110874
  30    H        2.127747683     0.102367313     9.028145456
  31    H        3.404612097    -0.551410540     8.004791440
  32    H        4.158371693     1.662857973     8.588610159
  33    H        2.563681431     2.382527634     8.367314789
  34    H        4.050853946     3.000193798     6.443418313
  35    H        4.374450986     1.280467915     6.100914717
  36    H        1.716343277     2.605202745     5.961886333
  37    H        0.876011595     0.613294051     5.040880639
  38    H        2.521920329    -0.081776910     5.001554729
  39    H        2.881086724     2.243876465     3.799280436
  40    H        2.463782904     3.145998192     2.627979773
  41    O        3.068191631     2.435659840     2.853379152


           Empirical Formula: C13 H20 N3 O5  =    41 atoms



      MOLECULAR POINT GROUP   :   C1  


          ALPHA EIGENVALUES  
 -37.57437 -37.50452 -35.55704 -31.71533 -30.97376 -30.89462 -29.43074 -28.80143
 -28.04398 -27.75758 -26.26773 -26.02287 -25.10366 -24.99186 -22.82549 -22.66528
 -21.61576 -21.25055 -20.87131 -19.39694 -19.18682 -18.73960 -18.30697 -17.72110
 -17.61715 -17.59644 -17.53677 -17.13052 -16.92203 -16.28391 -15.75545 -15.37941
 -15.27354 -15.25641 -15.00849 -14.47845 -14.33370 -14.22486 -14.11021 -13.80399
 -13.47707 -13.40316 -13.10716 -13.01054 -12.75885 -12.33296 -12.08828 -12.04723
 -12.00768 -11.94208 -11.90152 -11.81791 -11.73448 -11.61024 -11.60247 -10.78588
 -10.60536  -9.70385  -8.89953  -1.54150  -0.80559  -0.54330   0.09927   0.38083
   0.42305   1.69723   2.56016   2.93480   3.06630   3.24282   3.47565   3.61966
   3.86366   3.95793   4.00268   4.09764   4.14060   4.17282   4.27675   4.29063
   4.50884   4.61004   4.69015   4.78686   4.88127   5.05040   5.21951   5.23991
   5.30949   5.36220   5.42016   5.46175   5.56028   5.60129   5.75278   5.75779
   5.98621   6.16385   6.24052   6.40759   6.44585   6.53118   6.60640   6.95332


           BETA EIGENVALUES 
 -37.57437 -37.50452 -35.52335 -31.71532 -30.97376 -30.89463 -29.43067 -28.79687
 -27.95308 -27.75749 -26.26764 -25.89959 -25.10339 -24.99178 -22.76114 -22.66496
 -21.61559 -21.15143 -20.87130 -19.39692 -19.01737 -18.73897 -18.30697 -17.72108
 -17.61572 -17.59515 -17.52532 -17.11927 -16.87232 -16.28385 -15.68502 -15.37829
 -15.27350 -15.16796 -14.77329 -14.47728 -14.26990 -14.15539 -14.01800 -13.80367
 -13.41855 -13.37179 -13.05274 -12.96892 -12.75855 -12.24860 -12.08804 -12.04724
 -12.00770 -11.94203 -11.90151 -11.73447 -11.70254 -11.61021 -11.54083 -10.78588
 -10.60537  -9.64563  -1.54146  -0.80559  -0.54329   0.09926   0.38083   0.42305
   0.63828   1.69723   2.56018   2.97830   3.06809   3.24294   3.47567   3.61982
   3.88238   3.95841   4.00268   4.14033   4.16911   4.19749   4.29262   4.42294
   4.51401   4.61136   4.77312   4.79653   5.05324   5.11344   5.22328   5.28416
   5.34382   5.36308   5.45644   5.48926   5.56518   5.67621   5.75304   5.78097
   6.01579   6.19000   6.39370   6.44487   6.47177   6.55583   6.63207   6.95506


              NET ATOMIC CHARGES AND DIPOLE CONTRIBUTIONS

  ATOM NO.   TYPE          CHARGE      No. of ELECS.   s-Pop       p-Pop       
    1          C          -0.172218        4.1722     1.08667     3.08555
    2          C          -0.057172        4.0572     1.10169     2.95548
    3          C          -0.088584        4.0886     1.06427     3.02432
    4          C          -0.052092        4.0521     1.09638     2.95571
    5          C          -0.100059        4.1001     1.06865     3.03141
    6          C          -0.051845        4.0518     1.09827     2.95357
    7          H           0.185924        0.8141     0.81408
    8          H           0.185783        0.8142     0.81422
    9          H           0.201911        0.7981     0.79809
   10          H           0.195443        0.8046     0.80456
   11          N           0.677701        4.3223     1.44572     2.87658
   12          O          -0.457783        6.4578     1.94078     4.51700
   13          O          -0.456931        6.4569     1.94084     4.51609
   14          C          -0.049810        4.0498     1.09690     2.95291
   15          C          -0.469188        4.4692     1.05882     3.41037
   16          H           0.180389        0.8196     0.81961
   17          H           0.181867        0.8181     0.81813
   18          H           0.186185        0.8138     0.81381
   19          N           0.623422        4.3766     1.47916     2.89742
   20          O          -0.452768        6.4528     1.93986     4.51291
   21          O          -0.439789        6.4398     1.93915     4.50064
   22          H           0.225360        0.7746     0.77464
   23          C          -0.233378        4.2334     1.11484     3.11854
   24          C          -0.278044        4.2780     1.04959     3.22845
   25          C          -0.307741        4.3077     1.06457     3.24317
   26          C          -0.120759        4.1208     1.06950     3.05126
   27          N          -0.545668        5.5457     1.67030     3.87537
   28          C          -0.128227        4.1282     1.06102     3.06721
   29          H           0.145316        0.8547     0.85468
   30          H           0.155370        0.8446     0.84463
   31          H           0.165344        0.8347     0.83466
   32          H           0.151335        0.8487     0.84866
   33          H           0.146743        0.8533     0.85326
   34          H           0.144845        0.8552     0.85516
   35          H           0.149404        0.8506     0.85060
   36          H           0.270803        0.7292     0.72920
   37          H           0.153002        0.8470     0.84700
   38          H           0.161972        0.8380     0.83803
   39          H           0.388755        0.6112     0.61124
   40          H           0.368578        0.6314     0.63142
   41          O          -0.783398        6.7834     1.81739     4.96601
 DIPOLE           X         Y         Z       TOTAL
 POINT-CHG.    -1.735     4.728    11.923    12.943
 HYBRID        -0.587    -0.321     0.116     0.679
 SUM           -2.322     4.407    12.039    13.029


          ATOMIC ORBITAL ELECTRON POPULATIONS

     Atom    s        px        py        pz   
    1  C   1.08667   1.02006   1.05552   1.00996
    2  C   1.10169   0.99499   1.01229   0.94820
    3  C   1.06427   0.96888   1.00727   1.04817
    4  C   1.09638   0.98758   1.03078   0.93734
    5  C   1.06865   0.99558   0.96187   1.07396
    6  C   1.09827   1.08721   0.94188   0.92448
    7  H   0.81408
    8  H   0.81422
    9  H   0.79809
   10  H   0.80456
   11  N   1.44572   0.96021   0.97547   0.94090
   12  O   1.94078   1.04175   1.83991   1.63534
   13  O   1.94084   1.58019   1.33084   1.60506
   14  C   1.09690   0.93144   1.12177   0.89970
   15  C   1.05882   1.20018   1.04683   1.16336
   16  H   0.81961
   17  H   0.81813
   18  H   0.81381
   19  N   1.47916   0.96252   0.93162   1.00328
   20  O   1.93986   1.31105   1.32357   1.87829
   21  O   1.93915   1.74062   1.41690   1.34313
   22  H   0.77464
   23  C   1.11484   1.05252   1.07209   0.99392
   24  C   1.04959   1.09445   1.04713   1.08688
   25  C   1.06457   1.14300   1.05013   1.05004
   26  C   1.06950   0.95607   1.14963   0.94556
   27  N   1.67030   1.18535   1.14996   1.54005
   28  C   1.06102   1.11229   0.91575   1.03917
   29  H   0.85468
   30  H   0.84463
   31  H   0.83466
   32  H   0.84866
   33  H   0.85326
   34  H   0.85516
   35  H   0.85060
   36  H   0.72920
   37  H   0.84700
   38  H   0.83803
   39  H   0.61124
   40  H   0.63142
   41  O   1.81739   1.74507   1.69426   1.52668


                    (SZ)    =    0.500000
                    (S**2)  =    0.753828


          ATOMIC ORBITAL SPIN POPULATIONS

    Atom   Total    s     px     py     pz   
         Atomic
    1  C -0.0000 -0.000 -0.000 -0.000 -0.000
    2  C  0.0000  0.000  0.000  0.000  0.000
    3  C -0.0000 -0.000 -0.000 -0.000 -0.000
    4  C  0.0000  0.000  0.000  0.000  0.000
    5  C -0.0000 -0.000 -0.000 -0.000 -0.000
    6  C  0.0000  0.000  0.000  0.000  0.000
    7  H  0.0000  0.000
    8  H -0.0000 -0.000
    9  H -0.0000 -0.000
   10  H -0.0000 -0.000
   11  N  0.0000  0.000 -0.000  0.000  0.000
   12  O -0.0000  0.000 -0.000 -0.000  0.000
   13  O -0.0000 -0.000 -0.000  0.000 -0.000
   14  C  0.0000  0.000  0.000  0.000  0.000
   15  C  0.0000  0.000  0.000 -0.000  0.000
   16  H -0.0000 -0.000
   17  H  0.0000  0.000
   18  H -0.0000 -0.000
   19  N -0.0000 -0.000  0.000 -0.000 -0.000
   20  O -0.0000 -0.000  0.000  0.000 -0.000
   21  O  0.0000  0.000  0.000 -0.000  0.000
   22  H -0.0000 -0.000
   23  C  1.0013  0.027  0.343  0.525  0.107
   24  C -0.0437 -0.006 -0.013 -0.007 -0.017
   25  C  0.0124  0.002  0.002  0.008  0.001
   26  C -0.0024 -0.000 -0.001 -0.000 -0.001
   27  N  0.0134  0.000  0.003  0.009  0.001
   28  C -0.0473 -0.006 -0.002 -0.013 -0.026
   29  H -0.0284 -0.028
   30  H  0.0113  0.011
   31  H  0.0391  0.039
   32  H -0.0010 -0.001
   33  H -0.0005 -0.000
   34  H  0.0008  0.001
   35  H  0.0001  0.000
   36  H -0.0001 -0.000
   37  H  0.0103  0.010
   38  H  0.0346  0.035
   39  H -0.0001 -0.000
   40  H -0.0000 -0.000
   41  O  0.0002  0.000  0.000  0.000  0.000

          BONDING CONTRIBUTION OF EACH ALPHA M.O.

  0.6743  0.6571  0.6764  0.9341  0.5036  0.4971  0.8439  0.5853  0.9261  0.7383
  0.8194  0.9676  0.6613  0.6036  0.9474  0.8499  0.7549  0.9827  0.7488  0.7825
  0.9487  0.6624  0.5833  0.7842  0.8003  0.7955  0.8381  0.9277  0.9296  0.9589
  0.9394  0.9401  0.9776  0.9502  0.8743  0.8783  0.7781  0.7073  0.8056  0.9595
  0.9919  0.9385  0.9124  0.8268  0.9535  0.9425  0.1068  0.4388  0.4252  0.1652
  0.1594  0.9424  0.3496  0.4450  0.9964  0.9368  0.9822  0.5270  0.2341 -1.0665
 -1.0040 -1.1680 -1.0810 -1.0574 -1.0469 -0.9925 -0.9808 -0.9723 -0.9802 -0.9772
 -0.9823 -0.9844 -0.9991 -0.9920 -1.0144 -0.9825 -0.9994 -0.9796 -0.9994 -0.9812
 -0.9526 -0.9782 -0.9623 -0.9890 -1.0010 -0.9414 -0.9730 -0.9765 -0.9686 -0.9739
 -0.9873 -0.9719 -0.9676 -0.9896 -0.9713 -0.9806 -0.9845 -0.9767 -0.9756 -0.9763
 -0.9449 -0.9705 -0.9441 -0.8691

          BONDING CONTRIBUTION OF EACH BETA  M.O.

  0.6743  0.6571  0.6783  0.9341  0.5036  0.4971  0.8440  0.5820  0.9387  0.7383
  0.8192  0.9747  0.6616  0.6035  0.9559  0.8507  0.7548  0.9883  0.7488  0.7825
  0.9652  0.6634  0.5833  0.7841  0.7980  0.7956  0.8390  0.9253  0.9389  0.9589
  0.9459  0.9404  0.9777  0.9472  1.0031  0.8852  0.5315  0.8887  0.9378  0.9596
  0.9510  0.9857  0.8615  0.8759  0.9530  0.9515  0.1077  0.4388  0.4252  0.1652
  0.1595  0.3496  0.9913  0.4449  1.0021  0.9368  0.9822  0.5345 -1.0664 -1.0040
 -1.1680 -1.0810 -1.0574 -1.0469 -0.2540 -0.9925 -0.9808 -0.9585 -0.9794 -0.9772
 -0.9823 -0.9845 -0.9902 -0.9921 -1.0144 -0.9994 -0.9769 -0.9799 -0.9808 -0.9851
 -0.9536 -0.9780 -0.9787 -0.9788 -0.9403 -0.9709 -0.9721 -0.9696 -0.9589 -0.9735
 -0.9727 -0.9883 -0.9677 -0.9633 -0.9708 -0.9753 -0.9700 -0.9730 -0.9731 -0.9451
 -0.9721 -0.9584 -0.9471 -0.8695





            (VALENCIES)   BOND ORDERS

     1  C     (3.966)     6  C 1.457     2  C 1.434     7  H 0.953     4  C 0.102

     2  C     (3.951)     1  C 1.434     3  C 1.406     8  H 0.950     5  C 0.103     6  C 0.011

     3  C     (3.988)     4  C 1.442     2  C 1.406    14  C 0.995     6  C 0.102

     4  C     (3.947)     3  C 1.442     5  C 1.386     9  H 0.943     1  C 0.102    12  O 0.019    13  O 0.012

     5  C     (3.932)     4  C 1.386     6  C 1.374    11  N 0.909     2  C 0.103    13  O 0.069    12  O 0.068

     6  C     (3.948)     1  C 1.457     5  C 1.374    10  H 0.947     3  C 0.102    13  O 0.018    12  O 0.011
                          2  C 0.011

     7  H     (0.965)     1  C 0.953

     8  H     (0.965)     2  C 0.950

     9  H     (0.959)     4  C 0.943

    10  H     (0.962)     6  C 0.947

    11  N     (3.785)    12  O 1.423    13  O 1.422     5  C 0.909

    12  O     (1.816)    11  N 1.423    13  O 0.286     5  C 0.068     4  C 0.019     6  C 0.011

    13  O     (1.816)    11  N 1.422    12  O 0.286     5  C 0.069     6  C 0.018     4  C 0.012

    14  C     (3.896)     3  C 0.995    15  C 0.989    22  H 0.924    19  N 0.820    21  O 0.070    20  O 0.066

    15  C     (3.892)    14  C 0.989    16  H 0.958    17  H 0.956    18  H 0.950

    16  H     (0.967)    15  C 0.958

    17  H     (0.967)    15  C 0.956

    18  H     (0.965)    15  C 0.950

    19  N     (3.743)    21  O 1.450    20  O 1.440    14  C 0.820

    20  O     (1.833)    19  N 1.440    21  O 0.302    14  C 0.066

    21  O     (1.846)    19  N 1.450    20  O 0.302    14  C 0.070

    22  H     (0.949)    14  C 0.924

    23  C     (3.970)    24  C 1.036    28  C 1.026    29  H 0.966    27  N 0.011

    24  C     (3.958)    23  C 1.036    25  C 0.995    30  H 0.958    31  H 0.938

    25  C     (3.955)    26  C 0.996    24  C 0.995    33  H 0.968    32  H 0.965    27  N 0.013

    26  C     (3.929)    25  C 0.996    27  N 0.971    35  H 0.965    34  H 0.964

    27  N     (2.946)    26  C 0.971    28  C 0.966    36  H 0.902    39  H 0.042    41  O 0.016    25  C 0.013
                         23  C 0.011

    28  C     (3.935)    23  C 1.026    27  N 0.966    37  H 0.957    38  H 0.940

    29  H     (0.979)    23  C 0.966

    30  H     (0.976)    24  C 0.958

    31  H     (0.973)    24  C 0.938

    32  H     (0.977)    25  C 0.965

    33  H     (0.978)    25  C 0.968

    34  H     (0.979)    26  C 0.964

    35  H     (0.978)    26  C 0.965

    36  H     (0.927)    27  N 0.902

    37  H     (0.977)    28  C 0.957

    38  H     (0.974)    28  C 0.940

    39  H     (0.849)    41  O 0.803    27  N 0.042

    40  H     (0.864)    41  O 0.860

    41  O     (1.697)    40  H 0.860    39  H 0.803    27  N 0.016


 **********************
 *                    *
 * JOB ENDED NORMALLY *
 *                    *
 **********************



 TOTAL JOB TIME:            21.41 SECONDS

 == MOPAC DONE ==
