
                                 *****************
                                 * O   R   C   A *
                                 *****************

                                            #,                                       
                                            ###                                      
                                            ####                                     
                                            #####                                    
                                            ######                                   
                                           ########,                                 
                                     ,,################,,,,,                         
                               ,,#################################,,                 
                          ,,##########################################,,             
                       ,#########################################, ''#####,          
                    ,#############################################,,   '####,        
                  ,##################################################,,,,####,       
                ,###########''''           ''''###############################       
              ,#####''   ,,,,##########,,,,          '''####'''          '####       
            ,##' ,,,,###########################,,,                        '##       
           ' ,,###''''                  '''############,,,                           
         ,,##''                                '''############,,,,        ,,,,,,###''
      ,#''                                            '''#######################'''  
     '                                                          ''''####''''         
             ,#######,   #######,   ,#######,      ##                                
            ,#'     '#,  ##    ##  ,#'     '#,    #''#        ######   ,####,        
            ##       ##  ##   ,#'  ##            #'  '#       #        #'  '#        
            ##       ##  #######   ##           ,######,      #####,   #    #        
            '#,     ,#'  ##    ##  '#,     ,#' ,#      #,         ##   #,  ,#        
             '#######'   ##     ##  '#######'  #'      '#     #####' # '####'        



                  #######################################################
                  #                        -***-                        #
                  #          Department of theory and spectroscopy      #
                  #    Directorship and core code : Frank Neese         #
                  #        Max Planck Institute fuer Kohlenforschung    #
                  #                Kaiser Wilhelm Platz 1               #
                  #                 D-45470 Muelheim/Ruhr               #
                  #                      Germany                        #
                  #                                                     #
                  #                  All rights reserved                #
                  #                        -***-                        #
                  #######################################################


                         Program Version 5.0.4 -  RELEASE  -


 With contributions from (in alphabetic order):
   Daniel Aravena         : Magnetic Suceptibility
   Michael Atanasov       : Ab Initio Ligand Field Theory (pilot matlab implementation)
   Alexander A. Auer      : GIAO ZORA, VPT2 properties, NMR spectrum
   Ute Becker             : Parallelization
   Giovanni Bistoni       : ED, misc. LED, open-shell LED, HFLD
   Martin Brehm           : Molecular dynamics
   Dmytro Bykov           : SCF Hessian
   Vijay G. Chilkuri      : MRCI spin determinant printing, contributions to CSF-ICE
   Dipayan Datta          : RHF DLPNO-CCSD density
   Achintya Kumar Dutta   : EOM-CC, STEOM-CC
   Dmitry Ganyushin       : Spin-Orbit,Spin-Spin,Magnetic field MRCI
   Miquel Garcia          : C-PCM and meta-GGA Hessian, CC/C-PCM, Gaussian charge scheme
   Yang Guo               : DLPNO-NEVPT2, F12-NEVPT2, CIM, IAO-localization
   Andreas Hansen         : Spin unrestricted coupled pair/coupled cluster methods
   Benjamin Helmich-Paris : MC-RPA, TRAH-SCF, COSX integrals
   Lee Huntington         : MR-EOM, pCC
   Robert Izsak           : Overlap fitted RIJCOSX, COSX-SCS-MP3, EOM
   Marcus Kettner         : VPT2
   Christian Kollmar      : KDIIS, OOCD, Brueckner-CCSD(T), CCSD density, CASPT2, CASPT2-K
   Simone Kossmann        : Meta GGA functionals, TD-DFT gradient, OOMP2, MP2 Hessian
   Martin Krupicka        : Initial AUTO-CI
   Lucas Lang             : DCDCAS
   Marvin Lechner         : AUTO-CI (C++ implementation), FIC-MRCC
   Dagmar Lenk            : GEPOL surface, SMD
   Dimitrios Liakos       : Extrapolation schemes; Compound Job, initial MDCI parallelization
   Dimitrios Manganas     : Further ROCIS development; embedding schemes
   Dimitrios Pantazis     : SARC Basis sets
   Anastasios Papadopoulos: AUTO-CI, single reference methods and gradients
   Taras Petrenko         : DFT Hessian,TD-DFT gradient, ASA, ECA, R-Raman, ABS, FL, XAS/XES, NRVS
   Peter Pinski           : DLPNO-MP2, DLPNO-MP2 Gradient
   Christoph Reimann      : Effective Core Potentials
   Marius Retegan         : Local ZFS, SOC
   Christoph Riplinger    : Optimizer, TS searches, QM/MM, DLPNO-CCSD(T), (RO)-DLPNO pert. Triples
   Tobias Risthaus        : Range-separated hybrids, TD-DFT gradient, RPA, STAB
   Michael Roemelt        : Original ROCIS implementation
   Masaaki Saitow         : Open-shell DLPNO-CCSD energy and density
   Barbara Sandhoefer     : DKH picture change effects
   Avijit Sen             : IP-ROCIS
   Kantharuban Sivalingam : CASSCF convergence, NEVPT2, FIC-MRCI
   Bernardo de Souza      : ESD, SOC TD-DFT
   Georgi Stoychev        : AutoAux, RI-MP2 NMR, DLPNO-MP2 response
   Willem Van den Heuvel  : Paramagnetic NMR
   Boris Wezisla          : Elementary symmetry handling
   Frank Wennmohs         : Technical directorship


 We gratefully acknowledge several colleagues who have allowed us to
 interface, adapt or use parts of their codes:
   Stefan Grimme, W. Hujo, H. Kruse, P. Pracht,  : VdW corrections, initial TS optimization,
                  C. Bannwarth, S. Ehlert          DFT functionals, gCP, sTDA/sTD-DF
   Ed Valeev, F. Pavosevic, A. Kumar             : LibInt (2-el integral package), F12 methods
   Garnet Chan, S. Sharma, J. Yang, R. Olivares  : DMRG
   Ulf Ekstrom                                   : XCFun DFT Library
   Mihaly Kallay                                 : mrcc  (arbitrary order and MRCC methods)
   Jiri Pittner, Ondrej Demel                    : Mk-CCSD
   Frank Weinhold                                : gennbo (NPA and NBO analysis)
   Christopher J. Cramer and Donald G. Truhlar   : smd solvation model
   Lars Goerigk                                  : TD-DFT with DH, B97 family of functionals
   V. Asgeirsson, H. Jonsson                     : NEB implementation
   FAccTs GmbH                                   : IRC, NEB, NEB-TS, DLPNO-Multilevel, CI-OPT
                                                   MM, QMMM, 2- and 3-layer-ONIOM, Crystal-QMMM,
                                                   LR-CPCM, SF, NACMEs, symmetry and pop. for TD-DFT,
                                                   nearIR, NL-DFT gradient (VV10), updates on ESD,
                                                   ML-optimized integration grids
   S Lehtola, MJT Oliveira, MAL Marques          : LibXC Library
   Liviu Ungur et al                             : ANISO software


 Your calculation uses the libint2 library for the computation of 2-el integrals
 For citations please refer to: http://libint.valeyev.net

 Your ORCA version has been built with support for libXC version: 5.1.0
 For citations please refer to: https://tddft.org/programs/libxc/

 This ORCA versions uses:
   CBLAS   interface :  Fast vector & matrix operations
   LAPACKE interface :  Fast linear algebra routines
   SCALAPACK package :  Parallel linear algebra routines
   Shared memory     :  Shared parallel matrices
   BLAS/LAPACK       :  OpenBLAS 0.3.15  USE64BITINT DYNAMIC_ARCH NO_AFFINITY Prescott SINGLE_THREADED
        Core in use  :  Prescott
   Copyright (c) 2011-2014, The OpenBLAS Project


Your calculation utilizes the atom-pairwise dispersion correction
with the Becke-Johnson damping scheme (D3BJ)
Cite in your paper:
S.Grimme, S.Ehrlich, L.Goerigk, J Comput Chem, (2011), 32, 1456–1465 
S.Grimme, J.Antony, S.Ehrlich and H.Krieg, J.Chem.Phys., 132, (2010), 154104 
   

================================================================================

----- Orbital basis set information -----
Your calculation utilizes the basis: def2-TZVP
   F. Weigend and R. Ahlrichs, Phys. Chem. Chem. Phys. 7, 3297 (2005).

----- AuxJ basis set information -----
Your calculation utilizes the auxiliary basis: def2/J
   F. Weigend, Phys. Chem. Chem. Phys. 8, 1057 (2006).

================================================================================
                                        WARNINGS
                       Please study these warnings very carefully!
================================================================================

WARNING: Gradients needed for Numerical Frequencies
  ===> : Setting RunTyp to EnGrad

INFO   : the flag for use of the SHARK integral package has been found!

================================================================================
                                       INPUT FILE
================================================================================
NAME = /home/rudenko/mop_saddle_orca_4_serv/for_orca/CH2CHCH2NO2_pyridine/orca/freq_H/f_H.inp
|  1> !  NUMFREQ B3LYP def2-TZVP CPCM D3 
|  2> %pal nprocs 102 end
|  3> %cpcm epsilon 78.4 end 
|  4> *xyz 0 1 
|  5> C   -2.40369595441341 0.92468978107424 0.50384388028558
|  6> H   -2.99202340950652 1.34425730935875 -0.30427158781118
|  7> N   -3.76427695048856 -1.1171790420631 0.30926302642702
|  8> O   -4.45043295946184 -0.59897932297879 -0.59216636581331
|  9> O   -4.07042135509454 -2.22739902020546 0.79296167488204
| 10> H   -0.93072632452943 1.32071680533656 1.97569674130898
| 11> C   -2.56990363704369 -0.50616531926177 0.7368757072009
| 12> H   -1.62793530268061 -1.1272658482633 -0.16982449937682
| 13> H   -2.26355954153605 -0.90601841845413 1.69676560309731
| 14> C   -1.54455629677145 1.7040420815009 1.16823351231703
| 15> H   -1.43015246591443 2.74974420062596 0.91440125338206
| 16> C   1.70286084111249 -0.06621555681325 0.5981779260382
| 17> C   2.87957260789881 0.62726278085099 0.82641521592743
| 18> C   3.69654953965492 0.92883058157926 -0.2571461676987
| 19> C   3.31116989780019 0.52696515957973 -1.53081112861897
| 20> C   2.11907577132969 -0.16276093540315 -1.67737909067749
| 21> N   1.33869219801862 -0.44837026687788 -0.62996765968814
| 22> H   1.02606864091253 -0.32520802870671 1.40186219807947
| 23> H   3.14551293009132 0.92332258221716 1.83140719842103
| 24> H   3.92039768622692 0.74221641119258 -2.39739662292605
| 25> H   1.76827993832821 -0.49929021717647 -2.64461898746121
| 26> H   4.62228043114796 1.47004049843095 -0.11105819452138
| 27> H   -0.77798250502955 -2.55104811234406 -0.70210254350091
| 28> H   0.15628011545338 -1.11083491103953 -0.80129799446406
| 29> O   -0.86107389550497 -1.61535319215947 -0.93786309480882
| 30> *
| 31> 
| 32>                          ****END OF INPUT****
================================================================================

                     *******************************
                     * Energy+Gradient Calculation *
                     *******************************

---------------------------------
CARTESIAN COORDINATES (ANGSTROEM)
---------------------------------
  C     -2.403696    0.924690    0.503844
  H     -2.992023    1.344257   -0.304272
  N     -3.764277   -1.117179    0.309263
  O     -4.450433   -0.598979   -0.592166
  O     -4.070421   -2.227399    0.792962
  H     -0.930726    1.320717    1.975697
  C     -2.569904   -0.506165    0.736876
  H     -1.627935   -1.127266   -0.169824
  H     -2.263560   -0.906018    1.696766
  C     -1.544556    1.704042    1.168234
  H     -1.430152    2.749744    0.914401
  C      1.702861   -0.066216    0.598178
  C      2.879573    0.627263    0.826415
  C      3.696550    0.928831   -0.257146
  C      3.311170    0.526965   -1.530811
  C      2.119076   -0.162761   -1.677379
  N      1.338692   -0.448370   -0.629968
  H      1.026069   -0.325208    1.401862
  H      3.145513    0.923323    1.831407
  H      3.920398    0.742216   -2.397397
  H      1.768280   -0.499290   -2.644619
  H      4.622280    1.470040   -0.111058
  H     -0.777983   -2.551048   -0.702103
  H      0.156280   -1.110835   -0.801298
  O     -0.861074   -1.615353   -0.937863

----------------------------
CARTESIAN COORDINATES (A.U.)
----------------------------
  NO LB      ZA    FRAG     MASS         X           Y           Z
   0 C     6.0000    0    12.011   -4.542327    1.747410    0.952127
   1 H     1.0000    0     1.008   -5.654105    2.540278   -0.574990
   2 N     7.0000    0    14.007   -7.113453   -2.111162    0.584422
   3 O     8.0000    0    15.999   -8.410099   -1.131907   -1.119032
   4 O     8.0000    0    15.999   -7.691982   -4.209174    1.498480
   5 H     1.0000    0     1.008   -1.758818    2.495793    3.733526
   6 C     6.0000    0    12.011   -4.856414   -0.956514    1.392493
   7 H     1.0000    0     1.008   -3.076352   -2.130224   -0.320922
   8 H     1.0000    0     1.008   -4.277508   -1.712127    3.206422
   9 C     6.0000    0    12.011   -2.918788    3.220173    2.207641
  10 H     1.0000    0     1.008   -2.702596    5.196263    1.727968
  11 C     6.0000    0    12.011    3.217941   -0.125129    1.130392
  12 C     6.0000    0    12.011    5.441604    1.185355    1.561698
  13 C     6.0000    0    12.011    6.985466    1.755235   -0.485936
  14 C     6.0000    0    12.011    6.257204    0.995820   -2.892814
  15 C     6.0000    0    12.011    4.004473   -0.307574   -3.169787
  16 N     7.0000    0    14.007    2.529762   -0.847297   -1.190466
  17 H     1.0000    0     1.008    1.938989   -0.614554    2.649136
  18 H     1.0000    0     1.008    5.944158    1.744827    3.460858
  19 H     1.0000    0     1.008    7.408478    1.402586   -4.530423
  20 H     1.0000    0     1.008    3.341565   -0.943522   -4.997606
  21 H     1.0000    0     1.008    8.734844    2.777974   -0.209870
  22 H     1.0000    0     1.008   -1.470174   -4.820782   -1.326782
  23 H     1.0000    0     1.008    0.295327   -2.099174   -1.514234
  24 O     8.0000    0    15.999   -1.627194   -3.052575   -1.772304

--------------------------------
INTERNAL COORDINATES (ANGSTROEM)
--------------------------------
 C      0   0   0     0.000000000000     0.00000000     0.00000000
 H      1   0   0     1.084074127993     0.00000000     0.00000000
 N      1   2   0     2.461355449030    87.83053030     0.00000000
 O      3   1   2     1.245759192904    90.95070555   358.25387589
 O      3   1   2     1.249110555097   147.37286275   189.41428709
 H      1   2   3     2.119629160728   145.33084727   188.00454744
 C      3   1   2     1.408090191032    31.47570684   158.80847485
 H      7   3   1     1.447472098065   100.11190623   247.64685572
 H      7   3   1     1.084028513477   110.39882834   140.39313315
 C      6   1   2     1.084307321908    32.38747835     0.95920392
 H     10   6   1     1.082133066741   117.15812609   180.34744531
 C      6   1   2     3.279774507895   100.79806167   256.30733750
 C     12   6   1     1.384794225652   113.66132981   143.50852386
 C     13  12   6     1.390143775853   118.65615144   230.14408808
 C     14  13  12     1.390048818722   119.24532081   359.95563052
 C     15  14  13     1.385024425766   118.65635387     0.06549962
 N     12   6   1     1.336788166755   106.73893583     6.49230938
 H     12   6   1     1.082142870362    44.52719639   255.71703558
 H     13  12   6     1.080918380744   119.96456063    50.07891417
 H     15  14  13     1.080954216633   121.38192469   180.05973076
 H     16  15  14     1.082526069835   121.88920790   179.93283131
 H     14  13  12     1.082232670672   120.39602285   179.97390100
 H      8   7   3     1.741521062176   149.30172919   291.54545549
 H     17  12   6     1.366130235876   119.31643048   313.83336638
 O     23   8   7     0.968510299575    40.77138915   178.62152168

---------------------------
INTERNAL COORDINATES (A.U.)
---------------------------
 C      0   0   0     0.000000000000     0.00000000     0.00000000
 H      1   0   0     2.048603210777     0.00000000     0.00000000
 N      1   2   0     4.651287716901    87.83053030     0.00000000
 O      3   1   2     2.354143703403    90.95070555   358.25387589
 O      3   1   2     2.360476860124   147.37286275   189.41428709
 H      1   2   3     4.005518619250   145.33084727   188.00454744
 C      3   1   2     2.660904832911    31.47570684   158.80847485
 H      7   3   1     2.735325851835   100.11190623   247.64685572
 H      7   3   1     2.048517011832   110.39882834   140.39313315
 C      6   1   2     2.049043883412    32.38747835     0.95920392
 H     10   6   1     2.044935136600   117.15812609   180.34744531
 C      6   1   2     6.197875600938   100.79806167   256.30733750
 C     12   6   1     2.616881838318   113.66132981   143.50852386
 C     13  12   6     2.626991023138   118.65615144   230.14408808
 C     14  13  12     2.626811580166   119.24532081   359.95563052
 C     15  14  13     2.617316853489   118.65635387     0.06549962
 N     12   6   1     2.526163534234   106.73893583     6.49230938
 H     12   6   1     2.044953662760    44.52719639   255.71703558
 H     13  12   6     2.042639712727   119.96456063    50.07891417
 H     15  14  13     2.042707432743   121.38192469   180.05973076
 H     16  15  14     2.045677804818   121.88920790   179.93283131
 H     14  13  12     2.045123360753   120.39602285   179.97390100
 H      8   7   3     3.290997863968   149.30172919   291.54545549
 H     17  12   6     2.581612009075   119.31643048   313.83336638
 O     23   8   7     1.830219224079    40.77138915   178.62152168

---------------------
BASIS SET INFORMATION
---------------------
There are 4 groups of distinct atoms

 Group   1 Type C   : 11s6p2d1f contracted to 5s3p2d1f pattern {62111/411/11/1}
 Group   2 Type H   : 5s1p contracted to 3s1p pattern {311/1}
 Group   3 Type N   : 11s6p2d1f contracted to 5s3p2d1f pattern {62111/411/11/1}
 Group   4 Type O   : 11s6p2d1f contracted to 5s3p2d1f pattern {62111/411/11/1}

Atom   0C    basis set group =>   1
Atom   1H    basis set group =>   2
Atom   2N    basis set group =>   3
Atom   3O    basis set group =>   4
Atom   4O    basis set group =>   4
Atom   5H    basis set group =>   2
Atom   6C    basis set group =>   1
Atom   7H    basis set group =>   2
Atom   8H    basis set group =>   2
Atom   9C    basis set group =>   1
Atom  10H    basis set group =>   2
Atom  11C    basis set group =>   1
Atom  12C    basis set group =>   1
Atom  13C    basis set group =>   1
Atom  14C    basis set group =>   1
Atom  15C    basis set group =>   1
Atom  16N    basis set group =>   3
Atom  17H    basis set group =>   2
Atom  18H    basis set group =>   2
Atom  19H    basis set group =>   2
Atom  20H    basis set group =>   2
Atom  21H    basis set group =>   2
Atom  22H    basis set group =>   2
Atom  23H    basis set group =>   2
Atom  24O    basis set group =>   4
---------------------------------
AUXILIARY/J BASIS SET INFORMATION
---------------------------------
There are 4 groups of distinct atoms

 Group   1 Type C   : 12s5p4d2f1g contracted to 6s4p3d1f1g pattern {711111/2111/211/2/1}
 Group   2 Type H   : 5s2p1d contracted to 3s1p1d pattern {311/2/1}
 Group   3 Type N   : 12s5p4d2f1g contracted to 6s4p3d1f1g pattern {711111/2111/211/2/1}
 Group   4 Type O   : 12s5p4d2f1g contracted to 6s4p3d1f1g pattern {711111/2111/211/2/1}

Atom   0C    basis set group =>   1
Atom   1H    basis set group =>   2
Atom   2N    basis set group =>   3
Atom   3O    basis set group =>   4
Atom   4O    basis set group =>   4
Atom   5H    basis set group =>   2
Atom   6C    basis set group =>   1
Atom   7H    basis set group =>   2
Atom   8H    basis set group =>   2
Atom   9C    basis set group =>   1
Atom  10H    basis set group =>   2
Atom  11C    basis set group =>   1
Atom  12C    basis set group =>   1
Atom  13C    basis set group =>   1
Atom  14C    basis set group =>   1
Atom  15C    basis set group =>   1
Atom  16N    basis set group =>   3
Atom  17H    basis set group =>   2
Atom  18H    basis set group =>   2
Atom  19H    basis set group =>   2
Atom  20H    basis set group =>   2
Atom  21H    basis set group =>   2
Atom  22H    basis set group =>   2
Atom  23H    basis set group =>   2
Atom  24O    basis set group =>   4


           ************************************************************
           *        Program running with 102 parallel MPI-processes   *
           *              working on a common directory               *
           ************************************************************
------------------------------------------------------------------------------
                           ORCA GTO INTEGRAL CALCULATION
                           -- RI-GTO INTEGRALS CHOSEN --
------------------------------------------------------------------------------
------------------------------------------------------------------------------
                   ___                                                        
                  /   \      - P O W E R E D   B Y -                         
                 /     \                                                     
                 |  |  |   _    _      __       _____    __    __             
                 |  |  |  | |  | |    /  \     |  _  \  |  |  /  |          
                  \  \/   | |  | |   /    \    | | | |  |  | /  /          
                 / \  \   | |__| |  /  /\  \   | |_| |  |  |/  /          
                |  |  |   |  __  | /  /__\  \  |    /   |      \           
                |  |  |   | |  | | |   __   |  |    \   |  |\   \          
                \     /   | |  | | |  |  |  |  | |\  \  |  | \   \       
                 \___/    |_|  |_| |__|  |__|  |_| \__\ |__|  \__/        
                                                                              
                      - O R C A' S   B I G   F R I E N D -                    
                                      &                                       
                       - I N T E G R A L  F E E D E R -                       
                                                                              
 v1 FN, 2020, v2 2021                                                         
------------------------------------------------------------------------------


Reading SHARK input file /home/rudenko/mop_saddle_orca_4_serv/for_orca/CH2CHCH2NO2_pyridine/orca/freq_H/f_H.SHARKINP.tmp ... ok
----------------------
SHARK INTEGRAL PACKAGE
----------------------

Number of atoms                             ...     25
Number of basis functions                   ...    475
Number of shells                            ...    191
Maximum angular momentum                    ...      3
Integral batch strategy                     ... SHARK/LIBINT Hybrid
RI-J (if used) integral strategy            ... SPLIT-RIJ (Revised 2003 algorithm where possible)
Printlevel                                  ...      1
Contraction scheme used                     ... SEGMENTED contraction
Coulomb Range Separation                    ... NOT USED
Exchange Range Separation                   ... NOT USED
Finite Nucleus Model                        ... NOT USED
Auxiliary Coulomb fitting basis             ... AVAILABLE
   # of basis functions in Aux-J            ...    769
   # of shells in Aux-J                     ...    255
   Maximum angular momentum in Aux-J        ...      4
Auxiliary J/K fitting basis                 ... NOT available
Auxiliary Correlation fitting basis         ... NOT available
Auxiliary 'external' fitting basis          ... NOT available
Integral threshold                          ...     2.500000e-11
Primitive cut-off                           ...     2.500000e-12
Primitive pair pre-selection threshold      ...     2.500000e-12

Calculating pre-screening integrals         ... done (  0.0 sec) Dimension = 191
Organizing shell pair data                  ... done (  0.4 sec)
Shell pair information
Total number of shell pairs                 ...     18336
Shell pairs after pre-screening             ...     13999
Total number of primitive shell pairs       ...     55600
Primitive shell pairs kept                  ...     29320
          la=0 lb=0:   3859 shell pairs
          la=1 lb=0:   4082 shell pairs
          la=1 lb=1:   1109 shell pairs
          la=2 lb=0:   1947 shell pairs
          la=2 lb=1:   1042 shell pairs
          la=2 lb=2:    253 shell pairs
          la=3 lb=0:    920 shell pairs
          la=3 lb=1:    497 shell pairs
          la=3 lb=2:    231 shell pairs
          la=3 lb=3:     59 shell pairs

Calculating one electron integrals          ... done (  0.1 sec)
Calculating RI/J V-Matrix + Cholesky decomp.... done (  0.1 sec)
Calculating Nuclear repulsion               ... done (  0.0 sec) ENN=    753.083935637941 Eh

SHARK setup successfully completed in   0.9 seconds

Maximum memory used throughout the entire GTOINT-calculation: 26.4 MB


           ************************************************************
           *        Program running with 102 parallel MPI-processes   *
           *              working on a common directory               *
           ************************************************************
-------------------------------------------------------------------------------
                                 ORCA SCF
-------------------------------------------------------------------------------

------------
SCF SETTINGS
------------
Hamiltonian:
 Density Functional     Method          .... DFT(GTOs)
 Exchange Functional    Exchange        .... B88
   X-Alpha parameter    XAlpha          ....  0.666667
   Becke's b parameter  XBeta           ....  0.004200
 Correlation Functional Correlation     .... LYP
 LDA part of GGA corr.  LDAOpt          .... VWN-5
 Gradients option       PostSCFGGA      .... off
 Hybrid DFT is turned on
   Fraction HF Exchange ScalHFX         ....  0.200000
   Scaling of DF-GGA-X  ScalDFX         ....  0.720000
   Scaling of DF-GGA-C  ScalDFC         ....  0.810000
   Scaling of DF-LDA-C  ScalLDAC        ....  1.000000
   Perturbative correction              ....  0.000000
   Density functional embedding theory  .... OFF
   NL short-range parameter             ....  4.800000
 RI-approximation to the Coulomb term is turned on
   Number of AuxJ basis functions       .... 769
   RIJ-COSX (HFX calculated with COS-X)).... on


General Settings:
 Integral files         IntName         .... /home/rudenko/mop_saddle_orca_4_serv/for_orca/CH2CHCH2NO2_pyridine/orca/freq_H/f_H
 Hartree-Fock type      HFTyp           .... RHF
 Total Charge           Charge          ....    0
 Multiplicity           Mult            ....    1
 Number of Electrons    NEL             ....   98
 Basis Dimension        Dim             ....  475
 Nuclear Repulsion      ENuc            ....    753.0839356379 Eh

Convergence Acceleration:
 DIIS                   CNVDIIS         .... on
   Start iteration      DIISMaxIt       ....    12
   Startup error        DIISStart       ....  0.200000
   # of expansion vecs  DIISMaxEq       ....     5
   Bias factor          DIISBfac        ....   1.050
   Max. coefficient     DIISMaxC        ....  10.000
 Trust-Rad. Augm. Hess. CNVTRAH         .... auto
   Auto Start mean grad. ratio tolernc. ....  1.125000
   Auto Start start iteration           ....    20
   Auto Start num. interpolation iter.  ....    10
   Max. Number of Micro iterations      ....    16
   Max. Number of Macro iterations      .... Maxiter - #DIIS iter
   Number of Davidson start vectors     ....     2
   Converg. threshold I  (grad. norm)   ....   1.000e-05
   Converg. threshold II (energy diff.) ....   1.000e-08
   Grad. Scal. Fac. for Micro threshold ....   0.100
   Minimum threshold for Micro iter.    ....   0.010
   NR start threshold (gradient norm)   ....   0.001
   Initial trust radius                 ....   0.400
   Minimum AH scaling param. (alpha)    ....   1.000
   Maximum AH scaling param. (alpha)    .... 1000.000
   Orbital update algorithm             .... Taylor
   White noise on init. David. guess    .... on
   Maximum white noise                  ....   0.010
   Quad. conv. algorithm                .... NR
 SOSCF                  CNVSOSCF        .... on
   Start iteration      SOSCFMaxIt      ....   150
   Startup grad/error   SOSCFStart      ....  0.003300
 Level Shifting         CNVShift        .... on
   Level shift para.    LevelShift      ....    0.2500
   Turn off err/grad.   ShiftErr        ....    0.0010
 Zerner damping         CNVZerner       .... off
 Static damping         CNVDamp         .... on
   Fraction old density DampFac         ....    0.7000
   Max. Damping (<1)    DampMax         ....    0.9800
   Min. Damping (>=0)   DampMin         ....    0.0000
   Turn off err/grad.   DampErr         ....    0.1000
 Fernandez-Rico         CNVRico         .... off

SCF Procedure:
 Maximum # iterations   MaxIter         ....   125
 SCF integral mode      SCFMode         .... Direct
   Integral package                     .... SHARK and LIBINT hybrid scheme
 Reset frequency        DirectResetFreq ....    20
 Integral Threshold     Thresh          ....  2.500e-11 Eh
 Primitive CutOff       TCut            ....  2.500e-12 Eh

Convergence Tolerance:
 Convergence Check Mode ConvCheckMode   .... Total+1el-Energy
 Convergence forced     ConvForced      .... 0
 Energy Change          TolE            ....  1.000e-08 Eh
 1-El. energy change                    ....  1.000e-05 Eh
 Orbital Gradient       TolG            ....  1.000e-05
 Orbital Rotation angle TolX            ....  1.000e-05
 DIIS Error             TolErr          ....  5.000e-07


Diagonalization of the overlap matrix:
Smallest eigenvalue                        ... 5.173e-05
Time for diagonalization                   ...    0.111 sec
Threshold for overlap eigenvalues          ... 1.000e-08
Number of eigenvalues below threshold      ... 0
Time for construction of square roots      ...    0.147 sec
Total time needed                          ...    0.261 sec

Time for model grid setup =    0.176 sec

------------------------------
INITIAL GUESS: MODEL POTENTIAL
------------------------------
Loading Hartree-Fock densities                     ... done
Calculating cut-offs                               ... done
Initializing the effective Hamiltonian             ... done
Setting up the integral package (SHARK)            ... done
Starting the Coulomb interaction                   ... done (   0.0 sec)
Reading the grid                                   ... done
Mapping shells                                     ... done
Starting the XC term evaluation                    ... done (   0.0 sec)
  promolecular density results
     # of electrons  =     97.989052899
     EX              =    -82.405961910
     EC              =     -3.340151414
     EX+EC           =    -85.746113324
Transforming the Hamiltonian                       ... done (   0.1 sec)
Diagonalizing the Hamiltonian                      ... done (   0.1 sec)
Back transforming the eigenvectors                 ... done (   0.1 sec)
Now organizing SCF variables                       ... done
                      ------------------
                      INITIAL GUESS DONE (   0.6 sec)
                      ------------------
-------------------
DFT GRID GENERATION
-------------------

General Integration Accuracy     IntAcc      ... 4.388
Radial Grid Type                 RadialGrid  ... OptM3 with GC (2021)
Angular Grid (max. ang.)         AngularGrid ... 4 (Lebedev-302)
Angular grid pruning method      GridPruning ... 4 (adaptive)
Weight generation scheme         WeightScheme... Becke
Basis function cutoff            BFCut       ... 1.0000e-11
Integration weight cutoff        WCut        ... 1.0000e-14
Angular grids for H and He will be reduced by one unit
Partially contracted basis set               ... off
Rotationally invariant grid construction     ... off

Total number of grid points                  ...   116979
Total number of batches                      ...     1843
Average number of points per batch           ...       63
Average number of grid points per atom       ...     4679
Time for grid setup =    0.945 sec

--------------------
COSX GRID GENERATION
--------------------

GRIDX 1
-------
General Integration Accuracy     IntAcc      ... 3.816
Radial Grid Type                 RadialGrid  ... OptM3 with GC (2021)
Angular Grid (max. ang.)         AngularGrid ... 1 (Lebedev-50)
Angular grid pruning method      GridPruning ... 4 (adaptive)
Weight generation scheme         WeightScheme... Becke
Basis function cutoff            BFCut       ... 1.0000e-11
Integration weight cutoff        WCut        ... 1.0000e-14
Angular grids for H and He will be reduced by one unit
Partially contracted basis set               ... on
Rotationally invariant grid construction     ... off

Total number of grid points                  ...    14875
Total number of batches                      ...      242
Average number of points per batch           ...       61
Average number of grid points per atom       ...      595
UseSFitting                                  ... on

GRIDX 2
-------
General Integration Accuracy     IntAcc      ... 4.020
Radial Grid Type                 RadialGrid  ... OptM3 with GC (2021)
Angular Grid (max. ang.)         AngularGrid ... 2 (Lebedev-110)
Angular grid pruning method      GridPruning ... 4 (adaptive)
Weight generation scheme         WeightScheme... Becke
Basis function cutoff            BFCut       ... 1.0000e-11
Integration weight cutoff        WCut        ... 1.0000e-14
Angular grids for H and He will be reduced by one unit
Partially contracted basis set               ... on
Rotationally invariant grid construction     ... off

Total number of grid points                  ...    32374
Total number of batches                      ...      518
Average number of points per batch           ...       62
Average number of grid points per atom       ...     1295
UseSFitting                                  ... on

GRIDX 3
-------
General Integration Accuracy     IntAcc      ... 4.338
Radial Grid Type                 RadialGrid  ... OptM3 with GC (2021)
Angular Grid (max. ang.)         AngularGrid ... 3 (Lebedev-194)
Angular grid pruning method      GridPruning ... 4 (adaptive)
Weight generation scheme         WeightScheme... Becke
Basis function cutoff            BFCut       ... 1.0000e-11
Integration weight cutoff        WCut        ... 1.0000e-14
Angular grids for H and He will be reduced by one unit
Partially contracted basis set               ... on
Rotationally invariant grid construction     ... off

Total number of grid points                  ...    70980
Total number of batches                      ...     1121
Average number of points per batch           ...       63
Average number of grid points per atom       ...     2839
UseSFitting                                  ... on

Time for X-Grid setup             =    1.224 sec


--------------------
CPCM SOLVATION MODEL
--------------------
CPCM parameters:
  Epsilon                                         ...      78.4000
  Refrac                                          ...       1.3300
  Rsolv                                           ...       1.3000
  Surface type                                    ... GAUSSIAN VDW
  Epsilon function type                           ...         CPCM
Radii:
 Radius for C  used is    3.8550 Bohr (=   2.0400 Ang.)
 Radius for H  used is    2.4944 Bohr (=   1.3200 Ang.)
 Radius for N  used is    3.5149 Bohr (=   1.8600 Ang.)
 Radius for O  used is    3.4469 Bohr (=   1.8240 Ang.)
Calculating surface                               ...        done! (  0.0s)
GEPOL surface points                              ...         1457
GEPOL Volume                                      ...    1584.9411
GEPOL Surface-area                                ...     918.0421
Calculating surface distance matrix               ...        done! (  0.1s)
Performing Cholesky decomposition & store         ...        done! (  0.5s)
Overall time for CPCM initialization              ...                 0.6s
--------------
SCF ITERATIONS
--------------
ITER       Energy         Delta-E        Max-DP      RMS-DP      [F,P]     Damp
               ***  Starting incremental Fock matrix formation  ***
  0   -646.6145809364   0.000000000000 0.14670590  0.00093604  0.2718477 0.7000
  1   -646.8097412042  -0.195160267848 0.14202529  0.00074215  0.1109377 0.7000
                               ***Turning on DIIS***
  2   -646.8827985249  -0.073057320674 0.22170676  0.00123743  0.0354641 0.0000
  3   -647.0037152076  -0.120916682641 0.11512661  0.00053211  0.0580981 0.0000
  4   -647.0269267511  -0.023211543536 0.03877133  0.00018852  0.0160855 0.0000
  5   -647.0286689932  -0.001742242102 0.01313187  0.00007185  0.0047386 0.0000
                      *** Initiating the SOSCF procedure ***
                           *** Shutting down DIIS ***
                      *** Re-Reading the Fockian *** 
                      *** Removing any level shift *** 
ITER      Energy       Delta-E        Grad      Rot      Max-DP    RMS-DP
  6   -647.02878800  -0.0001190093  0.000336  0.000336  0.004796  0.000039
               *** Restarting incremental Fock matrix formation ***
  7   -647.02878250   0.0000055016  0.000392  0.002373  0.002039  0.000021
  8   -647.02877369   0.0000088091  0.000733  0.001619  0.001133  0.000012
  9   -647.02878719  -0.0000134999  0.000040  0.000170  0.000118  0.000002
 10   -647.02878707   0.0000001231  0.000065  0.000095  0.000110  0.000001
 11   -647.02878725  -0.0000001808  0.000018  0.000062  0.000130  0.000001
 12   -647.02878725   0.0000000022  0.000035  0.000045  0.000072  0.000000
 13   -647.02878726  -0.0000000134  0.000003  0.000009  0.000041  0.000000
 14   -647.02878725   0.0000000074  0.000004  0.000005  0.000008  0.000000
                  ***Gradient check signals convergence***
              ***Rediagonalizing the Fockian in SOSCF/NRSCF***

               *****************************************************
               *                     SUCCESS                       *
               *           SCF CONVERGED AFTER  15 CYCLES          *
               *****************************************************

Old exchange energy                            =    -16.692963890 Eh
New exchange energy                            =    -16.692956962 Eh
Exchange energy change after final integration =      0.000006928 Eh
Total energy after final integration           =   -647.028780325 Eh
Final COS-X integration done in                =     1.723 sec

----------------
TOTAL SCF ENERGY
----------------

Total Energy       :         -647.02878033 Eh          -17606.54821 eV

Components:
Nuclear Repulsion  :          753.08393564 Eh           20492.45571 eV
Electronic Energy  :        -1400.11271596 Eh          -38099.00392 eV
One Electron Energy:        -2374.51496112 Eh          -64613.83700 eV
Two Electron Energy:          974.40224516 Eh           26514.83308 eV
Max COSX asymmetry :            0.00000105 Eh               0.00003 eV
CPCM Dielectric    :           -0.04550414 Eh              -1.23823 eV

Virial components:
Potential Energy   :        -1291.32523772 Eh          -35138.74614 eV
Kinetic Energy     :          644.29645739 Eh           17532.19793 eV
Virial Ratio       :            2.00424079


DFT components:
N(Alpha)           :       49.000000086028 electrons
N(Beta)            :       49.000000086028 electrons
N(Total)           :       98.000000172057 electrons
E(X)               :      -66.475490053141 Eh       
E(C)               :       -3.945162439060 Eh       
E(XC)              :      -70.420652492200 Eh       
DFET-embed. en.    :        0.000000000000 Eh       
CPCM Solvation Model Properties:
Surface-charge          :           -0.02570694
Charge-correction       :           -0.00019070 Eh              -0.00519 eV
Free-energy (cav+disp)  :  This term is not implemented in the current solvation scheme

---------------
SCF CONVERGENCE
---------------

  Last Energy change         ...   -3.8074e-10  Tolerance :   1.0000e-08
  Last MAX-Density change    ...    2.4425e-15  Tolerance :   1.0000e-07
  Last RMS-Density change    ...    1.8599e-17  Tolerance :   5.0000e-09
  Last Orbital Gradient      ...    6.0491e-07  Tolerance :   1.0000e-05
  Last Orbital Rotation      ...    2.1773e-06  Tolerance :   1.0000e-05

             **** THE GBW FILE WAS UPDATED (/home/rudenko/mop_saddle_orca_4_serv/for_orca/CH2CHCH2NO2_pyridine/orca/freq_H/f_H.gbw) ****
             **** DENSITY /home/rudenko/mop_saddle_orca_4_serv/for_orca/CH2CHCH2NO2_pyridine/orca/freq_H/f_H.scfp WAS UPDATED ****
             **** ENERGY FILE WAS UPDATED (/home/rudenko/mop_saddle_orca_4_serv/for_orca/CH2CHCH2NO2_pyridine/orca/freq_H/f_H.en.tmp) ****
             **** THE GBW FILE WAS UPDATED (/home/rudenko/mop_saddle_orca_4_serv/for_orca/CH2CHCH2NO2_pyridine/orca/freq_H/f_H.gbw) ****
             **** DENSITY /home/rudenko/mop_saddle_orca_4_serv/for_orca/CH2CHCH2NO2_pyridine/orca/freq_H/f_H.scfp WAS UPDATED ****
----------------
ORBITAL ENERGIES
----------------

  NO   OCC          E(Eh)            E(eV) 
   0   2.0000     -19.147827      -521.0389 
   1   2.0000     -19.127559      -520.4873 
   2   2.0000     -19.125507      -520.4315 
   3   2.0000     -14.520137      -395.1130 
   4   2.0000     -14.357644      -390.6913 
   5   2.0000     -10.229077      -278.3473 
   6   2.0000     -10.228665      -278.3361 
   7   2.0000     -10.204901      -277.6895 
   8   2.0000     -10.195064      -277.4218 
   9   2.0000     -10.195016      -277.4205 
  10   2.0000     -10.183095      -277.0961 
  11   2.0000     -10.174692      -276.8674 
  12   2.0000     -10.153712      -276.2965 
  13   2.0000      -1.191446       -32.4209 
  14   2.0000      -1.026506       -27.9326 
  15   2.0000      -1.014007       -27.5925 
  16   2.0000      -0.978285       -26.6205 
  17   2.0000      -0.824165       -22.4267 
  18   2.0000      -0.820299       -22.3215 
  19   2.0000      -0.785638       -21.3783 
  20   2.0000      -0.744471       -20.2581 
  21   2.0000      -0.654622       -17.8132 
  22   2.0000      -0.649093       -17.6627 
  23   2.0000      -0.606040       -16.4912 
  24   2.0000      -0.570530       -15.5249 
  25   2.0000      -0.554426       -15.0867 
  26   2.0000      -0.534370       -14.5410 
  27   2.0000      -0.521281       -14.1848 
  28   2.0000      -0.520112       -14.1530 
  29   2.0000      -0.505417       -13.7531 
  30   2.0000      -0.495833       -13.4923 
  31   2.0000      -0.485175       -13.2023 
  32   2.0000      -0.480058       -13.0630 
  33   2.0000      -0.448922       -12.2158 
  34   2.0000      -0.430691       -11.7197 
  35   2.0000      -0.426889       -11.6162 
  36   2.0000      -0.422870       -11.5069 
  37   2.0000      -0.414780       -11.2867 
  38   2.0000      -0.382535       -10.4093 
  39   2.0000      -0.378463       -10.2985 
  40   2.0000      -0.353528        -9.6200 
  41   2.0000      -0.314576        -8.5600 
  42   2.0000      -0.311131        -8.4663 
  43   2.0000      -0.305166        -8.3040 
  44   2.0000      -0.299157        -8.1405 
  45   2.0000      -0.295823        -8.0497 
  46   2.0000      -0.285300        -7.7634 
  47   2.0000      -0.272211        -7.4072 
  48   2.0000      -0.214619        -5.8401 
  49   0.0000      -0.057155        -1.5553 
  50   0.0000      -0.049565        -1.3487 
  51   0.0000      -0.034755        -0.9457 
  52   0.0000       0.014460         0.3935 
  53   0.0000       0.041606         1.1321 
  54   0.0000       0.062341         1.6964 
  55   0.0000       0.069744         1.8978 
  56   0.0000       0.079788         2.1711 
  57   0.0000       0.091624         2.4932 
  58   0.0000       0.101201         2.7538 
  59   0.0000       0.106527         2.8987 
  60   0.0000       0.111134         3.0241 
  61   0.0000       0.114903         3.1267 
  62   0.0000       0.124512         3.3881 
  63   0.0000       0.128844         3.5060 
  64   0.0000       0.146106         3.9758 
  65   0.0000       0.157605         4.2886 
  66   0.0000       0.169600         4.6150 
  67   0.0000       0.179697         4.8898 
  68   0.0000       0.184426         5.0185 
  69   0.0000       0.185405         5.0451 
  70   0.0000       0.202814         5.5189 
  71   0.0000       0.213111         5.7990 
  72   0.0000       0.216949         5.9035 
  73   0.0000       0.220894         6.0108 
  74   0.0000       0.226918         6.1748 
  75   0.0000       0.229715         6.2509 
  76   0.0000       0.235027         6.3954 
  77   0.0000       0.243647         6.6300 
  78   0.0000       0.254186         6.9167 
  79   0.0000       0.260737         7.0950 
  80   0.0000       0.268371         7.3027 
  81   0.0000       0.275378         7.4934 
  82   0.0000       0.282778         7.6948 
  83   0.0000       0.287178         7.8145 
  84   0.0000       0.301351         8.2002 
  85   0.0000       0.302245         8.2245 
  86   0.0000       0.315575         8.5872 
  87   0.0000       0.318303         8.6615 
  88   0.0000       0.325040         8.8448 
  89   0.0000       0.330312         8.9883 
  90   0.0000       0.341121         9.2824 
  91   0.0000       0.347209         9.4480 
  92   0.0000       0.358889         9.7659 
  93   0.0000       0.376075        10.2335 
  94   0.0000       0.379188        10.3182 
  95   0.0000       0.391969        10.6660 
  96   0.0000       0.395440        10.7605 
  97   0.0000       0.405253        11.0275 
  98   0.0000       0.414337        11.2747 
  99   0.0000       0.417418        11.3585 
 100   0.0000       0.426125        11.5954 
 101   0.0000       0.427038        11.6203 
 102   0.0000       0.433968        11.8089 
 103   0.0000       0.437619        11.9082 
 104   0.0000       0.444683        12.1004 
 105   0.0000       0.457933        12.4610 
 106   0.0000       0.463038        12.5999 
 107   0.0000       0.464881        12.6500 
 108   0.0000       0.470074        12.7914 
 109   0.0000       0.473958        12.8971 
 110   0.0000       0.477327        12.9887 
 111   0.0000       0.481783        13.1100 
 112   0.0000       0.495213        13.4754 
 113   0.0000       0.496960        13.5230 
 114   0.0000       0.508605        13.8399 
 115   0.0000       0.514521        14.0008 
 116   0.0000       0.525000        14.2860 
 117   0.0000       0.528230        14.3739 
 118   0.0000       0.533244        14.5103 
 119   0.0000       0.558438        15.1959 
 120   0.0000       0.565459        15.3869 
 121   0.0000       0.569579        15.4990 
 122   0.0000       0.572467        15.5776 
 123   0.0000       0.581465        15.8225 
 124   0.0000       0.597419        16.2566 
 125   0.0000       0.600210        16.3325 
 126   0.0000       0.609618        16.5886 
 127   0.0000       0.631751        17.1908 
 128   0.0000       0.634066        17.2538 
 129   0.0000       0.641342        17.4518 
 130   0.0000       0.655485        17.8367 
 131   0.0000       0.657085        17.8802 
 132   0.0000       0.662740        18.0341 
 133   0.0000       0.670374        18.2418 
 134   0.0000       0.696632        18.9563 
 135   0.0000       0.700098        19.0506 
 136   0.0000       0.714465        19.4416 
 137   0.0000       0.740606        20.1529 
 138   0.0000       0.742220        20.1968 
 139   0.0000       0.755516        20.5586 
 140   0.0000       0.765826        20.8392 
 141   0.0000       0.771117        20.9832 
 142   0.0000       0.796944        21.6860 
 143   0.0000       0.808142        21.9907 
 144   0.0000       0.828412        22.5422 
 145   0.0000       0.840439        22.8695 
 146   0.0000       0.860765        23.4226 
 147   0.0000       0.864818        23.5329 
 148   0.0000       0.877847        23.8874 
 149   0.0000       0.886267        24.1165 
 150   0.0000       0.908846        24.7309 
 151   0.0000       0.923490        25.1294 
 152   0.0000       0.943075        25.6624 
 153   0.0000       0.957962        26.0675 
 154   0.0000       0.981033        26.6953 
 155   0.0000       0.996999        27.1297 
 156   0.0000       1.012719        27.5575 
 157   0.0000       1.016139        27.6506 
 158   0.0000       1.036055        28.1925 
 159   0.0000       1.050762        28.5927 
 160   0.0000       1.058105        28.7925 
 161   0.0000       1.069188        29.0941 
 162   0.0000       1.086422        29.5630 
 163   0.0000       1.095339        29.8057 
 164   0.0000       1.119971        30.4760 
 165   0.0000       1.136476        30.9251 
 166   0.0000       1.148730        31.2585 
 167   0.0000       1.167101        31.7584 
 168   0.0000       1.180590        32.1255 
 169   0.0000       1.194443        32.5024 
 170   0.0000       1.199803        32.6483 
 171   0.0000       1.213720        33.0270 
 172   0.0000       1.215598        33.0781 
 173   0.0000       1.246327        33.9143 
 174   0.0000       1.250744        34.0345 
 175   0.0000       1.269671        34.5495 
 176   0.0000       1.272785        34.6342 
 177   0.0000       1.284303        34.9477 
 178   0.0000       1.291207        35.1355 
 179   0.0000       1.293138        35.1881 
 180   0.0000       1.312609        35.7179 
 181   0.0000       1.328952        36.1626 
 182   0.0000       1.339436        36.4479 
 183   0.0000       1.357497        36.9394 
 184   0.0000       1.393536        37.9200 
 185   0.0000       1.397506        38.0281 
 186   0.0000       1.419524        38.6272 
 187   0.0000       1.422278        38.7022 
 188   0.0000       1.443811        39.2881 
 189   0.0000       1.456732        39.6397 
 190   0.0000       1.467291        39.9270 
 191   0.0000       1.475047        40.1381 
 192   0.0000       1.478134        40.2221 
 193   0.0000       1.508662        41.0528 
 194   0.0000       1.519139        41.3379 
 195   0.0000       1.528841        41.6019 
 196   0.0000       1.544721        42.0340 
 197   0.0000       1.553740        42.2794 
 198   0.0000       1.561402        42.4879 
 199   0.0000       1.570852        42.7451 
 200   0.0000       1.577227        42.9185 
 201   0.0000       1.584859        43.1262 
 202   0.0000       1.611839        43.8604 
 203   0.0000       1.619888        44.0794 
 204   0.0000       1.625517        44.2326 
 205   0.0000       1.643349        44.7178 
 206   0.0000       1.651026        44.9267 
 207   0.0000       1.657593        45.1054 
 208   0.0000       1.660316        45.1795 
 209   0.0000       1.680897        45.7395 
 210   0.0000       1.685920        45.8762 
 211   0.0000       1.688261        45.9399 
 212   0.0000       1.708500        46.4907 
 213   0.0000       1.721200        46.8362 
 214   0.0000       1.729770        47.0694 
 215   0.0000       1.736210        47.2447 
 216   0.0000       1.750121        47.6232 
 217   0.0000       1.760137        47.8958 
 218   0.0000       1.767961        48.1087 
 219   0.0000       1.774444        48.2851 
 220   0.0000       1.790780        48.7296 
 221   0.0000       1.793604        48.8064 
 222   0.0000       1.797602        48.9152 
 223   0.0000       1.812196        49.3124 
 224   0.0000       1.838042        50.0157 
 225   0.0000       1.857873        50.5553 
 226   0.0000       1.900168        51.7062 
 227   0.0000       1.907075        51.8942 
 228   0.0000       1.939442        52.7749 
 229   0.0000       1.951696        53.1084 
 230   0.0000       1.963867        53.4395 
 231   0.0000       1.990651        54.1684 
 232   0.0000       2.004484        54.5448 
 233   0.0000       2.015801        54.8527 
 234   0.0000       2.044193        55.6253 
 235   0.0000       2.051138        55.8143 
 236   0.0000       2.055220        55.9254 
 237   0.0000       2.065318        56.2002 
 238   0.0000       2.072415        56.3933 
 239   0.0000       2.093878        56.9773 
 240   0.0000       2.113538        57.5123 
 241   0.0000       2.122347        57.7520 
 242   0.0000       2.140993        58.2594 
 243   0.0000       2.152812        58.5810 
 244   0.0000       2.161019        58.8043 
 245   0.0000       2.177296        59.2472 
 246   0.0000       2.192445        59.6594 
 247   0.0000       2.208930        60.1081 
 248   0.0000       2.232683        60.7544 
 249   0.0000       2.249103        61.2012 
 250   0.0000       2.258341        61.4526 
 251   0.0000       2.283343        62.1329 
 252   0.0000       2.298811        62.5538 
 253   0.0000       2.315146        62.9983 
 254   0.0000       2.351287        63.9818 
 255   0.0000       2.354497        64.0691 
 256   0.0000       2.363054        64.3020 
 257   0.0000       2.384216        64.8778 
 258   0.0000       2.390541        65.0499 
 259   0.0000       2.418346        65.8065 
 260   0.0000       2.433674        66.2236 
 261   0.0000       2.436352        66.2965 
 262   0.0000       2.444761        66.5253 
 263   0.0000       2.463741        67.0418 
 264   0.0000       2.470391        67.2228 
 265   0.0000       2.507532        68.2334 
 266   0.0000       2.509898        68.2978 
 267   0.0000       2.546577        69.2959 
 268   0.0000       2.556545        69.5671 
 269   0.0000       2.564796        69.7917 
 270   0.0000       2.578806        70.1729 
 271   0.0000       2.587548        70.4107 
 272   0.0000       2.593315        70.5677 
 273   0.0000       2.607964        70.9663 
 274   0.0000       2.624846        71.4257 
 275   0.0000       2.629012        71.5391 
 276   0.0000       2.640170        71.8427 
 277   0.0000       2.651404        72.1484 
 278   0.0000       2.660098        72.3849 
 279   0.0000       2.666329        72.5545 
 280   0.0000       2.671373        72.6918 
 281   0.0000       2.674727        72.7830 
 282   0.0000       2.698217        73.4222 
 283   0.0000       2.707966        73.6875 
 284   0.0000       2.714535        73.8663 
 285   0.0000       2.725423        74.1625 
 286   0.0000       2.734694        74.4148 
 287   0.0000       2.743044        74.6420 
 288   0.0000       2.766978        75.2933 
 289   0.0000       2.776199        75.5442 
 290   0.0000       2.789602        75.9089 
 291   0.0000       2.791195        75.9523 
 292   0.0000       2.799404        76.1756 
 293   0.0000       2.802518        76.2604 
 294   0.0000       2.814877        76.5967 
 295   0.0000       2.852716        77.6264 
 296   0.0000       2.858264        77.7773 
 297   0.0000       2.872483        78.1642 
 298   0.0000       2.886566        78.5474 
 299   0.0000       2.903557        79.0098 
 300   0.0000       2.906985        79.1031 
 301   0.0000       2.919506        79.4438 
 302   0.0000       2.921514        79.4984 
 303   0.0000       2.931201        79.7620 
 304   0.0000       2.967653        80.7540 
 305   0.0000       2.970588        80.8338 
 306   0.0000       2.988629        81.3247 
 307   0.0000       2.997112        81.5556 
 308   0.0000       3.005869        81.7939 
 309   0.0000       3.021254        82.2125 
 310   0.0000       3.033646        82.5497 
 311   0.0000       3.044760        82.8521 
 312   0.0000       3.056045        83.1592 
 313   0.0000       3.076438        83.7141 
 314   0.0000       3.089714        84.0754 
 315   0.0000       3.097861        84.2971 
 316   0.0000       3.105089        84.4938 
 317   0.0000       3.113433        84.7208 
 318   0.0000       3.120281        84.9072 
 319   0.0000       3.130046        85.1729 
 320   0.0000       3.137523        85.3763 
 321   0.0000       3.147887        85.6584 
 322   0.0000       3.165636        86.1413 
 323   0.0000       3.169752        86.2533 
 324   0.0000       3.177126        86.4540 
 325   0.0000       3.197707        87.0140 
 326   0.0000       3.200642        87.0939 
 327   0.0000       3.212952        87.4289 
 328   0.0000       3.218842        87.5891 
 329   0.0000       3.243956        88.2725 
 330   0.0000       3.246758        88.3488 
 331   0.0000       3.267685        88.9182 
 332   0.0000       3.284958        89.3883 
 333   0.0000       3.290545        89.5403 
 334   0.0000       3.301903        89.8494 
 335   0.0000       3.320936        90.3673 
 336   0.0000       3.339684        90.8774 
 337   0.0000       3.352108        91.2155 
 338   0.0000       3.364070        91.5410 
 339   0.0000       3.370920        91.7274 
 340   0.0000       3.399769        92.5124 
 341   0.0000       3.405615        92.6715 
 342   0.0000       3.415411        92.9381 
 343   0.0000       3.418483        93.0216 
 344   0.0000       3.444107        93.7189 
 345   0.0000       3.460518        94.1655 
 346   0.0000       3.472692        94.4967 
 347   0.0000       3.478853        94.6644 
 348   0.0000       3.493743        95.0696 
 349   0.0000       3.512682        95.5849 
 350   0.0000       3.537834        96.2694 
 351   0.0000       3.567664        97.0811 
 352   0.0000       3.595307        97.8333 
 353   0.0000       3.613757        98.3353 
 354   0.0000       3.666913        99.7818 
 355   0.0000       3.701167       100.7139 
 356   0.0000       3.710922       100.9793 
 357   0.0000       3.721985       101.2803 
 358   0.0000       3.735326       101.6434 
 359   0.0000       3.762178       102.3741 
 360   0.0000       3.766315       102.4866 
 361   0.0000       3.809575       103.6638 
 362   0.0000       3.819619       103.9371 
 363   0.0000       3.858436       104.9934 
 364   0.0000       3.871119       105.3385 
 365   0.0000       3.896935       106.0410 
 366   0.0000       3.912568       106.4664 
 367   0.0000       3.946178       107.3809 
 368   0.0000       3.965928       107.9184 
 369   0.0000       4.000289       108.8534 
 370   0.0000       4.009944       109.1161 
 371   0.0000       4.040838       109.9568 
 372   0.0000       4.061456       110.5178 
 373   0.0000       4.075350       110.8959 
 374   0.0000       4.093352       111.3858 
 375   0.0000       4.096939       111.4834 
 376   0.0000       4.139995       112.6550 
 377   0.0000       4.158804       113.1668 
 378   0.0000       4.173759       113.5738 
 379   0.0000       4.180845       113.7666 
 380   0.0000       4.185185       113.8847 
 381   0.0000       4.238024       115.3225 
 382   0.0000       4.267641       116.1284 
 383   0.0000       4.285740       116.6209 
 384   0.0000       4.321809       117.6024 
 385   0.0000       4.331415       117.8638 
 386   0.0000       4.373471       119.0082 
 387   0.0000       4.386392       119.3598 
 388   0.0000       4.391007       119.4854 
 389   0.0000       4.459049       121.3369 
 390   0.0000       4.494753       122.3084 
 391   0.0000       4.533647       123.3668 
 392   0.0000       4.559337       124.0659 
 393   0.0000       4.571900       124.4077 
 394   0.0000       4.630381       125.9991 
 395   0.0000       4.645690       126.4157 
 396   0.0000       4.690680       127.6399 
 397   0.0000       4.713933       128.2726 
 398   0.0000       4.717005       128.3562 
 399   0.0000       4.734459       128.8312 
 400   0.0000       4.788904       130.3127 
 401   0.0000       4.805063       130.7524 
 402   0.0000       4.805542       130.7654 
 403   0.0000       4.813944       130.9941 
 404   0.0000       4.822932       131.2387 
 405   0.0000       4.873886       132.6252 
 406   0.0000       4.909150       133.5848 
 407   0.0000       4.930499       134.1657 
 408   0.0000       4.933984       134.2605 
 409   0.0000       4.963388       135.0607 
 410   0.0000       5.052459       137.4844 
 411   0.0000       5.067716       137.8996 
 412   0.0000       5.080891       138.2581 
 413   0.0000       5.127544       139.5276 
 414   0.0000       5.133355       139.6857 
 415   0.0000       5.140420       139.8779 
 416   0.0000       5.150900       140.1631 
 417   0.0000       5.159598       140.3998 
 418   0.0000       5.170415       140.6942 
 419   0.0000       5.179478       140.9408 
 420   0.0000       5.223352       142.1346 
 421   0.0000       5.228829       142.2837 
 422   0.0000       5.234222       142.4304 
 423   0.0000       5.297719       144.1583 
 424   0.0000       5.344071       145.4196 
 425   0.0000       5.385971       146.5597 
 426   0.0000       5.399332       146.9233 
 427   0.0000       5.410965       147.2398 
 428   0.0000       5.428156       147.7076 
 429   0.0000       5.449354       148.2845 
 430   0.0000       5.491502       149.4314 
 431   0.0000       5.618924       152.8987 
 432   0.0000       5.642790       153.5481 
 433   0.0000       5.674189       154.4025 
 434   0.0000       5.704752       155.2342 
 435   0.0000       5.731338       155.9576 
 436   0.0000       5.765584       156.8895 
 437   0.0000       5.891444       160.3143 
 438   0.0000       5.937655       161.5718 
 439   0.0000       5.974790       162.5823 
 440   0.0000       6.123547       166.6302 
 441   0.0000       6.252573       170.1412 
 442   0.0000       6.279626       170.8773 
 443   0.0000       6.327026       172.1671 
 444   0.0000       6.376119       173.5030 
 445   0.0000       6.385175       173.7495 
 446   0.0000       6.408043       174.3717 
 447   0.0000       6.449096       175.4888 
 448   0.0000       6.450302       175.5216 
 449   0.0000       6.466391       175.9594 
 450   0.0000       6.688387       182.0003 
 451   0.0000       6.786829       184.6790 
 452   0.0000       6.848064       186.3453 
 453   0.0000       6.863681       186.7703 
 454   0.0000       6.900812       187.7807 
 455   0.0000       7.011146       190.7830 
 456   0.0000       7.077894       192.5993 
 457   0.0000       7.112203       193.5329 
 458   0.0000       7.234715       196.8666 
 459   0.0000       7.252634       197.3542 
 460   0.0000       7.419656       201.8991 
 461   0.0000       7.510584       204.3734 
 462   0.0000      22.185350       603.6941 
 463   0.0000      22.217443       604.5673 
 464   0.0000      22.521747       612.8479 
 465   0.0000      22.590252       614.7120 
 466   0.0000      22.610725       615.2691 
 467   0.0000      22.751141       619.0900 
 468   0.0000      22.771840       619.6533 
 469   0.0000      22.994956       625.7246 
 470   0.0000      32.327328       879.6713 
 471   0.0000      32.502900       884.4489 
 472   0.0000      43.738349      1190.1810 
 473   0.0000      43.935875      1195.5559 
 474   0.0000      44.025456      1197.9936 

                    ********************************
                    * MULLIKEN POPULATION ANALYSIS *
                    ********************************

-----------------------
MULLIKEN ATOMIC CHARGES
-----------------------
   0 C :   -0.110803
   1 H :    0.134757
   2 N :    0.426164
   3 O :   -0.453354
   4 O :   -0.462582
   5 H :    0.133206
   6 C :   -0.307912
   7 H :    0.343458
   8 H :    0.150538
   9 C :   -0.369912
  10 H :    0.137352
  11 C :    0.008066
  12 C :   -0.125593
  13 C :   -0.100965
  14 C :   -0.127701
  15 C :    0.005178
  16 N :   -0.256063
  17 H :    0.186483
  18 H :    0.166554
  19 H :    0.167027
  20 H :    0.174214
  21 H :    0.169197
  22 H :    0.373262
  23 H :    0.339109
  24 O :   -0.599680
Sum of atomic charges:   -0.0000000

--------------------------------
MULLIKEN REDUCED ORBITAL CHARGES
--------------------------------
  0 C s       :     3.213842  s :     3.213842
      pz      :     0.958548  p :     2.804610
      px      :     0.969773
      py      :     0.876290
      dz2     :     0.011674  d :     0.085049
      dxz     :     0.008779
      dyz     :     0.019571
      dx2y2   :     0.022661
      dxy     :     0.022363
      f0      :     0.000506  f :     0.007302
      f+1     :     0.001149
      f-1     :     0.001023
      f+2     :     0.001395
      f-2     :     0.000677
      f+3     :     0.001531
      f-3     :     0.001022
  1 H s       :     0.842718  s :     0.842718
      pz      :     0.009834  p :     0.022525
      px      :     0.007567
      py      :     0.005125
  2 N s       :     3.299309  s :     3.299309
      pz      :     1.013332  p :     3.025530
      px      :     1.049178
      py      :     0.963020
      dz2     :     0.051696  d :     0.235100
      dxz     :     0.032184
      dyz     :     0.047354
      dx2y2   :     0.053986
      dxy     :     0.049880
      f0      :     0.001554  f :     0.013897
      f+1     :     0.001629
      f-1     :     0.002208
      f+2     :     0.002608
      f-2     :     0.001673
      f+3     :     0.002455
      f-3     :     0.001771
  3 O s       :     3.880157  s :     3.880157
      pz      :     1.318927  p :     4.532041
      px      :     1.546190
      py      :     1.666923
      dz2     :     0.009764  d :     0.038095
      dxz     :     0.010486
      dyz     :     0.007723
      dx2y2   :     0.003928
      dxy     :     0.006194
      f0      :     0.000421  f :     0.003061
      f+1     :     0.000635
      f-1     :     0.000413
      f+2     :     0.000427
      f-2     :     0.000747
      f+3     :     0.000177
      f-3     :     0.000241
  4 O s       :     3.876036  s :     3.876036
      pz      :     1.602051  p :     4.545602
      px      :     1.725425
      py      :     1.218126
      dz2     :     0.004952  d :     0.037885
      dxz     :     0.002695
      dyz     :     0.011053
      dx2y2   :     0.011253
      dxy     :     0.007932
      f0      :     0.000309  f :     0.003058
      f+1     :     0.000051
      f-1     :     0.000534
      f+2     :     0.000583
      f-2     :     0.000418
      f+3     :     0.000540
      f-3     :     0.000623
  5 H s       :     0.844697  s :     0.844697
      pz      :     0.009743  p :     0.022097
      px      :     0.007622
      py      :     0.004732
  6 C s       :     3.230950  s :     3.230950
      pz      :     1.109802  p :     2.971882
      px      :     0.897405
      py      :     0.964675
      dz2     :     0.009576  d :     0.096253
      dxz     :     0.014795
      dyz     :     0.026059
      dx2y2   :     0.020197
      dxy     :     0.025626
      f0      :     0.000873  f :     0.008828
      f+1     :     0.001060
      f-1     :     0.000833
      f+2     :     0.001154
      f-2     :     0.001197
      f+3     :     0.001961
      f-3     :     0.001749
  7 H s       :     0.594353  s :     0.594353
      pz      :     0.023682  p :     0.062189
      px      :     0.025593
      py      :     0.012914
  8 H s       :     0.826730  s :     0.826730
      pz      :     0.011850  p :     0.022732
      px      :     0.005318
      py      :     0.005564
  9 C s       :     3.295301  s :     3.295301
      pz      :     1.014518  p :     3.027755
      px      :     1.003907
      py      :     1.009331
      dz2     :     0.008744  d :     0.042026
      dxz     :     0.010132
      dyz     :     0.005113
      dx2y2   :     0.012350
      dxy     :     0.005688
      f0      :     0.000242  f :     0.004829
      f+1     :     0.001042
      f-1     :     0.000542
      f+2     :     0.000967
      f-2     :     0.000651
      f+3     :     0.000468
      f-3     :     0.000916
 10 H s       :     0.840160  s :     0.840160
      pz      :     0.004899  p :     0.022488
      px      :     0.004715
      py      :     0.012873
 11 C s       :     3.178875  s :     3.178875
      pz      :     0.870897  p :     2.697616
      px      :     0.939776
      py      :     0.886942
      dz2     :     0.020640  d :     0.104737
      dxz     :     0.034270
      dyz     :     0.021922
      dx2y2   :     0.016203
      dxy     :     0.011703
      f0      :     0.002486  f :     0.010707
      f+1     :     0.002147
      f-1     :     0.001856
      f+2     :     0.000956
      f-2     :     0.001279
      f+3     :     0.001485
      f-3     :     0.000498
 12 C s       :     3.214442  s :     3.214442
      pz      :     0.977185  p :     2.826522
      px      :     0.906934
      py      :     0.942402
      dz2     :     0.019680  d :     0.077328
      dxz     :     0.018269
      dyz     :     0.012542
      dx2y2   :     0.014268
      dxy     :     0.012569
      f0      :     0.001430  f :     0.007301
      f+1     :     0.001064
      f-1     :     0.000824
      f+2     :     0.000652
      f-2     :     0.001216
      f+3     :     0.001553
      f-3     :     0.000562
 13 C s       :     3.224429  s :     3.224429
      pz      :     0.898268  p :     2.788098
      px      :     0.980809
      py      :     0.909021
      dz2     :     0.025822  d :     0.081152
      dxz     :     0.019467
      dyz     :     0.019924
      dx2y2   :     0.006961
      dxy     :     0.008977
      f0      :     0.001622  f :     0.007286
      f+1     :     0.001360
      f-1     :     0.001081
      f+2     :     0.000979
      f-2     :     0.001037
      f+3     :     0.000516
      f-3     :     0.000692
 14 C s       :     3.211938  s :     3.211938
      pz      :     0.953638  p :     2.831216
      px      :     0.935130
      py      :     0.942449
      dz2     :     0.014887  d :     0.077248
      dxz     :     0.026116
      dyz     :     0.014153
      dx2y2   :     0.012051
      dxy     :     0.010041
      f0      :     0.001412  f :     0.007298
      f+1     :     0.001346
      f-1     :     0.000917
      f+2     :     0.000658
      f-2     :     0.000958
      f+3     :     0.001472
      f-3     :     0.000536
 15 C s       :     3.184091  s :     3.184091
      pz      :     0.930333  p :     2.695819
      px      :     0.868163
      py      :     0.897324
      dz2     :     0.023239  d :     0.104233
      dxz     :     0.026556
      dyz     :     0.018544
      dx2y2   :     0.019761
      dxy     :     0.016133
      f0      :     0.001999  f :     0.010679
      f+1     :     0.001978
      f-1     :     0.001229
      f+2     :     0.001304
      f-2     :     0.001896
      f+3     :     0.001663
      f-3     :     0.000610
 16 N s       :     3.579519  s :     3.579519
      pz      :     1.033203  p :     3.605175
      px      :     1.313438
      py      :     1.258534
      dz2     :     0.019415  d :     0.067263
      dxz     :     0.016015
      dyz     :     0.015290
      dx2y2   :     0.006903
      dxy     :     0.009639
      f0      :     0.000995  f :     0.004107
      f+1     :     0.000836
      f-1     :     0.000683
      f+2     :     0.000550
      f-2     :     0.000514
      f+3     :     0.000213
      f-3     :     0.000317
 17 H s       :     0.791600  s :     0.791600
      pz      :     0.009423  p :     0.021917
      px      :     0.007971
      py      :     0.004523
 18 H s       :     0.811026  s :     0.811026
      pz      :     0.013001  p :     0.022420
      px      :     0.004353
      py      :     0.005067
 19 H s       :     0.810552  s :     0.810552
      pz      :     0.010538  p :     0.022421
      px      :     0.007201
      py      :     0.004682
 20 H s       :     0.804008  s :     0.804008
      pz      :     0.012314  p :     0.021778
      px      :     0.004497
      py      :     0.004967
 21 H s       :     0.808734  s :     0.808734
      pz      :     0.003728  p :     0.022069
      px      :     0.011711
      py      :     0.006630
 22 H s       :     0.582647  s :     0.582647
      pz      :     0.013206  p :     0.044091
      px      :     0.011015
      py      :     0.019870
 23 H s       :     0.582040  s :     0.582040
      pz      :     0.008317  p :     0.078851
      px      :     0.051373
      py      :     0.019161
 24 O s       :     3.758854  s :     3.758854
      pz      :     1.824530  p :     4.819803
      px      :     1.595003
      py      :     1.400269
      dz2     :     0.002989  d :     0.020016
      dxz     :     0.004329
      dyz     :     0.003973
      dx2y2   :     0.005571
      dxy     :     0.003153
      f0      :     0.000146  f :     0.001008
      f+1     :     0.000145
      f-1     :     0.000180
      f+2     :     0.000104
      f-2     :     0.000080
      f+3     :     0.000017
      f-3     :     0.000337


                     *******************************
                     * LOEWDIN POPULATION ANALYSIS *
                     *******************************

----------------------
LOEWDIN ATOMIC CHARGES
----------------------
   0 C :   -0.236334
   1 H :    0.145436
   2 N :   -0.062539
   3 O :   -0.159236
   4 O :   -0.173389
   5 H :    0.121391
   6 C :   -0.324963
   7 H :    0.184828
   8 H :    0.142068
   9 C :   -0.244634
  10 H :    0.122014
  11 C :   -0.159614
  12 C :   -0.120892
  13 C :   -0.084668
  14 C :   -0.121222
  15 C :   -0.158651
  16 N :    0.172160
  17 H :    0.152982
  18 H :    0.160185
  19 H :    0.160088
  20 H :    0.153620
  21 H :    0.160649
  22 H :    0.180356
  23 H :    0.159296
  24 O :   -0.168931

-------------------------------
LOEWDIN REDUCED ORBITAL CHARGES
-------------------------------
  0 C s       :     2.792395  s :     2.792395
      pz      :     0.971483  p :     2.978537
      px      :     0.977184
      py      :     1.029870
      dz2     :     0.053428  d :     0.421350
      dxz     :     0.055246
      dyz     :     0.105866
      dx2y2   :     0.108441
      dxy     :     0.098369
      f0      :     0.003851  f :     0.044051
      f+1     :     0.004834
      f-1     :     0.006910
      f+2     :     0.007132
      f-2     :     0.005316
      f+3     :     0.010039
      f-3     :     0.005969
  1 H s       :     0.794136  s :     0.794136
      pz      :     0.025843  p :     0.060428
      px      :     0.019674
      py      :     0.014912
  2 N s       :     2.936574  s :     2.936574
      pz      :     1.078906  p :     3.305336
      px      :     1.127634
      py      :     1.098796
      dz2     :     0.142574  d :     0.750438
      dxz     :     0.114049
      dyz     :     0.166608
      dx2y2   :     0.172802
      dxy     :     0.154405
      f0      :     0.007993  f :     0.070191
      f+1     :     0.008158
      f-1     :     0.010739
      f+2     :     0.013995
      f-2     :     0.006696
      f+3     :     0.013593
      f-3     :     0.009016
  3 O s       :     3.513983  s :     3.513983
      pz      :     1.385866  p :     4.541568
      px      :     1.528146
      py      :     1.627556
      dz2     :     0.020668  d :     0.093524
      dxz     :     0.028040
      dyz     :     0.020346
      dx2y2   :     0.010509
      dxy     :     0.013961
      f0      :     0.001186  f :     0.010161
      f+1     :     0.002182
      f-1     :     0.001420
      f+2     :     0.001642
      f-2     :     0.002516
      f+3     :     0.000567
      f-3     :     0.000647
  4 O s       :     3.518840  s :     3.518840
      pz      :     1.569650  p :     4.551863
      px      :     1.649971
      py      :     1.332242
      dz2     :     0.012126  d :     0.092661
      dxz     :     0.005540
      dyz     :     0.027373
      dx2y2   :     0.027372
      dxy     :     0.020249
      f0      :     0.001040  f :     0.010024
      f+1     :     0.000133
      f-1     :     0.001751
      f+2     :     0.002025
      f-2     :     0.001252
      f+3     :     0.001882
      f-3     :     0.001941
  5 H s       :     0.815917  s :     0.815917
      pz      :     0.026398  p :     0.062692
      px      :     0.020645
      py      :     0.015650
  6 C s       :     2.812521  s :     2.812521
      pz      :     1.051802  p :     3.042216
      px      :     0.947751
      py      :     1.042662
      dz2     :     0.060188  d :     0.417173
      dxz     :     0.061351
      dyz     :     0.087777
      dx2y2   :     0.096095
      dxy     :     0.111762
      f0      :     0.004874  f :     0.053053
      f+1     :     0.005644
      f-1     :     0.005015
      f+2     :     0.007607
      f-2     :     0.007303
      f+3     :     0.011856
      f-3     :     0.010754
  7 H s       :     0.612097  s :     0.612097
      pz      :     0.080107  p :     0.203075
      px      :     0.083909
      py      :     0.039060
  8 H s       :     0.792696  s :     0.792696
      pz      :     0.034999  p :     0.065236
      px      :     0.014894
      py      :     0.015343
  9 C s       :     2.855065  s :     2.855065
      pz      :     1.035611  p :     3.126211
      px      :     1.046144
      py      :     1.044456
      dz2     :     0.043015  d :     0.235773
      dxz     :     0.052166
      dyz     :     0.031790
      dx2y2   :     0.066706
      dxy     :     0.042096
      f0      :     0.002131  f :     0.027585
      f+1     :     0.004245
      f-1     :     0.003500
      f+2     :     0.004464
      f-2     :     0.005049
      f+3     :     0.004172
      f-3     :     0.004023
 10 H s       :     0.814850  s :     0.814850
      pz      :     0.015152  p :     0.063136
      px      :     0.013762
      py      :     0.034221
 11 C s       :     2.776450  s :     2.776450
      pz      :     0.949830  p :     2.846919
      px      :     1.004397
      py      :     0.892692
      dz2     :     0.101933  d :     0.473682
      dxz     :     0.170591
      dyz     :     0.089887
      dx2y2   :     0.057968
      dxy     :     0.053303
      f0      :     0.016073  f :     0.062563
      f+1     :     0.012435
      f-1     :     0.010228
      f+2     :     0.005123
      f-2     :     0.009038
      f+3     :     0.004992
      f-3     :     0.004673
 12 C s       :     2.769065  s :     2.769065
      pz      :     1.007224  p :     2.942635
      px      :     1.017203
      py      :     0.918208
      dz2     :     0.103630  d :     0.365812
      dxz     :     0.093753
      dyz     :     0.048934
      dx2y2   :     0.058597
      dxy     :     0.060898
      f0      :     0.008945  f :     0.043381
      f+1     :     0.007633
      f-1     :     0.003770
      f+2     :     0.004942
      f-2     :     0.007682
      f+3     :     0.005082
      f-3     :     0.005326
 13 C s       :     2.770310  s :     2.770310
      pz      :     1.065847  p :     2.886493
      px      :     0.959971
      py      :     0.860676
      dz2     :     0.134995  d :     0.383942
      dxz     :     0.100446
      dyz     :     0.079443
      dx2y2   :     0.024182
      dxy     :     0.044876
      f0      :     0.011348  f :     0.043924
      f+1     :     0.008924
      f-1     :     0.005075
      f+2     :     0.007106
      f-2     :     0.007631
      f+3     :     0.000927
      f-3     :     0.002915
 14 C s       :     2.769177  s :     2.769177
      pz      :     1.021374  p :     2.942924
      px      :     1.001497
      py      :     0.920054
      dz2     :     0.085967  d :     0.365754
      dxz     :     0.125323
      dyz     :     0.057932
      dx2y2   :     0.047222
      dxy     :     0.049310
      f0      :     0.010501  f :     0.043367
      f+1     :     0.007682
      f-1     :     0.005441
      f+2     :     0.003334
      f-2     :     0.006143
      f+3     :     0.005219
[...]
     49      -0.000002   0.000005   0.000112  -0.000008   0.000059   0.000016
     50       0.000008  -0.000004   0.000185   0.000385  -0.000075   0.001169
     51      -0.004916   0.002366   0.062818  -0.285602   0.498624  -0.139661
     52      -0.001913   0.000894   0.023733  -0.108925   0.190250  -0.053996
     53       0.005852  -0.002790  -0.075123   0.338536  -0.591340   0.162276
     54      -0.000223   0.000154   0.060902  -0.075298   0.048646   0.136880
     55      -0.000273   0.000178   0.066993  -0.083631   0.056188   0.151150
     56      -0.000950   0.000628   0.224426  -0.283188   0.198087   0.508304
     57      -0.000029   0.000027   0.222091   0.057089  -0.010076  -0.428763
     58      -0.000012   0.000017   0.078645   0.019440  -0.004266  -0.152222
     59       0.000050  -0.000039  -0.315124  -0.086489   0.009671   0.605803
     60       0.000118  -0.000075   0.175963   0.228150   0.108787   0.084363
     61       0.000102  -0.000068   0.168062   0.217984   0.104071   0.079842
     62       0.000291  -0.000184   0.483544   0.624759   0.298657   0.222464
     63       0.000059  -0.000100  -0.590186   0.373003   0.381618  -0.062242
     64       0.000028  -0.000058  -0.344887   0.218049   0.222975  -0.036985
     65       0.000001  -0.000012  -0.093414   0.059251   0.059987  -0.014155
     66       0.000061   0.000041   0.000164   0.000077   0.000297   0.000020
     67      -0.000372  -0.000437   0.000564   0.000225   0.000328   0.000285
     68       0.000306   0.000142  -0.000105  -0.000093   0.000053  -0.000069
     69      -0.000194  -0.000316  -0.003991  -0.001249  -0.007838  -0.000247
     70      -0.000145  -0.000250  -0.002262  -0.001080  -0.004046  -0.000363
     71       0.000025  -0.000079  -0.001467  -0.002995   0.000352  -0.001507
     72      -0.000028   0.000104   0.000254   0.000100   0.000468   0.000030
     73       0.000054  -0.000005   0.000104   0.000045   0.000229  -0.000007
     74       0.000040  -0.000061   0.000022   0.000011   0.000033   0.000026
                 72         73         74    
      0      -0.000822   0.009865   0.000044
      1       0.000545  -0.006429   0.000093
      2      -0.001104   0.013282  -0.000044
      3       0.008513  -0.102153   0.000127
      4      -0.006133   0.073638  -0.000053
      5       0.011617  -0.140068   0.000157
      6      -0.000010   0.000135  -0.000307
      7       0.000010  -0.000158  -0.000191
      8      -0.000009   0.000074  -0.000135
      9       0.000001  -0.000028   0.000110
     10      -0.000008   0.000117  -0.000045
     11       0.000007  -0.000062   0.000119
     12       0.000005  -0.000048   0.000069
     13       0.000000   0.000004   0.000133
     14      -0.000001  -0.000020  -0.000053
     15       0.023637  -0.328295  -0.000230
     16      -0.013931   0.194706   0.000135
     17       0.030876  -0.427161  -0.000264
     18       0.000004   0.000383   0.000550
     19      -0.000092   0.000473  -0.000237
     20       0.000000   0.000929  -0.000214
     21      -0.000295   0.000513  -0.010266
     22       0.000282   0.000366   0.011140
     23       0.000502   0.000138   0.002352
     24      -0.000082  -0.002790  -0.000444
     25      -0.000077   0.006315   0.000097
     26      -0.000055  -0.010834   0.000950
     27      -0.001314   0.018739  -0.000015
     28       0.006406  -0.080820  -0.000052
     29      -0.003694   0.049576  -0.000008
     30      -0.006948   0.086273  -0.000022
     31      -0.061292   0.759510  -0.000079
     32       0.014704  -0.181538   0.000007
     33      -0.018808  -0.004237   0.000057
     34      -0.007800  -0.001749   0.000043
     35       0.018595   0.004616   0.000154
     36       0.015625   0.001462   0.000012
     37       0.017389   0.001526   0.000012
     38       0.059032   0.004772   0.000048
     39       0.028023   0.001420   0.000015
     40       0.016288   0.000827   0.000001
     41       0.003770   0.000087   0.000005
     42       0.025361   0.000859  -0.000001
     43       0.008844   0.000296   0.000012
     44      -0.036926  -0.001325  -0.000035
     45      -0.007085  -0.000271   0.000024
     46      -0.006074  -0.000249  -0.000013
     47      -0.014627  -0.000767  -0.000173
     48      -0.000221  -0.000005  -0.000535
     49      -0.000153  -0.000006  -0.000336
     50      -0.000235  -0.000050   0.000034
     51       0.184629   0.045625   0.000202
     52       0.071193   0.017465   0.000112
     53      -0.214144  -0.053713  -0.000336
     54      -0.174165  -0.014376  -0.000249
     55      -0.193343  -0.015850  -0.000233
     56      -0.653958  -0.053169  -0.000626
     57      -0.283894  -0.009814  -0.000472
     58      -0.100473  -0.003476  -0.000196
     59       0.403258   0.013960   0.000495
     60       0.060084   0.002762   0.000150
     61       0.056395   0.002594   0.000241
     62       0.158380   0.007350   0.000595
     63      -0.296604  -0.014511  -0.000587
     64      -0.173234  -0.008458  -0.000366
     65      -0.046202  -0.002139  -0.000121
     66       0.000193   0.000050   0.078301
     67       0.001412   0.000217  -0.967019
     68      -0.000275  -0.000077   0.233394
     69      -0.005005  -0.000576   0.003338
     70      -0.002680  -0.000240   0.012922
     71      -0.000161   0.000212  -0.006410
     72       0.000295   0.000027  -0.004357
     73       0.000057  -0.000011   0.059910
     74       0.000020  -0.000002  -0.014280


-----------
IR SPECTRUM
-----------

 Mode   freq       eps      Int      T**2         TX        TY        TZ
       cm**-1   L/(mol*cm) km/mol    a.u.
----------------------------------------------------------------------------
  7:      5.79   0.000717    3.62  0.038650  ( 0.028747 -0.020258  0.193426)
  8:     25.84   0.000081    0.41  0.000976  ( 0.023828  0.020180 -0.000953)
  9:     36.29   0.000148    0.75  0.001271  (-0.011246  0.031578  0.012153)
 10:     67.42   0.003089   15.61  0.014296  ( 0.014056 -0.090764 -0.076553)
 11:     73.83   0.000191    0.97  0.000807  ( 0.009681 -0.009511 -0.024959)
 12:     96.70   0.001199    6.06  0.003869  (-0.054729 -0.011457 -0.027253)
 13:    102.24   0.001963    9.92  0.005992  (-0.017712 -0.056413 -0.049954)
 14:    116.71   0.007831   39.57  0.020938  (-0.112368 -0.090056 -0.014178)
 15:    172.50   0.040446  204.40  0.073169  (-0.107314 -0.215414 -0.123487)
 16:    196.80   0.036421  184.06  0.057752  ( 0.084851  0.202681  0.097331)
 17:    219.15   0.003230   16.32  0.004599  (-0.013036 -0.065597 -0.011221)
 18:    401.05   0.000420    2.12  0.000327  ( 0.016394 -0.005525 -0.005271)
 19:    402.96   0.000127    0.64  0.000098  ( 0.007571  0.001315  0.006278)
 20:    415.86   0.004354   22.01  0.003268  (-0.039297 -0.014481 -0.038906)
 21:    472.04   0.015640   79.04  0.010339  ( 0.045409  0.053177  0.073822)
 22:    492.87   0.017332   87.59  0.010974  (-0.005149  0.078723  0.068918)
 23:    549.55   0.007171   36.24  0.004072  ( 0.052978  0.018743 -0.030236)
 24:    644.52   0.016090   81.31  0.007790  ( 0.052961  0.063545  0.030783)
 25:    661.17   0.042591  215.24  0.020102  ( 0.090456  0.099365  0.045240)
 26:    665.13   0.000018    0.09  0.000008  (-0.001263  0.001534  0.002097)
 27:    714.45   0.016965   85.73  0.007410  ( 0.044515 -0.069083  0.025610)
 28:    724.58   0.013403   67.73  0.005772  ( 0.015332 -0.041583 -0.061709)
 29:    741.31   0.027959  141.29  0.011770  ( 0.097289 -0.017661 -0.044637)
 30:    761.63   0.009276   46.88  0.003801  ( 0.057205  0.022795  0.002934)
 31:    781.02   0.018618   94.09  0.007439  (-0.058288  0.062197  0.013158)
 32:    830.22   0.286755  1449.14  0.107786  ( 0.245893  0.208237  0.062928)
 33:    897.01   0.018148   91.71  0.006314  ( 0.022921 -0.046885 -0.059918)
 34:    901.02   0.002246   11.35  0.000778  ( 0.006976 -0.016978 -0.021001)
 35:    938.18   0.001184    5.98  0.000394  (-0.016994  0.003393 -0.009674)
 36:    979.29   0.000772    3.90  0.000246  ( 0.014626 -0.004381  0.003595)
 37:   1017.33   0.000308    1.56  0.000095  (-0.006432 -0.006905 -0.002354)
 38:   1026.96   0.095297  481.59  0.028958  ( 0.049101  0.141224  0.081258)
 39:   1033.47   0.010643   53.79  0.003214  (-0.041103  0.009079  0.037973)
 40:   1041.91   0.000017    0.08  0.000005  ( 0.000872 -0.001518 -0.001374)
 41:   1050.75   0.010840   54.78  0.003219  (-0.014273 -0.051777 -0.018297)
 42:   1064.34   0.048867  246.96  0.014328  (-0.064642 -0.081262 -0.059547)
 43:   1081.33   0.073357  370.72  0.021170  (-0.086656 -0.101345 -0.058226)
 44:   1087.51   0.002995   15.14  0.000859  ( 0.019472  0.019891 -0.009202)
 45:   1106.51   0.038754  195.85  0.010930  (-0.054496 -0.077798 -0.043672)
 46:   1173.47   0.001209    6.11  0.000322  (-0.004212 -0.000002  0.017429)
 47:   1188.20   0.012294   62.13  0.003229  (-0.051360 -0.010575 -0.021886)
 48:   1229.68   0.000328    1.66  0.000083  ( 0.002264 -0.007208 -0.005109)
 49:   1239.32   0.018623   94.11  0.004689  (-0.066041 -0.018005 -0.001949)
 50:   1284.37   0.027117  137.04  0.006589  (-0.011250 -0.076749  0.023911)
 51:   1299.48   0.004276   21.61  0.001027  ( 0.014780  0.000339  0.028432)
 52:   1311.25   0.034834  176.04  0.008290  (-0.004467 -0.086586  0.027802)
 53:   1375.43   0.014160   71.56  0.003213  (-0.037630 -0.020863 -0.036898)
 54:   1396.34   0.177775  898.40  0.039730  (-0.102733 -0.130335 -0.110404)
 55:   1422.92   0.054404  274.93  0.011931  (-0.060472 -0.061116 -0.067374)
 56:   1430.15   0.083504  422.00  0.018221  ( 0.001059 -0.127397  0.044607)
 57:   1468.09   0.027301  137.97  0.005803  ( 0.019623 -0.039271  0.062258)
 58:   1504.10   0.033541  169.50  0.006959  (-0.031646 -0.050335  0.058515)
 59:   1527.41   0.015578   78.72  0.003183  (-0.044916 -0.033874 -0.004220)
 60:   1581.73   0.019102   96.53  0.003769  ( 0.060125  0.007322  0.009999)
 61:   1604.27   0.010504   53.08  0.002043  (-0.023201  0.038611  0.003762)
 62:   1633.40   0.007644   38.63  0.001460  ( 0.007179 -0.018226 -0.032812)
 63:   1651.74   0.005997   30.31  0.001133  (-0.029635 -0.015358 -0.004353)
 64:   1666.31   0.012854   64.96  0.002407  (-0.037924 -0.031007 -0.002750)
 65:   3131.25   0.001921    9.71  0.000191  ( 0.010731  0.002395  0.008402)
 66:   3155.19   0.000359    1.81  0.000035  ( 0.003915 -0.004104  0.001819)
 67:   3166.75   0.000743    3.75  0.000073  (-0.001625 -0.007685  0.003391)
 68:   3189.05   0.000193    0.98  0.000019  ( 0.003415  0.001462 -0.002263)
 69:   3192.12   0.000539    2.73  0.000053  (-0.001692 -0.002296 -0.006678)
 70:   3197.65   0.000424    2.14  0.000041  (-0.005792 -0.002747  0.000523)
 71:   3210.42   0.000889    4.49  0.000086  ( 0.002337 -0.000517 -0.008981)
 72:   3213.77   0.000035    0.18  0.000003  (-0.000039  0.001549  0.001001)
 73:   3217.19   0.003025   15.29  0.000293  ( 0.005132 -0.013448  0.009286)
 74:   3761.40   0.026251  132.66  0.002178  ( 0.005365 -0.046085  0.005033)

* The epsilon (eps) is given for a Dirac delta lineshape.
** The dipole moment derivative (T) already includes vibrational overlap.

The first frequency considered to be a vibration is 7
The total number of vibrations considered is 68


--------------------------
THERMOCHEMISTRY AT 298.15K
--------------------------

Temperature         ... 298.15 K
Pressure            ... 1.00 atm
Total Mass          ... 184.19 AMU

Throughout the following assumptions are being made:
  (1) The electronic state is orbitally nondegenerate
  (2) There are no thermally accessible electronically excited states
  (3) Hindered rotations indicated by low frequency modes are not
      treated as such but are treated as vibrations and this may
      cause some error
  (4) All equations used are the standard statistical mechanics
      equations for an ideal gas
  (5) All vibrations are strictly harmonic

freq.       5.79  E(vib)   ...       0.58 
freq.      25.84  E(vib)   ...       0.56 
freq.      36.29  E(vib)   ...       0.54 
freq.      67.42  E(vib)   ...       0.50 
freq.      73.83  E(vib)   ...       0.49 
freq.      96.70  E(vib)   ...       0.46 
freq.     102.24  E(vib)   ...       0.46 
freq.     116.71  E(vib)   ...       0.44 
freq.     172.50  E(vib)   ...       0.38 
freq.     196.80  E(vib)   ...       0.36 
freq.     219.15  E(vib)   ...       0.33 
freq.     401.05  E(vib)   ...       0.19 
freq.     402.96  E(vib)   ...       0.19 
freq.     415.86  E(vib)   ...       0.18 
freq.     472.04  E(vib)   ...       0.15 
freq.     492.87  E(vib)   ...       0.14 
freq.     549.55  E(vib)   ...       0.12 
freq.     644.52  E(vib)   ...       0.09 
freq.     661.17  E(vib)   ...       0.08 
freq.     665.13  E(vib)   ...       0.08 
freq.     714.45  E(vib)   ...       0.07 
freq.     724.58  E(vib)   ...       0.06 
freq.     741.31  E(vib)   ...       0.06 
freq.     761.63  E(vib)   ...       0.06 
freq.     781.02  E(vib)   ...       0.05 
freq.     830.22  E(vib)   ...       0.04 
freq.     897.01  E(vib)   ...       0.03 
freq.     901.02  E(vib)   ...       0.03 
freq.     938.18  E(vib)   ...       0.03 
freq.     979.29  E(vib)   ...       0.03 
freq.    1017.33  E(vib)   ...       0.02 
freq.    1026.96  E(vib)   ...       0.02 
freq.    1033.47  E(vib)   ...       0.02 
freq.    1041.91  E(vib)   ...       0.02 
freq.    1050.75  E(vib)   ...       0.02 
freq.    1064.34  E(vib)   ...       0.02 
freq.    1081.33  E(vib)   ...       0.02 
freq.    1087.51  E(vib)   ...       0.02 
freq.    1106.51  E(vib)   ...       0.02 
freq.    1173.47  E(vib)   ...       0.01 
freq.    1188.20  E(vib)   ...       0.01 
freq.    1229.68  E(vib)   ...       0.01 
freq.    1239.32  E(vib)   ...       0.01 
freq.    1284.37  E(vib)   ...       0.01 
freq.    1299.48  E(vib)   ...       0.01 
freq.    1311.25  E(vib)   ...       0.01 
freq.    1375.43  E(vib)   ...       0.01 
freq.    1396.34  E(vib)   ...       0.00 
freq.    1422.92  E(vib)   ...       0.00 
freq.    1430.15  E(vib)   ...       0.00 
freq.    1468.09  E(vib)   ...       0.00 
freq.    1504.10  E(vib)   ...       0.00 
freq.    1527.41  E(vib)   ...       0.00 
freq.    1581.73  E(vib)   ...       0.00 
freq.    1604.27  E(vib)   ...       0.00 
freq.    1633.40  E(vib)   ...       0.00 
freq.    1651.74  E(vib)   ...       0.00 
freq.    1666.31  E(vib)   ...       0.00 
freq.    3131.25  E(vib)   ...       0.00 
freq.    3155.19  E(vib)   ...       0.00 
freq.    3166.75  E(vib)   ...       0.00 
freq.    3189.05  E(vib)   ...       0.00 
freq.    3192.12  E(vib)   ...       0.00 
freq.    3197.65  E(vib)   ...       0.00 
freq.    3210.42  E(vib)   ...       0.00 
freq.    3213.77  E(vib)   ...       0.00 
freq.    3217.19  E(vib)   ...       0.00 
freq.    3761.40  E(vib)   ...       0.00 

------------
INNER ENERGY
------------

The inner energy is: U= E(el) + E(ZPE) + E(vib) + E(rot) + E(trans)
    E(el)   - is the total energy from the electronic structure calculation
              = E(kin-el) + E(nuc-el) + E(el-el) + E(nuc-nuc)
    E(ZPE)  - the the zero temperature vibrational energy from the frequency calculation
    E(vib)  - the the finite temperature correction to E(ZPE) due to population
              of excited vibrational states
    E(rot)  - is the rotational thermal energy
    E(trans)- is the translational thermal energy

Summary of contributions to the inner energy U:
Electronic energy                ...   -647.06868310 Eh
Zero point energy                ...      0.18913274 Eh     118.68 kcal/mol
Thermal vibrational correction   ...      0.01128335 Eh       7.08 kcal/mol
Thermal rotational correction    ...      0.00141627 Eh       0.89 kcal/mol
Thermal translational correction ...      0.00141627 Eh       0.89 kcal/mol
-----------------------------------------------------------------------
Total thermal energy                   -646.86543447 Eh


Summary of corrections to the electronic energy:
(perhaps to be used in another calculation)
Total thermal correction                  0.01411589 Eh       8.86 kcal/mol
Non-thermal (ZPE) correction              0.18913274 Eh     118.68 kcal/mol
-----------------------------------------------------------------------
Total correction                          0.20324863 Eh     127.54 kcal/mol


--------
ENTHALPY
--------

The enthalpy is H = U + kB*T
                kB is Boltzmann's constant
Total free energy                 ...   -646.86543447 Eh 
Thermal Enthalpy correction       ...      0.00094421 Eh       0.59 kcal/mol
-----------------------------------------------------------------------
Total Enthalpy                    ...   -646.86449026 Eh


Note: Only C1 symmetry has been detected, increase convergence thresholds 
      if your molecule has a higher symmetry. Symmetry factor of 1.0 is   
      used for the rotational entropy correction. 
 

Note: Rotational entropy computed according to Herzberg 
Infrared and Raman Spectra, Chapter V,1, Van Nostrand Reinhold, 1945 
Point Group:  C1, Symmetry Number:   1  
Rotational constants in cm-1:     0.053687     0.010053     0.009349 

Vibrational entropy computed according to the QRRHO of S. Grimme
Chem.Eur.J. 2012 18 9955


-------
ENTROPY
-------

The entropy contributions are T*S = T*(S(el)+S(vib)+S(rot)+S(trans))
     S(el)   - electronic entropy
     S(vib)  - vibrational entropy
     S(rot)  - rotational entropy
     S(trans)- translational entropy
The entropies will be listed as multiplied by the temperature to get
units of energy

Electronic entropy                ...      0.00000000 Eh      0.00 kcal/mol
Vibrational entropy               ...      0.02152830 Eh     13.51 kcal/mol
Rotational entropy                ...      0.01526889 Eh      9.58 kcal/mol
Translational entropy             ...      0.01973634 Eh     12.38 kcal/mol
-----------------------------------------------------------------------
Final entropy term                ...      0.05653353 Eh     35.48 kcal/mol

In case the symmetry of your molecule has not been determined correctly
or in case you have a reason to use a different symmetry number we print 
out the resulting rotational entropy values for sn=1,12 :
 --------------------------------------------------------
|  sn= 1 | S(rot)=       0.01526889 Eh      9.58 kcal/mol|
|  sn= 2 | S(rot)=       0.01461443 Eh      9.17 kcal/mol|
|  sn= 3 | S(rot)=       0.01423160 Eh      8.93 kcal/mol|
|  sn= 4 | S(rot)=       0.01395998 Eh      8.76 kcal/mol|
|  sn= 5 | S(rot)=       0.01374929 Eh      8.63 kcal/mol|
|  sn= 6 | S(rot)=       0.01357714 Eh      8.52 kcal/mol|
|  sn= 7 | S(rot)=       0.01343160 Eh      8.43 kcal/mol|
|  sn= 8 | S(rot)=       0.01330552 Eh      8.35 kcal/mol|
|  sn= 9 | S(rot)=       0.01319431 Eh      8.28 kcal/mol|
|  sn=10 | S(rot)=       0.01309483 Eh      8.22 kcal/mol|
|  sn=11 | S(rot)=       0.01300484 Eh      8.16 kcal/mol|
|  sn=12 | S(rot)=       0.01292269 Eh      8.11 kcal/mol|
 --------------------------------------------------------


-------------------
GIBBS FREE ENERGY
-------------------

The Gibbs free energy is G = H - T*S

Total enthalpy                    ...   -646.86449026 Eh 
Total entropy correction          ...     -0.05653353 Eh    -35.48 kcal/mol
-----------------------------------------------------------------------
Final Gibbs free energy         ...   -646.92102379 Eh

For completeness - the Gibbs free energy minus the electronic energy
G-E(el)                           ...      0.14765931 Eh     92.66 kcal/mol



Timings for individual modules:

Sum of individual times         ...     1243.203 sec (=  20.720 min)
GTO integral calculation        ...        9.291 sec (=   0.155 min)   0.7 %
SCF iterations                  ...       91.379 sec (=   1.523 min)   7.4 %
SCF Gradient evaluation         ...       19.315 sec (=   0.322 min)   1.6 %
Numerical frequency calculation ...     1123.217 sec (=  18.720 min)  90.3 %
                             ****ORCA TERMINATED NORMALLY****
TOTAL RUN TIME: 0 days 0 hours 19 minutes 49 seconds 792 msec
