 *******************************************************************************
 **                                                                           **
 **                              MOPAC v22.1.1                                **
 **                                                                           **
 *******************************************************************************
 **          Digital Object Identifier (DOI): 10.5281/zenodo.6511958          **
 **    Visit the DOI location for information on how to cite this program.    **
 *******************************************************************************

                              PM7 CALCULATION RESULTS

 *******************************************************************************
 *  CALCULATION DONE:                                Thu Nov  7 19:42:52 2024  *
 *  PM7        - The PM7 Hamiltonian to be used
 *  SINGLET    - SPIN STATE DEFINED AS A SINGLET
 *
 *
 *
 *                 CHARGE ON SYSTEM = -1
 *
 *
 *
 *  EPS=78.4   - USE ANDREAS KLAMT'S COSMO IMPLICIT SOLVATION MODEL
 *  THREADS=1  - MULTI-THREADING NOT USED
 *  T=         - A TIME OF 14.0 DAYS REQUESTED
 *  DUMP=N     - RESTART FILE WRITTEN EVERY 30.0 MINUTES REQUESTED
 *  RELSCF     - DEFAULT SCF CRITERION MULTIPLIED BY 1.0000
 *              (DEFAULT SCF CRITERION = 0.00010)
 *  ITRY=      - DO A MAXIMUM OF 15000 ITERATIONS FOR SCF
 *  AUX        - OUTPUT AUXILIARY INFORMATION
 *  BONDS      - FINAL BOND-ORDER MATRIX TO BE PRINTED
 *******************************************************************************
PM7 BONDS AUX DUMP=30M ITRY=15000 T=14D CHARGE=-1 SINGLET eps=78.4 THREADS=True RELSCF=1
 Title: ASE calculation

   ATOM   CHEMICAL          X               Y               Z
  NUMBER   SYMBOL      (ANGSTROMS)     (ANGSTROMS)     (ANGSTROMS)

     1       C          1.25929699  *   0.71121797  *  -1.68632942  *
     2       C          1.27010110  *  -0.62403651  *  -1.29279480  *
     3       C          0.07143462  *  -1.32995572  *  -1.14753722  *
     4       C         -1.13798096  *  -0.67141881  *  -1.38906509  *
     5       C         -1.14836093  *   0.66542612  *  -1.77388794  *
     6       C          0.04969086  *   1.36175611  *  -1.92618952  *
     7       H          2.19992113  *   1.24995884  *  -1.80370452  *
     8       C          2.59956447  *  -1.26879776  *  -1.04001194  *
     9       H         -2.07939460  *  -1.20701470  *  -1.27386485  *
    10       H         -2.09580746  *   1.17049922  *  -1.95692123  *
    11       H          0.04132846  *   2.40596864  *  -2.22882396  *
    12       O          3.24579653  *  -1.60279711  *  -2.07165704  *
    13       C          3.03775754     -1.41028665      0.24375494   
    14       O          6.82864733     -2.23238117      0.55000032   
    15       H          6.96406394  *  -2.25821714  *   1.51259667  *
    16       H          7.22960043  *  -3.80827514  *   0.04740307  *
    17       O          7.49553473  *  -4.71524819  *  -0.19583242  *
    18       H          8.23427031  *  -4.89949624  *   0.38861387  *
    19       H          3.99407904  *  -1.81347229  *   0.48255208  *
    20       H          2.46429756  *  -1.14213330  *   1.09587581  *
    21       H          5.85065367     -2.19132727  *   0.46734551  *
    22       C          0.07441754  *  -2.76120081  *  -0.74057204  *
    23       H         -0.93421343  *  -3.18045343  *  -0.62600157  *
    24       H          0.59416458  *  -2.90049299  *   0.22410479  *
    25       H          0.60594334  *  -3.38773976  *  -1.47216094  *



          CARTESIAN COORDINATES 

    NO.       ATOM           X           Y           Z

     1         C          1.2593      0.7112     -1.6863
     2         C          1.2701     -0.6240     -1.2928
     3         C          0.0714     -1.3300     -1.1475
     4         C         -1.1380     -0.6714     -1.3891
     5         C         -1.1484      0.6654     -1.7739
     6         C          0.0497      1.3618     -1.9262
     7         H          2.1999      1.2500     -1.8037
     8         C          2.5996     -1.2688     -1.0400
     9         H         -2.0794     -1.2070     -1.2739
    10         H         -2.0958      1.1705     -1.9569
    11         H          0.0413      2.4060     -2.2288
    12         O          3.2458     -1.6028     -2.0717
    13         C          3.0378     -1.4103      0.2438
    14         O          6.8286     -2.2324      0.5500
    15         H          6.9641     -2.2582      1.5126
    16         H          7.2296     -3.8083      0.0474
    17         O          7.4955     -4.7152     -0.1958
    18         H          8.2343     -4.8995      0.3886
    19         H          3.9941     -1.8135      0.4826
    20         H          2.4643     -1.1421      1.0959
    21         H          5.8507     -2.1913      0.4673
    22         C          0.0744     -2.7612     -0.7406
    23         H         -0.9342     -3.1805     -0.6260
    24         H          0.5942     -2.9005      0.2241
    25         H          0.6059     -3.3877     -1.4722

 General Reference for PM7:
 "Optimization of Parameters for Semiempirical Methods VI: More Modifications to the 
 NDDO Approximations and Re-optimization of Parameters", J. J. P. Stewart, J. Mol. Mod., 1:32, 19 (2013)
 https://link.springer.com/article/10.1007/s00894-012-1667-x

           Empirical Formula: C9 H13 O3  =    25 atoms



      MOLECULAR POINT GROUP   :   C1  


 SINGLET STATE CALCULATION


      RHF CALCULATION, NO. OF DOUBLY OCCUPIED LEVELS = 34


          Geometry optimization using EF
  SCF CRITERION =    0.1000E-03

          DIAGONAL MATRIX USED AS START HESSIAN

 CYCLE:     1 TIME:   0.039 TIME LEFT:  2.00W  GRAD.:     9.304 HEAT: -243.7585
 CYCLE:     2 TIME:   0.102 TIME LEFT:  2.00W  GRAD.:     7.705 HEAT: -243.7514
 CYCLE:     3 TIME:   0.016 TIME LEFT:  2.00W  GRAD.:     6.351 HEAT: -243.7487
 CYCLE:     4 TIME:   0.008 TIME LEFT:  2.00W  GRAD.:     5.128 HEAT: -243.7521
 CYCLE:     5 TIME:   0.016 TIME LEFT:  2.00W  GRAD.:     3.768 HEAT: -243.7581
 CYCLE:     6 TIME:   0.008 TIME LEFT:  2.00W  GRAD.:     2.623 HEAT: -243.7606
 CYCLE:     7 TIME:   0.016 TIME LEFT:  2.00W  GRAD.:     6.758 HEAT: -243.7721
 CYCLE:     8 TIME:   0.039 TIME LEFT:  2.00W  GRAD.:     6.378 HEAT: -243.7725
 CYCLE:     9 TIME:   0.016 TIME LEFT:  2.00W  GRAD.:     2.343 HEAT: -243.7857
 CYCLE:    10 TIME:   0.008 TIME LEFT:  2.00W  GRAD.:     3.414 HEAT: -243.7932
 CYCLE:    11 TIME:   0.016 TIME LEFT:  2.00W  GRAD.:     8.462 HEAT: -243.8186
 CYCLE:    12 TIME:   0.023 TIME LEFT:  2.00W  GRAD.:     4.290 HEAT: -243.8237
 CYCLE:    13 TIME:   0.023 TIME LEFT:  2.00W  GRAD.:     2.158 HEAT: -243.8260
 CYCLE:    14 TIME:   0.008 TIME LEFT:  2.00W  GRAD.:     3.183 HEAT: -243.8408
 CYCLE:    15 TIME:   0.031 TIME LEFT:  2.00W  GRAD.:     2.964 HEAT: -243.8532
 CYCLE:    16 TIME:   0.016 TIME LEFT:  2.00W  GRAD.:     4.448 HEAT: -243.8467
 CYCLE:    17 TIME:   0.023 TIME LEFT:  2.00W  GRAD.:     2.534 HEAT: -243.8495
 CYCLE:    18 TIME:   0.023 TIME LEFT:  2.00W  GRAD.:     2.120 HEAT: -243.8476
 CYCLE:    19 TIME:   0.008 TIME LEFT:  2.00W  GRAD.:     1.582 HEAT: -243.8447
 CYCLE:    20 TIME:   0.016 TIME LEFT:  2.00W  GRAD.:     3.314 HEAT: -243.8481
 CYCLE:    21 TIME:   0.008 TIME LEFT:  2.00W  GRAD.:     2.973 HEAT: -243.8470
 CYCLE:    22 TIME:   0.023 TIME LEFT:  2.00W  GRAD.:     2.600 HEAT: -243.8439
 CYCLE:    23 TIME:   0.016 TIME LEFT:  2.00W  GRAD.:     1.597 HEAT: -243.8549
 CYCLE:    24 TIME:   0.016 TIME LEFT:  2.00W  GRAD.:     0.911 HEAT: -243.8566

     GRADIENT =  0.91063 IS LESS THAN CUTOFF =  1.00000



 -------------------------------------------------------------------------------
 PM7 BONDS AUX DUMP=30M ITRY=15000 T=14D CHARGE=-1 SINGLET eps=78.4 THREADS=True RELSCF=1
 Title: ASE calculation



     GEOMETRY OPTIMISED USING EIGENVECTOR FOLLOWING (EF).     
     SCF FIELD WAS ACHIEVED                                   


                              PM7 CALCULATION
                                                       MOPAC v22.1.1 Linux
                                                       Thu Nov  7 19:42:52 2024




          FINAL HEAT OF FORMATION =       -243.85659 KCAL/MOL =   -1020.29595 KJ/MOL
          VAN DER WAALS AREA      =        237.74 SQUARE ANGSTROMS



          DIELECTRIC ENERGY       =         -3.70981 EV
          COSMO AREA              =        237.74 SQUARE ANGSTROMS
          COSMO VOLUME            =        227.32 CUBIC ANGSTROMS

          GRADIENT NORM           =          0.91063          =       0.18213 PER ATOM
          IONIZATION POTENTIAL    =          8.262735 EV
          HOMO LUMO ENERGIES (EV) =         -8.263  0.198
          NO. OF FILLED LEVELS    =         34
          MOLECULAR WEIGHT        =        169.1999         POINT GROUP:  C1  

          MOLECULAR DIMENSIONS (Angstroms)

            Atom       Atom       Distance
            H    18    H    10    12.22304
            H    23    H     7     5.54927
            H    20    O    12     3.19687


          SCF CALCULATIONS        =         42

          WALL-CLOCK TIME         =      0.539 SECONDS
          COMPUTATION TIME        =     17.495 SECONDS




   ATOM   CHEMICAL          X               Y               Z
  NUMBER   SYMBOL      (ANGSTROMS)     (ANGSTROMS)     (ANGSTROMS)

     1       C          1.25880026  *   0.72096288  *  -1.68849453  *
     2       C          1.27652883  *  -0.61556837  *  -1.29773914  *
     3       C          0.07979849  *  -1.32453949  *  -1.15314181  *
     4       C         -1.13225948  *  -0.67364767  *  -1.39683738  *
     5       C         -1.14881759  *   0.66470852  *  -1.78203066  *
     6       C          0.04645808  *   1.36422643  *  -1.93043081  *
     7       H          2.19616693  *   1.26481505  *  -1.80446804  *
     8       C          2.60635371  *  -1.26582997  *  -1.03983448  *
     9       H         -2.07139224  *  -1.21332662  *  -1.28364848  *
    10       H         -2.09882725  *   1.16388842  *  -1.96686804  *
    11       H          0.03289005  *   2.40952157  *  -2.23307088  *
    12       O          3.24751908  *  -1.60719712  *  -2.06935070  *
    13       C          3.03775754     -1.41028665      0.24375494   
    14       O          6.82864733     -2.23238117      0.55000032   
    15       H          7.00081280  *  -2.21476322  *   1.50612920  *
    16       H          7.25017875  *  -3.81308918  *   0.05613198  *
    17       O          7.48598003  *  -4.71619901  *  -0.21673319  *
    18       H          8.22870855  *  -4.95126611  *   0.34604851  *
    19       H          3.97636189  *  -1.84982565  *   0.48369857  *
    20       H          2.46417405  *  -1.11944420  *   1.08829608  *
    21       H          5.85065367     -2.15244498  *   0.49580700  *
    22       C          0.08405564  *  -2.75668737  *  -0.74422337  *
    23       H         -0.92470741  *  -3.17312118  *  -0.62272334  *
    24       H          0.61122913  *  -2.89567942  *   0.21405089  *
    25       H          0.60742969  *  -3.38480941  *  -1.48199078  *

                             CARTESIAN COORDINATES

   1    C        1.258800263     0.720962884    -1.688494530
   2    C        1.276528826    -0.615568371    -1.297739136
   3    C        0.079798485    -1.324539490    -1.153141810
   4    C       -1.132259485    -0.673647670    -1.396837385
   5    C       -1.148817592     0.664708524    -1.782030665
   6    C        0.046458080     1.364226425    -1.930430806
   7    H        2.196166931     1.264815051    -1.804468037
   8    C        2.606353712    -1.265829968    -1.039834482
   9    H       -2.071392235    -1.213326616    -1.283648484
  10    H       -2.098827252     1.163888420    -1.966868041
  11    H        0.032890049     2.409521572    -2.233070883
  12    O        3.247519084    -1.607197125    -2.069350703
  13    C        3.037757540    -1.410286650     0.243754940
  14    O        6.828647330    -2.232381170     0.550000320
  15    H        7.000812796    -2.214763222     1.506129201
  16    H        7.250178751    -3.813089184     0.056131983
  17    O        7.485980030    -4.716199013    -0.216733188
  18    H        8.228708553    -4.951266112     0.346048513
  19    H        3.976361892    -1.849825654     0.483698568
  20    H        2.464174045    -1.119444204     1.088296081
  21    H        5.850653670    -2.152444981     0.495807000
  22    C        0.084055637    -2.756687371    -0.744223371
  23    H       -0.924707406    -3.173121176    -0.622723341
  24    H        0.611229131    -2.895679421     0.214050894
  25    H        0.607429685    -3.384809414    -1.481990783


           Empirical Formula: C9 H13 O3  =    25 atoms



      MOLECULAR POINT GROUP   :   C1  


                  EIGENVALUES  
 -30.64555 -29.69204 -28.77754 -28.48192 -27.16581 -25.83896 -24.06235 -23.51035
 -21.01402 -20.26430 -18.28058 -17.74322 -17.67516 -16.65623 -15.83144 -15.26266
 -14.94278 -14.74539 -14.46944 -14.34498 -13.95362 -13.86539 -13.19106 -12.82594
 -12.72451 -12.54632 -12.48588 -12.29018 -11.80431 -11.68715  -9.80321  -9.56828
  -9.44025  -8.26274   0.19782   0.24439   2.24544   2.56102   3.59392   3.97728
   4.30180   4.85665   4.93673   4.96946   5.05636   5.24143   5.31812   5.76369
   5.82846   5.90132   5.97156   6.01154   6.15572   6.27434   6.31780   6.37946
   6.54749   6.84836   6.98816   7.28801   8.07886


              NET ATOMIC CHARGES AND DIPOLE CONTRIBUTIONS

  ATOM NO.   TYPE          CHARGE      No. of ELECS.   s-Pop       p-Pop       
    1          C          -0.155889        4.1559     1.08441     3.07147
    2          C          -0.121089        4.1211     1.09239     3.02870
    3          C           0.037514        3.9625     1.06755     2.89494
    4          C          -0.204721        4.2047     1.08626     3.11847
    5          C          -0.158955        4.1590     1.08502     3.07393
    6          C          -0.184271        4.1843     1.08340     3.10087
    7          H           0.161263        0.8387     0.83874
    8          C           0.531382        3.4686     1.06275     2.40586
    9          H           0.159119        0.8409     0.84088
   10          H           0.152538        0.8475     0.84746
   11          H           0.157604        0.8424     0.84240
   12          O          -0.893184        6.8932     1.88434     5.00885
   13          C          -0.789283        4.7893     1.05576     3.73353
   14          O          -0.726096        6.7261     1.82156     4.90454
   15          H           0.382316        0.6177     0.61768
   16          H           0.378399        0.6216     0.62160
   17          O          -0.777739        6.7777     1.81521     4.96253
   18          H           0.371664        0.6283     0.62834
   19          H           0.137097        0.8629     0.86290
   20          H           0.141295        0.8587     0.85871
   21          H           0.367321        0.6327     0.63268
   22          C          -0.469457        4.4695     1.05040     3.41906
   23          H           0.158686        0.8413     0.84131
   24          H           0.173358        0.8266     0.82664
   25          H           0.171129        0.8289     0.82887
 DIPOLE           X         Y         Z       TOTAL
 POINT-CHG.    -5.236     2.344     5.900     8.229
 HYBRID        -0.196     0.132     0.217     0.321
 SUM           -5.432     2.476     6.117     8.547


          ATOMIC ORBITAL ELECTRON POPULATIONS

     Atom    s        px        py        pz   
    1  C   1.08441   1.05649   1.01128   1.00370
    2  C   1.09239   1.03476   0.99824   0.99570
    3  C   1.06755   0.96799   0.96630   0.96065
    4  C   1.08626   1.06537   1.01731   1.03579
    5  C   1.08502   1.06311   1.00837   1.00246
    6  C   1.08340   0.98891   1.08087   1.03109
    7  H   0.83874
    8  C   1.06275   0.80740   0.75042   0.84805
    9  H   0.84088
   10  H   0.84746
   11  H   0.84240
   12  O   1.88434   1.74181   1.74094   1.52611
   13  C   1.05576   1.20965   1.45674   1.06714
   14  O   1.82156   1.45441   1.97105   1.47907
   15  H   0.61768
   16  H   0.62160
   17  O   1.81521   1.66671   1.54839   1.74743
   18  H   0.62834
   19  H   0.86290
   20  H   0.85871
   21  H   0.63268
   22  C   1.05040   1.19272   1.04231   1.18403
   23  H   0.84131
   24  H   0.82664
   25  H   0.82887

          BONDING CONTRIBUTION OF EACH M.O.

  1.9278  1.1289  1.1049  1.5618  1.9295  1.6656  1.7723  1.9794  1.9411  1.9380
  1.7802  1.6573  1.6004  1.7550  1.9867  1.7485  1.0178  1.5605  1.8633  0.6789
  2.0024  1.5441  1.9088  1.6363  1.6217  1.8189  0.1566  0.0004  1.8725  1.7080
  1.9362  0.9513  1.7994  0.9777 -2.0263 -1.9913 -2.1028 -2.0091 -1.7575 -1.9813
 -1.9623 -1.7483 -1.9890 -2.0018 -1.9732 -2.0274 -1.9948 -1.9546 -1.9533 -1.9589
 -1.9960 -1.9821 -1.7432 -1.9712 -1.9768 -1.9720 -1.9629 -1.7229 -1.8989 -1.9454
 -1.9288





            (VALENCIES)   BOND ORDERS

     1  C     (3.973)     6  C 1.436     2  C 1.434     7  H 0.961     4  C 0.110

     2  C     (3.980)     1  C 1.434     3  C 1.402     8  C 0.941     5  C 0.110    12  O 0.043    13  C 0.012

     3  C     (3.991)     4  C 1.427     2  C 1.402    22  C 1.017     6  C 0.111

     4  C     (3.973)     5  C 1.440     3  C 1.427     9  H 0.962     1  C 0.110

     5  C     (3.976)     6  C 1.444     4  C 1.440    10  H 0.964     2  C 0.110

     6  C     (3.974)     5  C 1.444     1  C 1.436    11  H 0.963     3  C 0.111

     7  H     (0.974)     1  C 0.961

     8  C     (3.854)    13  C 1.578    12  O 1.312     2  C 0.941

     9  H     (0.975)     4  C 0.962

    10  H     (0.977)     5  C 0.964

    11  H     (0.975)     6  C 0.963

    12  O     (1.523)     8  C 1.312    13  C 0.142     2  C 0.043

    13  C     (3.691)     8  C 1.578    20  H 0.969    19  H 0.964    12  O 0.142     2  C 0.012

    14  O     (1.772)    21  H 0.855    15  H 0.851    16  H 0.042    17  O 0.019

    15  H     (0.854)    14  O 0.851

    16  H     (0.857)    17  O 0.813    14  O 0.042

    17  O     (1.696)    18  H 0.860    16  H 0.813    14  O 0.019

    18  H     (0.862)    17  O 0.860

    19  H     (0.981)    13  C 0.964

    20  H     (0.980)    13  C 0.969

    21  H     (0.865)    14  O 0.855

    22  C     (3.916)     3  C 1.017    23  H 0.966    25  H 0.953    24  H 0.952

    23  H     (0.975)    22  C 0.966

    24  H     (0.970)    22  C 0.952

    25  H     (0.971)    22  C 0.953


 **********************
 *                    *
 * JOB ENDED NORMALLY *
 *                    *
 **********************



 TOTAL JOB TIME:             0.54 SECONDS

 == MOPAC DONE ==
