 *******************************************************************************
 **                                                                           **
 **                              MOPAC v22.1.1                                **
 **                                                                           **
 *******************************************************************************
 **          Digital Object Identifier (DOI): 10.5281/zenodo.6511958          **
 **    Visit the DOI location for information on how to cite this program.    **
 *******************************************************************************

                              PM7 CALCULATION RESULTS

 *******************************************************************************
 *  CALCULATION DONE:                                Thu Nov  7 19:42:54 2024  *
 *  PM7        - The PM7 Hamiltonian to be used
 *  SINGLET    - SPIN STATE DEFINED AS A SINGLET
 *
 *
 *
 *                 CHARGE ON SYSTEM = -1
 *
 *
 *
 *  EPS=78.4   - USE ANDREAS KLAMT'S COSMO IMPLICIT SOLVATION MODEL
 *  LET        - OVERRIDE SOME SAFETY CHECKS
 *  THREADS=1  - MULTI-THREADING NOT USED
 *  T=         - A TIME OF 14.0 DAYS REQUESTED
 *  DUMP=N     - RESTART FILE WRITTEN EVERY 30.0 MINUTES REQUESTED
 *  RELSCF     - DEFAULT SCF CRITERION MULTIPLIED BY 1.0000
 *              (DEFAULT SCF CRITERION = 0.00010)
 *  ITRY=      - DO A MAXIMUM OF 15000 ITERATIONS FOR SCF
 *  AUX        - OUTPUT AUXILIARY INFORMATION
 *  ISOTOPE    - SAVE THE FORCE MATRIX FOR USE LATER
 *  BONDS      - FINAL BOND-ORDER MATRIX TO BE PRINTED
 *  LARGE      - EXPANDED OUTPUT TO BE PRINTED
 *  THERMO     - THERMODYNAMIC QUANTITIES TO BE CALCULATED
 *******************************************************************************
PM7 AUX LARGE THERMO(298,298) LET ISOTOPE BONDS DUMP=30M ITRY=15000 T=14D CHARGE=-1 SINGLET eps=78.4 THREADS=True RELSCF=1
 Title: ASE calculation

   ATOM   CHEMICAL          X               Y               Z
  NUMBER   SYMBOL      (ANGSTROMS)     (ANGSTROMS)     (ANGSTROMS)

     1       C          1.25880026  *   0.72096288  *  -1.68849453  *
     2       C          1.27652883  *  -0.61556837  *  -1.29773914  *
     3       C          0.07979849  *  -1.32453949  *  -1.15314181  *
     4       C         -1.13225949  *  -0.67364767  *  -1.39683738  *
     5       C         -1.14881759  *   0.66470852  *  -1.78203066  *
     6       C          0.04645808  *   1.36422643  *  -1.93043081  *
     7       H          2.19616693  *   1.26481505  *  -1.80446804  *
     8       C          2.60635371  *  -1.26582997  *  -1.03983448  *
     9       H         -2.07139223  *  -1.21332662  *  -1.28364848  *
    10       H         -2.09882725  *   1.16388842  *  -1.96686804  *
    11       H          0.03289005  *   2.40952157  *  -2.23307088  *
    12       O          3.24751908  *  -1.60719712  *  -2.06935070  *
    13       C          3.03775754  *  -1.41028665  *   0.24375494  *
    14       O          6.82864733  *  -2.23238117  *   0.55000032  *
    15       H          7.00081280  *  -2.21476322  *   1.50612920  *
    16       H          7.25017875  *  -3.81308918  *   0.05613198  *
    17       O          7.48598003  *  -4.71619901  *  -0.21673319  *
    18       H          8.22870855  *  -4.95126611  *   0.34604851  *
    19       H          3.97636189  *  -1.84982565  *   0.48369857  *
    20       H          2.46417405  *  -1.11944420  *   1.08829608  *
    21       T          5.85065367  *  -2.15244498  *   0.49580700  *
    22       C          0.08405564  *  -2.75668737  *  -0.74422337  *
    23       H         -0.92470741  *  -3.17312118  *  -0.62272334  *
    24       H          0.61122913  *  -2.89567942  *   0.21405089  *
    25       H          0.60742969  *  -3.38480941  *  -1.48199078  *


                                Isotopes Used

              Atom:   21  H  Default mass  1.0079,  mass used:  3.0160 amu


          CARTESIAN COORDINATES 

    NO.       ATOM           X           Y           Z

     1         C          1.2588      0.7210     -1.6885
     2         C          1.2765     -0.6156     -1.2977
     3         C          0.0798     -1.3245     -1.1531
     4         C         -1.1323     -0.6736     -1.3968
     5         C         -1.1488      0.6647     -1.7820
     6         C          0.0465      1.3642     -1.9304
     7         H          2.1962      1.2648     -1.8045
     8         C          2.6064     -1.2658     -1.0398
     9         H         -2.0714     -1.2133     -1.2836
    10         H         -2.0988      1.1639     -1.9669
    11         H          0.0329      2.4095     -2.2331
    12         O          3.2475     -1.6072     -2.0694
    13         C          3.0378     -1.4103      0.2438
    14         O          6.8286     -2.2324      0.5500
    15         H          7.0008     -2.2148      1.5061
    16         H          7.2502     -3.8131      0.0561
    17         O          7.4860     -4.7162     -0.2167
    18         H          8.2287     -4.9513      0.3460
    19         H          3.9764     -1.8498      0.4837
    20         H          2.4642     -1.1194      1.0883
    21         H          5.8507     -2.1524      0.4958
    22         C          0.0841     -2.7567     -0.7442
    23         H         -0.9247     -3.1731     -0.6227
    24         H          0.6112     -2.8957      0.2141
    25         H          0.6074     -3.3848     -1.4820

 General Reference for PM7:
 "Optimization of Parameters for Semiempirical Methods VI: More Modifications to the 
 NDDO Approximations and Re-optimization of Parameters", J. J. P. Stewart, J. Mol. Mod., 1:32, 19 (2013)
 https://link.springer.com/article/10.1007/s00894-012-1667-x

           Empirical Formula: C9 H13 O3  =    25 atoms



      MOLECULAR POINT GROUP   :   C1  


 SINGLET STATE CALCULATION


      RHF CALCULATION, NO. OF DOUBLY OCCUPIED LEVELS = 34

  SCF CRITERION =    0.1000E-03


          HEAT OF FORMATION =    -243.856806 KCALS/MOLE


          CARTESIAN COORDINATE DERIVATIVES

   NUMBER  ATOM         X            Y            Z

     1       C     -0.033700    -0.057929    -0.088424
     2       C      0.118057    -0.023302     0.161510
     3       C     -0.247704    -0.089612    -0.109669
     4       C      0.063751     0.001093     0.017453
     5       C      0.190904     0.064365    -0.072091
     6       C     -0.174680     0.035420     0.068732
     7       H      0.000125     0.033938     0.034970
     8       C     -0.085112     0.049972     0.064153
     9       H     -0.009285    -0.054697    -0.075829
    10       H      0.036837     0.044133    -0.036615
    11       H      0.147118     0.004442    -0.011695
    12       O     -0.061913    -0.002477     0.011634
    13       C     -1.047547     1.372661     0.229045
    14       O      1.095860    -8.897828     0.148053
    15       H      0.016836     0.135048    -0.013786
    16       H      0.142446    -0.380181     0.045258
    17       O     -0.223567     0.086143    -0.236115
    18       H      0.021024    -0.180648    -0.046770
    19       H      0.178077    -0.137183     0.163971
    20       H      0.136868    -0.158518     0.043973
    21       H     -0.353306     7.574097    -0.308452
    22       C      0.070366     0.182970     0.044975
    23       H     -0.096633     0.117987     0.026725
    24       H      0.024820     0.214687    -0.085777
    25       H      0.093035     0.065893     0.026147

 DIPOLE           X         Y         Z       TOTAL
 POINT-CHG.   -11.093     9.759    -6.206    16.025
 HYBRID        -0.068     0.183    -0.255     0.321
 SUM          -11.161     9.942    -6.460    16.283


          GRADIENT NORM =  11.91138



 ** GRADIENT IS VERY LARGE, BUT SINCE "LET" IS USED, CALCULATION WILL CONTINUE


                              **** WARNING ****

           GRADIENT IS VERY LARGE FOR A THERMO CALCULATION
           RESULTS ARE LIKELY TO BE INACCURATE IF THERE ARE
           ANY LOW-LYING VIBRATIONS (LESS THAN ABOUT 400CM-1)
           GRADIENT NORM SHOULD BE LESS THAN ABOUT 1.0 FOR THERMO
           TO GIVE ACCURATE RESULTS


          TIME FOR SCF CALCULATION =    0.04

          TIME FOR DERIVATIVES     =    0.02

          MOLECULAR WEIGHT =  171.21



          ROTATIONAL CONSTANTS IN CM(-1)

          A =    0.06202133   B =    0.00903444   C =    0.00840548



           PRINCIPAL MOMENTS OF INERTIA IN UNITS OF 10**(-40)*GRAM-CM**2

          A =      451.3408   B =     3098.4478   C =     3330.2975


          ORIENTATION OF MOLECULE IN FORCE CALCULATION

    NO.       ATOM         X         Y         Z

     1          C      -2.1866    1.0525    0.0880
     2          C      -0.7940    1.0525    0.0880
     3          C      -0.0883    2.2598    0.0880
     4          C      -0.7968    3.4640    0.0793
     5          C      -2.1895    3.4625    0.0735
     6          C      -2.8873    2.2571    0.0797
     7          H      -2.7292    0.1073    0.0938
     8          C      -0.0807   -0.2700    0.0889
     9          H      -0.2590    4.4110    0.0749
    10          H      -2.7326    4.4064    0.0638
    11          H      -3.9756    2.2567    0.0769
    12          O      -0.0338   -0.8558    1.2034
    13          C       0.4236   -0.7538   -1.0800
    14          O       1.3468   -4.5317   -0.9548
    15          H       1.6004   -4.7464   -1.8679
    16          H       2.7307   -4.8894   -0.0182
    17          O       3.5239   -5.0892    0.5077
    18          H       3.9168   -5.8497    0.0709
    19          H       0.9248   -1.6903   -1.1403
    20          H       0.3742   -0.2260   -1.9996
    21          H       1.2424   -3.5547   -0.9739
    22          C       1.4010    2.2750    0.0967
    23          H       1.8219    3.2879    0.0464
    24          H       1.8100    1.7097   -0.7570
    25          H       1.8035    1.8014    1.0058


    FIRST DERIVATIVES WILL BE USED IN THE CALCULATION OF SECOND DERIVATIVES

          ESTIMATED TIME TO COMPLETE CALCULATION =        8.20 SECONDS

    FOR POINT-GROUP C1   THERE ARE   1 UNIQUE SYMMETRY FUNCTIONS.

 STEP:   1 TIME =     0.04 SECS, INTEGRAL =      0.04 TIME LEFT:1209599.91
 STEP:   2 TIME =     0.02 SECS, INTEGRAL =      0.06 TIME LEFT:1209599.88
 STEP:   3 TIME =     0.02 SECS, INTEGRAL =      0.09 TIME LEFT:1209599.86
 STEP:   4 TIME =     0.02 SECS, INTEGRAL =      0.11 TIME LEFT:1209599.84
 STEP:   5 TIME =     0.02 SECS, INTEGRAL =      0.13 TIME LEFT:1209599.81
 STEP:   6 TIME =     0.02 SECS, INTEGRAL =      0.16 TIME LEFT:1209599.79
 STEP:   7 TIME =     0.02 SECS, INTEGRAL =      0.18 TIME LEFT:1209599.77
 STEP:   8 TIME =     0.02 SECS, INTEGRAL =      0.20 TIME LEFT:1209599.74
 STEP:   9 TIME =     0.02 SECS, INTEGRAL =      0.23 TIME LEFT:1209599.72
 STEP:  10 TIME =     0.02 SECS, INTEGRAL =      0.25 TIME LEFT:1209599.70
 STEP:  11 TIME =     0.02 SECS, INTEGRAL =      0.27 TIME LEFT:1209599.67
 STEP:  12 TIME =     0.02 SECS, INTEGRAL =      0.29 TIME LEFT:1209599.66
 STEP:  13 TIME =     0.02 SECS, INTEGRAL =      0.31 TIME LEFT:1209599.63
 STEP:  14 TIME =     0.02 SECS, INTEGRAL =      0.34 TIME LEFT:1209599.61
 STEP:  15 TIME =     0.02 SECS, INTEGRAL =      0.36 TIME LEFT:1209599.59
 STEP:  16 TIME =     0.02 SECS, INTEGRAL =      0.38 TIME LEFT:1209599.56
 STEP:  17 TIME =     0.02 SECS, INTEGRAL =      0.41 TIME LEFT:1209599.54
 STEP:  18 TIME =     0.02 SECS, INTEGRAL =      0.43 TIME LEFT:1209599.52
 STEP:  19 TIME =     0.02 SECS, INTEGRAL =      0.45 TIME LEFT:1209599.49
 STEP:  20 TIME =     0.02 SECS, INTEGRAL =      0.48 TIME LEFT:1209599.47
 STEP:  21 TIME =     0.02 SECS, INTEGRAL =      0.50 TIME LEFT:1209599.45
 STEP:  22 TIME =     0.02 SECS, INTEGRAL =      0.52 TIME LEFT:1209599.42
 STEP:  23 TIME =     0.02 SECS, INTEGRAL =      0.54 TIME LEFT:1209599.41
 STEP:  24 TIME =     0.02 SECS, INTEGRAL =      0.56 TIME LEFT:1209599.38
 STEP:  25 TIME =     0.02 SECS, INTEGRAL =      0.59 TIME LEFT:1209599.36
 STEP:  26 TIME =     0.02 SECS, INTEGRAL =      0.61 TIME LEFT:1209599.34
 STEP:  27 TIME =     0.02 SECS, INTEGRAL =      0.63 TIME LEFT:1209599.31
 STEP:  28 TIME =     0.02 SECS, INTEGRAL =      0.66 TIME LEFT:1209599.29
 STEP:  29 TIME =     0.02 SECS, INTEGRAL =      0.68 TIME LEFT:1209599.27
 STEP:  30 TIME =     0.02 SECS, INTEGRAL =      0.70 TIME LEFT:1209599.24
 STEP:  31 TIME =     0.02 SECS, INTEGRAL =      0.73 TIME LEFT:1209599.22
 STEP:  32 TIME =     0.02 SECS, INTEGRAL =      0.75 TIME LEFT:1209599.20
 STEP:  33 TIME =     0.02 SECS, INTEGRAL =      0.77 TIME LEFT:1209599.17
 STEP:  34 TIME =     0.02 SECS, INTEGRAL =      0.79 TIME LEFT:1209599.16
 STEP:  35 TIME =     0.02 SECS, INTEGRAL =      0.81 TIME LEFT:1209599.13
 STEP:  36 TIME =     0.02 SECS, INTEGRAL =      0.84 TIME LEFT:1209599.11
 STEP:  37 TIME =     0.02 SECS, INTEGRAL =      0.86 TIME LEFT:1209599.09
 STEP:  38 TIME =     0.02 SECS, INTEGRAL =      0.88 TIME LEFT:1209599.06
 STEP:  39 TIME =     0.02 SECS, INTEGRAL =      0.91 TIME LEFT:1209599.04
 STEP:  40 TIME =     0.02 SECS, INTEGRAL =      0.93 TIME LEFT:1209599.02
 STEP:  41 TIME =     0.02 SECS, INTEGRAL =      0.95 TIME LEFT:1209598.99
 STEP:  42 TIME =     0.02 SECS, INTEGRAL =      0.98 TIME LEFT:1209598.97
 STEP:  43 TIME =     0.02 SECS, INTEGRAL =      1.00 TIME LEFT:1209598.95
 STEP:  44 TIME =     0.02 SECS, INTEGRAL =      1.02 TIME LEFT:1209598.92
 STEP:  45 TIME =     0.02 SECS, INTEGRAL =      1.04 TIME LEFT:1209598.91
 STEP:  46 TIME =     0.02 SECS, INTEGRAL =      1.06 TIME LEFT:1209598.88
 STEP:  47 TIME =     0.02 SECS, INTEGRAL =      1.09 TIME LEFT:1209598.86
 STEP:  48 TIME =     0.02 SECS, INTEGRAL =      1.11 TIME LEFT:1209598.84
 STEP:  49 TIME =     0.02 SECS, INTEGRAL =      1.13 TIME LEFT:1209598.81
 STEP:  50 TIME =     0.02 SECS, INTEGRAL =      1.16 TIME LEFT:1209598.79
 STEP:  51 TIME =     0.02 SECS, INTEGRAL =      1.18 TIME LEFT:1209598.77
 STEP:  52 TIME =     0.02 SECS, INTEGRAL =      1.20 TIME LEFT:1209598.74
 STEP:  53 TIME =     0.02 SECS, INTEGRAL =      1.23 TIME LEFT:1209598.72
 STEP:  54 TIME =     0.02 SECS, INTEGRAL =      1.25 TIME LEFT:1209598.70
 STEP:  55 TIME =     0.02 SECS, INTEGRAL =      1.27 TIME LEFT:1209598.67
 STEP:  56 TIME =     0.02 SECS, INTEGRAL =      1.29 TIME LEFT:1209598.66
 STEP:  57 TIME =     0.02 SECS, INTEGRAL =      1.30 TIME LEFT:1209598.64
 STEP:  58 TIME =     0.02 SECS, INTEGRAL =      1.33 TIME LEFT:1209598.62
 STEP:  59 TIME =     0.02 SECS, INTEGRAL =      1.35 TIME LEFT:1209598.59
 STEP:  60 TIME =     0.02 SECS, INTEGRAL =      1.38 TIME LEFT:1209598.57
 STEP:  61 TIME =     0.02 SECS, INTEGRAL =      1.40 TIME LEFT:1209598.55
 STEP:  62 TIME =     0.02 SECS, INTEGRAL =      1.42 TIME LEFT:1209598.52
 STEP:  63 TIME =     0.02 SECS, INTEGRAL =      1.45 TIME LEFT:1209598.50
 STEP:  64 TIME =     0.02 SECS, INTEGRAL =      1.47 TIME LEFT:1209598.48
 STEP:  65 TIME =     0.02 SECS, INTEGRAL =      1.49 TIME LEFT:1209598.45
 STEP:  66 TIME =     0.02 SECS, INTEGRAL =      1.52 TIME LEFT:1209598.43
 STEP:  67 TIME =     0.02 SECS, INTEGRAL =      1.53 TIME LEFT:1209598.41
 STEP:  68 TIME =     0.02 SECS, INTEGRAL =      1.55 TIME LEFT:1209598.39
 STEP:  69 TIME =     0.02 SECS, INTEGRAL =      1.58 TIME LEFT:1209598.37
 STEP:  70 TIME =     0.02 SECS, INTEGRAL =      1.60 TIME LEFT:1209598.34
 STEP:  71 TIME =     0.02 SECS, INTEGRAL =      1.62 TIME LEFT:1209598.32
 STEP:  72 TIME =     0.02 SECS, INTEGRAL =      1.65 TIME LEFT:1209598.30
 STEP:  73 TIME =     0.02 SECS, INTEGRAL =      1.67 TIME LEFT:1209598.27
 STEP:  74 TIME =     0.02 SECS, INTEGRAL =      1.70 TIME LEFT:1209598.25
 STEP:  75 TIME =     0.02 SECS, INTEGRAL =      1.72 TIME LEFT:1209598.23

(To convert to Hartree/Bohr^2, multiply by (10^(-21) x N x a0^2)/(4.184 x 627.51) =  0.0642)


           FORCE MATRIX IN MILLIDYNES/ANGSTROM


                  C  1       C  2       C  3       C  4       C  5       C  6
 ------------------------------------------------------------------------------
     C    1  15.425952
     C    2   6.224285  15.945406
     C    3   1.931270   5.878071  16.153232
     C    4   1.201450   1.879447   5.977697  15.388203
     C    5   1.920463   1.143315   1.922084   6.333388  15.603162
     C    6   6.280880   1.919494   1.209293   1.907367   6.376763  15.570880
     H    7   3.421598   0.755716   0.094300   0.012452   0.089722   0.749191
     C    8   0.770722   3.284070   0.710806   0.088474   0.034945   0.097441
     H    9   0.009215   0.086016   0.756399   3.417950   0.762814   0.085609
     H   10   0.081623   0.008995   0.088451   0.755300   3.428643   0.751049
     H   11   0.751399   0.085211   0.005849   0.085791   0.758819   3.427997
     O   12   0.048938   1.387315   0.074637   0.027323   0.013767   0.027170
     C   13   0.062271   0.795316   0.045306   0.016822   0.012687   0.019996
     O   14   0.001131   0.004797   0.001531   0.000872   0.001670   0.001070
     H   15   0.000242   0.001824   0.000706   0.000453   0.000613   0.000575
     H   16   0.000569   0.002266   0.000634   0.000760   0.000851   0.000567
     O   17   0.000967   0.003124   0.001121   0.000889   0.001200   0.000892
     H   18   0.000466   0.000562   0.000471   0.000272   0.000512   0.000420
     H   19   0.011888   0.095109   0.013738   0.003346   0.001959   0.003139
     H   20   0.037616   0.039414   0.009785   0.002610   0.002590   0.003498
     H   21   0.001080   0.005524   0.000773   0.001187   0.001074   0.001751
     C   22   0.088730   0.785307   3.785325   0.819933   0.087762   0.020363
     H   23   0.007959   0.041059   0.726487   0.038053   0.004612   0.003307
     H   24   0.010706   0.022544   0.754537   0.025921   0.010998   0.004075
     H   25   0.010862   0.025581   0.750547   0.023701   0.010937   0.004939


                  H  7       C  8       H  9       H 10       H 11       O 12
 ------------------------------------------------------------------------------
     H    7   4.326935
     C    8   0.068452  17.601036
     H    9   0.011117   0.019185   4.343128
     H   10   0.008406   0.020232   0.031334   4.345062
     H   11   0.031123   0.021083   0.008624   0.029753   4.337404
     O   12   0.017651   8.458045   0.005835   0.007719   0.008530  10.550467
     C   13   0.023181   7.959642   0.006481   0.006546   0.007657   1.932252
     O   14   0.001005   0.308041   0.001249   0.001141   0.001121   0.435614
     H   15   0.000598   0.010204   0.000433   0.000415   0.000430   0.013243
     H   16   0.000703   0.005200   0.000612   0.000535   0.000481   0.003089
     O   17   0.000766   0.014723   0.000826   0.000766   0.000767   0.008081
     H   18   0.000284   0.005199   0.000343   0.000358   0.000369   0.003267
     H   19   0.002303   0.862819   0.001661   0.001133   0.000705   0.112899
     H   20   0.003138   0.863186   0.001508   0.001485   0.001311   0.152712
     H   21   0.001411   0.429414   0.000815   0.000915   0.000864   0.607069
     C   22   0.010918   0.051181   0.034473   0.009971   0.012877   0.035316
     H   23   0.001639   0.010281   0.022420   0.001869   0.001698   0.004648
     H   24   0.002390   0.046315   0.004725   0.001668   0.001995   0.017527
     H   25   0.002192   0.033797   0.004605   0.001518   0.002084   0.017171


                  C 13       O 14       H 15       H 16       O 17       H 18
 ------------------------------------------------------------------------------
     C   13  14.216037
     O   14   0.043749   7.160777
     H   15   0.067297   3.820444   4.220563
     H   16   0.022169   0.246560   0.113585   3.907752
     O   17   0.018821   3.052366   0.038823   3.523500   8.234583
     H   18   0.005465   0.069471   0.093532   0.801191   3.875695   4.306111
     H   19   3.567909   0.031935   0.008780   0.005202   0.006195   0.003058
     H   20   3.586021   0.003121   0.001310   0.001013   0.001813   0.000458
     H   21   0.039385   3.771958   0.791347   0.111749   0.049725   0.054131
     C   22   0.065682   0.005276   0.004507   0.000958   0.001329   0.000440
     H   23   0.007070   0.001198   0.000621   0.000799   0.001138   0.000490
     H   24   0.023689   0.001183   0.000686   0.000738   0.001030   0.000399
     H   25   0.021005   0.001164   0.000665   0.000891   0.001202   0.000626


                  H 19       H 20       H 21       C 22       H 23       H 24
 ------------------------------------------------------------------------------
     H   19   4.361503
     H   20   0.457823   4.421334
     H   21   0.061663   0.004304   4.121002
     C   22   0.004514   0.011794   0.005913  11.428241
     H   23   0.001093   0.001684   0.000481   3.365137   4.189852
     H   24   0.002678   0.013072   0.001201   3.303913   0.452682   4.134325
     H   25   0.002467   0.003647   0.001079   3.324387   0.456261   0.459348


                  H 25
 ------------------
     H   25   4.147569


          HEAT OF FORMATION =    -243.856806 KCALS/MOLE


          TRIVIAL VIBRATIONS, SHOULD BE ZERO

 -40.7187=TX  35.6958=TY  -7.3953=TZ  35.4307=RX   0.5354=RY -23.5457=RZ


      MOLECULAR POINT GROUP   :   C1  


           EIGENVECTORS  


   Root No.       1         2         3         4         5         6         7         8

                 1 A       2 A       3 A       4 A       5 A       6 A       7 A       8 A   

                  -0.4      -0.0      -0.0      -0.0      -0.0      -0.0       0.0       0.0
  
           1    0.0104   -0.0102   -0.0275   -0.0099    0.0489    0.1235   -0.0071   -0.0064
           2    0.0033    0.0127    0.0020    0.0313   -0.0966   -0.0993    0.0064   -0.0025
           3    0.0642   -0.0204    0.0363    0.0348    0.0001   -0.0030    0.0302    0.0736
           4    0.0137   -0.0101   -0.0262   -0.0105    0.0493    0.1235   -0.0069   -0.0066
           5    0.0125   -0.0071   -0.0021    0.0239   -0.0986    0.0166    0.0015    0.0056
           6    0.0499   -0.0021   -0.0165    0.0238   -0.0080    0.0066    0.0077    0.0146
           7    0.0072    0.0071   -0.0239    0.0002    0.0486    0.0235   -0.0028   -0.0129
           8    0.0153   -0.0173   -0.0043    0.0176   -0.0987    0.0747   -0.0014    0.0095
           9    0.0275    0.0183   -0.0762    0.0120   -0.0079    0.0179   -0.0253   -0.0308
          10   -0.0004    0.0243   -0.0241    0.0093    0.0490   -0.0770    0.0018   -0.0202
          11    0.0102   -0.0071   -0.0036    0.0223   -0.0975    0.0151    0.0011    0.0053
          12    0.0154    0.0148   -0.0699    0.0226    0.0071    0.0152   -0.0708    0.0044
          13   -0.0003    0.0245   -0.0241    0.0089    0.0495   -0.0775    0.0019   -0.0207
          14    0.0019    0.0128   -0.0002    0.0311   -0.0959   -0.1005    0.0059   -0.0026
          15    0.0261   -0.0045   -0.0168    0.0389    0.0157   -0.0035   -0.0554    0.0690
          16    0.0042    0.0071   -0.0269   -0.0008    0.0497    0.0228   -0.0027   -0.0137
          17   -0.0011    0.0226    0.0016    0.0366   -0.0963   -0.1579    0.0086   -0.0063
          18    0.0510   -0.0200    0.0292    0.0411    0.0108   -0.0134    0.0031    0.0944
          19    0.0142   -0.0231   -0.0263   -0.0151    0.0470    0.2017   -0.0100   -0.0015
          20   -0.0005    0.0202    0.0021    0.0343   -0.0958   -0.1439    0.0084   -0.0053
          21    0.0690   -0.0350    0.0934    0.0354   -0.0024   -0.0009    0.0739    0.1036
          22    0.0003   -0.0282   -0.0569   -0.0134    0.0507    0.2095   -0.0101    0.0003
          23    0.0450   -0.0168   -0.0167    0.0237   -0.0989    0.0613    0.0002    0.0092
          24   -0.1531    0.0029    0.0772    0.0017   -0.0155   -0.0121    0.0184    0.0045
          25   -0.0042    0.0376   -0.0222    0.0162    0.0495   -0.1561    0.0052   -0.0258
          26    0.0118   -0.0146   -0.0046    0.0180   -0.0976    0.0600   -0.0010    0.0083
          27   -0.0091    0.0271   -0.0955    0.0148    0.0122    0.0243   -0.1111   -0.0196
          28   -0.0051    0.0379   -0.0230    0.0157    0.0498   -0.1555    0.0049   -0.0264
          29   -0.0005    0.0204    0.0008    0.0348   -0.0957   -0.1455    0.0074   -0.0057
          30    0.0127   -0.0063   -0.0051    0.0429    0.0247   -0.0088   -0.0760    0.0890
          31    0.0034    0.0072   -0.0272   -0.0007    0.0497    0.0229   -0.0028   -0.0138
          32   -0.0053    0.0383    0.0032    0.0448   -0.0959   -0.2510    0.0132   -0.0124
          33    0.0525   -0.0314    0.0645    0.0453    0.0154   -0.0265    0.0281    0.1283
          34   -0.0519   -0.0715   -0.3992   -0.0384    0.0768    0.2678   -0.0433    0.0008
          35   -0.4081   -0.0294   -0.0775   -0.0163   -0.0927    0.0603   -0.0099    0.0035
          36   -0.3899   -0.0021    0.0626   -0.0187   -0.0147   -0.0158    0.0146    0.0015
          37    0.0232    0.0055    0.2465    0.0152    0.0235    0.1716    0.0141    0.0035
          38    0.1054   -0.0104   -0.0013    0.0739   -0.1059    0.0807    0.0014    0.0189
          39   -0.1736    0.0144    0.2021   -0.0050   -0.0249   -0.0364    0.0285    0.0020
          40    0.0391   -0.0706   -0.0561   -0.0864   -0.1519   -0.1872   -0.0231    0.1712
          41   -0.1065   -0.1526    0.0253   -0.3039    0.2894   -0.0915   -0.0020    0.0283
          42   -0.0142   -0.0044   -0.0488   -0.1670   -0.0361    0.0226    0.0645   -0.2781
          43    0.0386   -0.0293   -0.0490    0.2960   -0.0254   -0.2557   -0.0360    0.2845
          44    0.2948   -0.1658    0.0873   -0.2627    0.2701   -0.1666   -0.0086    0.1417
          45   -0.0861    0.0097   -0.0620   -0.0634    0.0080    0.0197    0.0630   -0.2761
          46    0.0154    0.0353   -0.0324   -0.1266   -0.1859   -0.1615    0.0145   -0.0428
          47   -0.0167    0.1502   -0.0084   -0.1607    0.2824   -0.0391   -0.0040   -0.0288
          48    0.0479   -0.0052   -0.0987   -0.0545    0.0090    0.0090    0.0067    0.0214
          49    0.0289    0.3945   -0.0394   -0.2303   -0.2533   -0.1421    0.0223   -0.1199
          50    0.0040    0.5947   -0.0317    0.0858    0.3054   -0.0202   -0.0171   -0.0044
          51    0.0354   -0.3955   -0.0963    0.1983    0.1224   -0.0162   -0.0089    0.1430
          52    0.0018   -0.1777   -0.0193    0.3477   -0.0865   -0.2076    0.0598   -0.3174
          53   -0.0162   -0.0925    0.0024    0.4226    0.4058   -0.0907    0.0426   -0.3157
          54    0.0427    0.3005   -0.1381    0.1349    0.0968    0.0479   -0.0799    0.5111
          55   -0.0243   -0.0042    0.2325    0.0163    0.0312    0.1907    0.0079    0.0068
          56    0.0621   -0.0150   -0.0203    0.0772   -0.1039    0.0928   -0.0030    0.0209
          57   -0.0911    0.0259    0.3358   -0.0302   -0.0325   -0.0616    0.0396   -0.0033
          58    0.0680    0.0399    0.5918    0.0312    0.0039    0.1317    0.0503    0.0121
          59    0.0933   -0.0048    0.0121    0.1038   -0.1077    0.0903    0.0055    0.0271
          60   -0.1494    0.0157    0.1940    0.0114   -0.0248   -0.0271    0.0293    0.0066
          61   -0.2057   -0.2240   -0.0765   -0.2277   -0.1682   -0.1584   -0.0263    0.1976
          62   -0.1475   -0.1711    0.0259   -0.3214    0.2947   -0.0919   -0.0018    0.0308
          63    0.6012   -0.0707    0.0072   -0.2004   -0.0642   -0.0346    0.0570   -0.1674
          64    0.0067    0.0072   -0.0241    0.0006    0.0487    0.0220   -0.0033   -0.0126
          65    0.0114   -0.0377    0.0007    0.0006   -0.0939    0.1886   -0.0102    0.0175
          66   -0.0010    0.0375   -0.0919   -0.0213   -0.0202    0.0237   -0.0074   -0.1046
          67    0.0061    0.0209   -0.0279    0.0121    0.0438   -0.0532   -0.0004   -0.0206
          68    0.0102   -0.0423   -0.0015   -0.0052   -0.0914    0.2211    0.0158    0.0234
          69   -0.0218    0.0606   -0.1684   -0.0307   -0.0106    0.0504    0.5501   -0.0504
          70   -0.0107    0.0107   -0.0256   -0.0271    0.0435    0.0660   -0.0079   -0.0557
          71    0.0005   -0.0300   -0.0578   -0.0034   -0.0809    0.2416    0.4478    0.0861
          72   -0.0034    0.0342   -0.0550   -0.0330   -0.0311    0.0098   -0.3128   -0.1718
          73    0.0212   -0.0112   -0.0128    0.0175    0.0580    0.0545   -0.0001    0.0402
          74    0.0205   -0.0572    0.0664   -0.0086   -0.1037    0.1953   -0.5068   -0.0524
          75   -0.0029    0.0358   -0.0633   -0.0339   -0.0292    0.0129   -0.2671   -0.1652


   Root No.       9        10        11        12        13        14        15        16

                 9 A      10 A      11 A      12 A      13 A      14 A      15 A      16 A   

                   0.0       0.0       0.1       0.1       0.1       0.1       0.2       0.2
  
           1   -0.0183   -0.0732   -0.0278    0.0390   -0.0353   -0.0261   -0.0242   -0.0624
           2    0.0208   -0.0230    0.0205   -0.0052    0.0155    0.0173    0.0342   -0.0028
           3   -0.2001    0.0560   -0.0285    0.0417   -0.0536    0.0418    0.1304   -0.0144
           4   -0.0195   -0.0785   -0.0267    0.0426   -0.0405   -0.0273   -0.0241   -0.0552
           5    0.0145   -0.0494    0.0066    0.0020    0.0220    0.0023    0.0214   -0.1006
           6   -0.1804    0.0552   -0.2200    0.0347   -0.0262   -0.0065   -0.0910    0.0420
           7   -0.0151   -0.0427   -0.0224    0.0319   -0.0406   -0.0217   -0.0310   -0.0057
           8    0.0130   -0.0678    0.0036    0.0055    0.0269    0.0014    0.0273   -0.1291
           9   -0.0353    0.0263   -0.2108    0.0256   -0.0245    0.0163   -0.0279    0.0494
          10   -0.0103   -0.0001   -0.0106    0.0119   -0.0261   -0.0042   -0.0196    0.0499
          11    0.0170   -0.0479    0.0112   -0.0026    0.0299    0.0101    0.0335   -0.0921
          12    0.2246    0.0107   -0.1852    0.0218   -0.0276    0.0501    0.1149    0.0013
          13   -0.0112   -0.0017   -0.0103    0.0133   -0.0286   -0.0047   -0.0194    0.0598
          14    0.0241   -0.0164    0.0242   -0.0117    0.0249    0.0219    0.0385    0.0031
          15    0.2510    0.0096    0.0652   -0.0066    0.0006   -0.0374   -0.1104    0.0069
          16   -0.0144   -0.0348   -0.0177    0.0235   -0.0279   -0.0132   -0.0191    0.0015
          17    0.0258    0.0026    0.0283   -0.0175    0.0246    0.0271    0.0393    0.0367
          18    0.0040    0.0296    0.1792    0.0041   -0.0193   -0.0228   -0.0316    0.0048
          19   -0.0235   -0.1027   -0.0427    0.0537   -0.0439   -0.0417   -0.0375   -0.1435
          20    0.0232   -0.0052    0.0291   -0.0145    0.0219    0.0279    0.0450    0.0414
          21   -0.3707    0.0643    0.0078    0.0676   -0.0890    0.1469    0.5017   -0.0899
          22   -0.0202    0.0118   -0.0046   -0.0434    0.0948    0.0184    0.0170   -0.0765
          23    0.0130   -0.0068    0.0149   -0.0447    0.1034    0.0253    0.0412   -0.1142
          24   -0.1369   -0.0101   -0.2038    0.0006    0.0362   -0.0245   -0.1609    0.0266
          25   -0.0070    0.0293    0.0008    0.0014   -0.0246    0.0039   -0.0181    0.1294
          26    0.0161   -0.0658    0.0044    0.0040    0.0285    0.0060    0.0344   -0.1363
          27    0.3973   -0.0114   -0.3124    0.0357   -0.0480    0.1494    0.4466   -0.0583
          28   -0.0069    0.0237   -0.0055    0.0061   -0.0312    0.0032   -0.0158    0.1353
          29    0.0284   -0.0023    0.0287   -0.0167    0.0250    0.0268    0.0401    0.0446
          30    0.4174   -0.0142    0.1910   -0.0370    0.0375   -0.1070   -0.3017   -0.0015
          31   -0.0146   -0.0349   -0.0191    0.0241   -0.0289   -0.0137   -0.0198    0.0013
          32    0.0286    0.0372    0.0426   -0.0322    0.0310    0.0410    0.0488    0.1122
          33   -0.0177    0.0165    0.4478   -0.0222   -0.0009   -0.0576   -0.0690    0.0084
          34   -0.0699    0.0673    0.0017   -0.1608    0.3181    0.0872    0.0958   -0.0815
          35    0.0896   -0.0614    0.0991   -0.1132    0.1946    0.0495    0.0813   -0.1775
          36   -0.0912   -0.0474   -0.1586   -0.0299    0.0755   -0.0133   -0.1400   -0.0065
          37    0.0501    0.1137    0.0464   -0.0614    0.0787    0.0323    0.0294    0.0046
          38   -0.0621    0.2516   -0.0555   -0.0377    0.0026   -0.0115   -0.0638   -0.0488
          39   -0.0738   -0.0730   -0.1539   -0.0091    0.0696   -0.0073   -0.1164    0.0336
          40   -0.0005    0.0249    0.0429    0.1489   -0.0201    0.0346    0.0491    0.0944
          41    0.0019    0.1022    0.0090   -0.0551   -0.0812   -0.2279    0.0849   -0.0600
          42    0.1421    0.1323    0.0205   -0.0280   -0.0553   -0.1503    0.0337   -0.0278
          43   -0.0549   -0.0337   -0.0472    0.3257    0.3611   -0.3613    0.0273   -0.1670
          44   -0.0978   -0.1846   -0.1406   -0.1567    0.2147   -0.0781   -0.0738   -0.0938
          45    0.1517    0.1907    0.0325    0.0416   -0.0307   -0.3098    0.0723   -0.0934
          46    0.0224    0.0265    0.0107   -0.0821   -0.1327   -0.1374    0.1565    0.2676
          47    0.0140    0.1121    0.0728    0.3237   -0.0082    0.1265    0.0804    0.3241
          48    0.1124    0.1330    0.0893    0.4461    0.1456    0.2117   -0.1219   -0.1576
          49    0.0334    0.0323   -0.0065    0.0673    0.0230   -0.0258   -0.0105   -0.0595
          50   -0.0146   -0.0454   -0.0019   -0.0456   -0.0325    0.1787   -0.0970   -0.0973
          51    0.0857    0.0654    0.0880    0.0847   -0.1021    0.0719    0.0613    0.1840
          52    0.0190   -0.1054   -0.0367   -0.3224   -0.1482   -0.0938    0.0309   -0.0519
          53    0.0047   -0.0564    0.0213    0.0299   -0.0453    0.2423   -0.0775   -0.0132
          54    0.0378   -0.0429    0.0165   -0.4123   -0.2335   -0.1142    0.0623    0.0251
          55    0.0611    0.2896    0.0654   -0.2351    0.3690    0.1121    0.0502    0.3751
          56   -0.0652    0.3655   -0.0561   -0.1260    0.1395    0.0236   -0.0778    0.1429
          57    0.0312   -0.2663   -0.0518   -0.0622    0.2747    0.0858    0.0618    0.0958
          58    0.1411    0.0512    0.1609    0.0685   -0.1978    0.0289    0.1464   -0.2803
          59   -0.1256    0.4417   -0.1212    0.0354   -0.2474   -0.0870   -0.2225   -0.1494
          60   -0.1136    0.0317   -0.1935    0.0235   -0.0473   -0.0433   -0.2016   -0.0030
          61    0.0153    0.0108    0.0537   -0.0900   -0.2396    0.5485   -0.2180   -0.1289
          62    0.0025    0.0907    0.0061   -0.0959   -0.1061   -0.1716    0.0524   -0.0895
          63    0.0552   -0.1202   -0.0931   -0.1551    0.1053    0.1520   -0.1472   -0.0525
          64   -0.0146   -0.0416   -0.0243    0.0317   -0.0407   -0.0218   -0.0326   -0.0047
          65    0.0078   -0.1622   -0.0093    0.0710   -0.0621   -0.0462   -0.0095    0.0655
          66   -0.1451   -0.0398    0.0771   -0.0067   -0.0030   -0.0020   -0.0015    0.0191
          67   -0.0162    0.0315   -0.0037   -0.0251    0.0412    0.0179    0.0008   -0.2191
          68    0.0099   -0.1995   -0.0128    0.0977   -0.1014   -0.0654   -0.0250    0.1690
          69   -0.1207   -0.0845    0.1887   -0.0203    0.0081   -0.0060    0.0104    0.0133
          70   -0.0830   -0.1331    0.1932    0.0423   -0.0765   -0.0651   -0.0319    0.0806
          71    0.0618   -0.2188   -0.0311    0.1029   -0.1078   -0.0661   -0.0291    0.1874
          72   -0.2152   -0.0521    0.2051   -0.0209    0.0066   -0.0115    0.0122   -0.0108
          73    0.0575   -0.0302   -0.2699    0.0883   -0.1027   -0.0292   -0.0818    0.1365
          74   -0.0514   -0.1908    0.0062    0.1032   -0.1129   -0.0737   -0.0266    0.1777
          75   -0.2095   -0.0593    0.2027   -0.0174    0.0013   -0.0125    0.0133    0.0053


   Root No.      17        18        19        20        21        22        23        24

                17 A      18 A      19 A      20 A      21 A      22 A      23 A      24 A   

                   0.2       0.3       0.3       0.3       0.4       0.6       0.7       0.8
  
           1    0.0602    0.0157   -0.1083    0.0356    0.0310   -0.1322   -0.0527   -0.0391
           2    0.0178   -0.0054    0.0009    0.0336    0.0366   -0.0234    0.0155   -0.1119
           3   -0.0310    0.0460    0.0511    0.0602    0.0801   -0.0386    0.0977   -0.0441
           4    0.0535    0.0117   -0.0995    0.0353    0.0314   -0.1201   -0.0450   -0.0578
           5    0.1003    0.0033   -0.1098    0.0475    0.0494    0.0643    0.0283    0.0619
           6    0.0596   -0.0559    0.1211    0.1224    0.1128   -0.1170    0.1879   -0.0415
           7    0.0115    0.0161   -0.0884    0.0050    0.0045    0.1000    0.0479   -0.0264
           8    0.1266    0.0026   -0.1170    0.0704    0.0699   -0.0661   -0.0087   -0.0201
           9    0.0528   -0.2307    0.1271    0.1873    0.2280    0.0910   -0.1113   -0.0033
          10   -0.0350    0.0083    0.0024   -0.0179   -0.0219   -0.0166   -0.0221    0.0890
          11    0.0955   -0.0035   -0.0697    0.0597    0.0585   -0.1257   -0.0420    0.0135
          12   -0.0122   -0.0899    0.0135    0.0411    0.0634    0.0371   -0.0302   -0.0282
          13   -0.0443    0.0038    0.0132   -0.0211   -0.0245   -0.0295   -0.0329    0.1030
          14    0.0134   -0.0086    0.0354    0.0325    0.0328   -0.1326   -0.0388   -0.0789
          15    0.0304    0.0931    0.0618    0.0644    0.0718    0.0125    0.0140   -0.0417
          16    0.0059    0.0085   -0.0304    0.0083    0.0028   -0.1623   -0.0813    0.0403
          17   -0.0160   -0.0098    0.0607    0.0156    0.0169   -0.0540   -0.0025   -0.0809
          18   -0.0101   -0.1479   -0.0121    0.0179    0.0366   -0.0127    0.0493   -0.0448
          19    0.1331    0.0351   -0.2538    0.0652    0.0634   -0.1224   -0.0926    0.3452
          20   -0.0226   -0.0135    0.0827    0.0182    0.0196   -0.0413    0.0322   -0.3516
          21   -0.1546    0.4249   -0.0075   -0.0033    0.0455    0.1108   -0.1795    0.0341
          22    0.0647   -0.0157    0.1000   -0.0150   -0.0390   -0.1280   -0.0498   -0.0668
          23    0.1145   -0.0092   -0.0112    0.0144    0.0033    0.1236    0.0760    0.1774
          24    0.0577    0.0183    0.0024   -0.0434   -0.0920   -0.1090    0.0533   -0.0556
          25   -0.1075    0.0020    0.1121   -0.0594   -0.0650   -0.1229   -0.1247    0.3937
          26    0.1361   -0.0007   -0.1343    0.0849    0.0844   -0.0826    0.0102   -0.1523
          27   -0.1335   -0.0932   -0.2196   -0.2418   -0.2609   -0.0945    0.1047    0.0124
          28   -0.1131   -0.0014    0.0965   -0.0558   -0.0580    0.0058   -0.0253    0.1316
          29   -0.0234   -0.0077    0.0842    0.0161    0.0167   -0.1220   -0.0349   -0.0856
          30    0.0740    0.5466    0.1328    0.0708    0.0450    0.0202   -0.0505    0.0403
          31    0.0061    0.0106   -0.0332    0.0088    0.0036   -0.1794   -0.0921    0.0506
          32   -0.0838   -0.0265    0.1625   -0.0196   -0.0186    0.0030    0.0141    0.0285
          33   -0.0462   -0.5430   -0.2131   -0.1505   -0.1430   -0.0230   -0.0270    0.0329
          34    0.0807   -0.0830    0.5196   -0.0579   -0.1142   -0.0872    0.2214   -0.0614
          35    0.0827   -0.0023    0.0103   -0.1377   -0.1386    0.3672   -0.2892    0.1323
          36    0.0417    0.0224   -0.0022   -0.1184   -0.1597    0.0186   -0.1452   -0.0785
          37   -0.0142   -0.0122    0.0295   -0.0078   -0.0068   -0.0908   -0.1009   -0.0781
          38    0.0447    0.0057   -0.0239   -0.0055   -0.0075    0.0794    0.1625    0.2112
          39    0.0525    0.0150   -0.0314   -0.0380   -0.0780   -0.0699    0.0003   -0.0595
          40    0.0993   -0.0029   -0.0044    0.2417   -0.1920   -0.0124    0.0325    0.0113
          41   -0.1071   -0.0203   -0.0059    0.1760    0.0289   -0.0514    0.1040    0.0253
          42   -0.0335    0.0054   -0.0068   -0.0790    0.0648    0.0180   -0.0384   -0.0091
          43   -0.1416   -0.0050    0.0146   -0.3063    0.2575   -0.0101   -0.0045   -0.0089
          44   -0.0298    0.0094    0.0094   -0.0277   -0.2489    0.1134   -0.1994   -0.0359
          45   -0.1237   -0.0039   -0.0060   -0.1714    0.2730   -0.0338    0.0491    0.0060
          46    0.3498    0.0213    0.0057   -0.0567   -0.0572    0.0200   -0.0344   -0.0058
          47    0.4356    0.0299    0.0045   -0.2365    0.0721    0.0122   -0.0244   -0.0051
          48   -0.2334   -0.0163   -0.0186    0.3708   -0.2759    0.0209   -0.0263   -0.0005
          49   -0.0755   -0.0018   -0.0035    0.1713   -0.1426    0.0124   -0.0174   -0.0022
          50   -0.1120   -0.0008   -0.0063   -0.0168    0.0493   -0.0096    0.0160    0.0028
          51    0.2152    0.0088   -0.0087    0.0556   -0.1055    0.0159   -0.0249   -0.0010
          52   -0.0719   -0.0050   -0.0008    0.1838   -0.1287    0.0065   -0.0088   -0.0015
          53   -0.0091    0.0038   -0.0053   -0.0034    0.0113   -0.0059    0.0099    0.0023
          54    0.0155   -0.0037   -0.0078    0.0439   -0.0161    0.0013   -0.0012    0.0018
          55   -0.2214    0.0434   -0.2195    0.0856    0.1081   -0.0502   -0.1467   -0.1784
          56   -0.0688    0.0443   -0.1725    0.0193    0.0258    0.1091    0.1058    0.1512
          57    0.0882   -0.0305   -0.0008    0.1252    0.1026    0.0510    0.4612    0.3806
          58    0.0894   -0.1145    0.4038   -0.0314   -0.0167    0.0817   -0.0088   -0.0323
          59    0.0398    0.0274    0.0274   -0.1739   -0.2294    0.0426    0.0345    0.0918
          60    0.0476    0.0286   -0.0110   -0.1194   -0.1916   -0.1121   -0.0525   -0.1383
          61   -0.1654   -0.0038   -0.0207   -0.2281    0.3362   -0.0409    0.0641    0.0112
          62   -0.1394   -0.0204   -0.0062    0.1259    0.0734   -0.0501    0.0942    0.0198
          63    0.0162    0.0261   -0.0014   -0.2894    0.0380    0.0339   -0.0682   -0.0130
          64    0.0111    0.0164   -0.0947    0.0046    0.0048    0.1485    0.0753   -0.0641
          65   -0.0654    0.0012   -0.0079    0.0083    0.0241   -0.0618   -0.0162   -0.0238
          66    0.0199   -0.0755    0.0412    0.0730    0.0997    0.0751   -0.1095    0.0152
          67    0.2222    0.0305   -0.2656    0.0896    0.0760    0.0872    0.1204   -0.2654
          68   -0.1675   -0.0001    0.0673   -0.0337   -0.0116   -0.0290   -0.0321    0.0609
          69    0.0028    0.0209   -0.0005    0.0160    0.0294    0.0682   -0.1204    0.0325
          70   -0.1426    0.2072   -0.1283   -0.2010   -0.2301    0.2486    0.4840   -0.1972
          71   -0.1785    0.0084    0.0556   -0.0431   -0.0283   -0.0634    0.0687   -0.0410
          72    0.0092    0.0180   -0.0108    0.0023    0.0162    0.1175    0.0269   -0.0342
          73   -0.0550   -0.1854    0.0538    0.1235    0.1773    0.5944   -0.1056   -0.0904
          74   -0.1834   -0.0072    0.0692   -0.0246    0.0098    0.0039   -0.0837    0.0083
          75   -0.0052    0.0162    0.0073    0.0038    0.0158   -0.0815   -0.0594    0.0377


   Root No.      25        26        27        28        29        30        31        32

                25 A      26 A      27 A      28 A      29 A      30 A      31 A      32 A   

                   0.9       0.9       0.9       1.0       1.2       1.2       1.3       1.4
  
           1   -0.0185   -0.0550   -0.0276   -0.0774   -0.0062    0.0049   -0.0190    0.0468
           2   -0.0209   -0.0430   -0.0511   -0.0582    0.1932    0.1118    0.0423    0.0417
           3    0.2400   -0.0042    0.0055   -0.0082   -0.0547    0.1736   -0.1119   -0.1883
           4   -0.0233   -0.0513    0.0002   -0.0479   -0.0009    0.0055    0.0029    0.0335
           5    0.0252   -0.0153   -0.0082   -0.0274    0.0229    0.0012   -0.0128   -0.0403
           6    0.0592   -0.0180    0.0144    0.0097    0.0874   -0.0017   -0.1697   -0.2694
           7   -0.0021    0.0184   -0.0037    0.0165   -0.0252   -0.0129   -0.0169    0.0006
           8   -0.0053   -0.0330    0.0031   -0.0484   -0.0026   -0.0045   -0.0224   -0.0130
           9    0.0878    0.0043    0.0038   -0.0014    0.1302   -0.2620    0.0177    0.0390
          10    0.0165    0.0080    0.0277   -0.0178   -0.1609   -0.0893   -0.1040    0.0011
          11   -0.0021   -0.0630    0.0559   -0.1033   -0.0659   -0.0361   -0.0887    0.0122
          12    0.2793    0.0036    0.0012   -0.0168   -0.0484   -0.0564    0.1536    0.2020
          13    0.0175    0.0011    0.0484    0.0038   -0.1847   -0.1049   -0.1073    0.0003
          14   -0.0218   -0.0591   -0.0203   -0.1271    0.1381    0.0854    0.0109    0.0637
          15    0.3547    0.0011    0.0014   -0.0206   -0.1583    0.1386    0.1539    0.1679
          16   -0.0079   -0.0377    0.0533   -0.1176   -0.1898   -0.0974   -0.1251    0.0542
          17   -0.0170   -0.0385   -0.0271   -0.0530    0.1083    0.0671    0.0134    0.0372
          18    0.3348    0.0009   -0.0003   -0.0247   -0.1539    0.2151    0.0358   -0.0013
          19    0.0980   -0.2446    0.0430    0.2765    0.4269    0.2489    0.0383    0.0950
          20   -0.0962    0.0510   -0.0993   -0.2855   -0.0149   -0.0056    0.0229    0.0344
          21   -0.1374    0.0094   -0.0060    0.0033    0.0313   -0.1291    0.0787    0.1289
          22   -0.0512   -0.0584    0.0210   -0.0324   -0.0766   -0.0526    0.3075   -0.1723
          23    0.0178    0.0103   -0.0270   -0.0496   -0.0655   -0.0576    0.1374   -0.1623
          24   -0.0555   -0.0224    0.0154    0.0092    0.0343    0.0092   -0.0359   -0.1701
          25    0.0861    0.2615    0.1352   -0.4394    0.2206    0.1011    0.0455   -0.0602
          26   -0.0425   -0.2184    0.0020    0.1131   -0.3174   -0.1625   -0.2174    0.0516
          27   -0.1842   -0.0024    0.0029    0.0077    0.0250    0.0607   -0.0966   -0.1341
          28    0.0590   -0.0501   -0.5770    0.4420   -0.1413   -0.0943    0.0236   -0.0903
          29   -0.0113   -0.1029   -0.3849    0.1070    0.2302    0.1275    0.1045    0.0283
          30   -0.3072    0.0001    0.0006    0.0218    0.1122   -0.1155   -0.1027   -0.1071
          31   -0.0059   -0.0463    0.0590   -0.1350   -0.2406   -0.1225   -0.1640    0.0724
          32   -0.0118   -0.1580    0.6696    0.4580   -0.0334   -0.0035    0.0979   -0.0254
          33   -0.2698   -0.0029   -0.0070    0.0143    0.1066   -0.1447   -0.0245   -0.0038
          34   -0.1328    0.0110    0.0112    0.0601    0.0786    0.0855   -0.0933    0.1712
          35    0.2333    0.0529   -0.0388   -0.0368   -0.0496   -0.0621   -0.0154   -0.0090
          36    0.0641   -0.0019    0.0096    0.0122    0.0372   -0.0005   -0.1046   -0.1194
          37   -0.0488   -0.0544    0.0223   -0.0313   -0.1217   -0.0780    0.5618   -0.2415
          38   -0.0279    0.0226   -0.0365   -0.0492   -0.0795   -0.0713    0.1297   -0.2940
          39   -0.0374   -0.0236    0.0167    0.0059    0.0120    0.0021    0.0822   -0.1378
          40   -0.0295   -0.0045    0.0001   -0.0032   -0.0085    0.0008    0.0620   -0.0072
          41   -0.0541   -0.0076    0.0003   -0.0047   -0.0109    0.0018    0.0626   -0.0046
          42    0.0279    0.0044   -0.0006    0.0020    0.0068   -0.0026   -0.0455    0.0030
          43   -0.0017   -0.0013    0.0010    0.0015    0.0026    0.0020   -0.0009    0.0114
          44    0.1079    0.0167   -0.0030    0.0069    0.0182   -0.0063   -0.1186    0.0035
          45   -0.0174   -0.0028    0.0005   -0.0009    0.0000   -0.0002   -0.0034    0.0017
          46    0.0171    0.0032   -0.0007    0.0007    0.0024   -0.0016   -0.0186   -0.0018
          47    0.0125    0.0024   -0.0002    0.0010    0.0027   -0.0010   -0.0221    0.0013
          48    0.0133    0.0025   -0.0009    0.0004    0.0036   -0.0032   -0.0252   -0.0054
          49    0.0100    0.0018   -0.0006   -0.0001    0.0015   -0.0010   -0.0097   -0.0024
          50   -0.0086   -0.0011    0.0003   -0.0007   -0.0014    0.0002    0.0147   -0.0019
          51    0.0068    0.0013   -0.0006    0.0000    0.0007   -0.0029   -0.0008   -0.0064
          52    0.0068    0.0015   -0.0006   -0.0000    0.0025   -0.0004   -0.0216    0.0030
          53   -0.0068   -0.0007    0.0001   -0.0008   -0.0021    0.0000    0.0151   -0.0017
          54   -0.0018   -0.0002   -0.0004   -0.0000    0.0023   -0.0015   -0.0082   -0.0014
          55    0.0597   -0.0196    0.0292    0.0381    0.0829    0.0544   -0.1392    0.1667
          56    0.0433    0.0416   -0.0329   -0.0128    0.0370   -0.0060   -0.2837   -0.1494
          57   -0.1646    0.0668   -0.0706   -0.0494   -0.1417   -0.0093    0.0719    0.3216
          58    0.0767    0.0262    0.0008    0.0373    0.1156    0.0288   -0.3182   -0.0669
          59   -0.0767    0.0326   -0.0249   -0.0044   -0.0877    0.0273    0.0856    0.4442
          60   -0.0800   -0.0250    0.0278    0.0328    0.0109    0.0628    0.0882    0.2553
          61   -0.0192   -0.0025   -0.0005   -0.0017    0.0003   -0.0009   -0.0114   -0.0007
          62   -0.0470   -0.0070    0.0007   -0.0036   -0.0083    0.0018    0.0504   -0.0021
          63    0.0121    0.0004    0.0012    0.0012   -0.0029    0.0011    0.0416   -0.0014
          64   -0.0084    0.0411    0.0111    0.0126   -0.0086   -0.0048   -0.0058   -0.0013
          65   -0.0054    0.0632    0.0015   -0.0001    0.0310    0.0117    0.0102   -0.0149
          66   -0.0449    0.0052   -0.0019    0.0013    0.1089   -0.2201    0.0175    0.0496
          67   -0.0321    0.5911    0.0625    0.1920    0.0966    0.0529    0.0566   -0.0099
          68   -0.0019   -0.1567   -0.0192   -0.0743   -0.0315    0.0236   -0.0216   -0.0208
          69   -0.1908    0.0348   -0.0112    0.0159   -0.2483    0.4803   -0.0288   -0.0664
          70    0.2212   -0.2006    0.0554   -0.1002    0.1105   -0.0385    0.0276   -0.0205
          71    0.1314    0.2824    0.0280    0.1145    0.1711   -0.3554    0.0263    0.0606
          72   -0.0165   -0.2528    0.0033   -0.1306    0.0974   -0.0351    0.0275    0.0016
          73   -0.2873   -0.1388    0.0293   -0.0770    0.0241    0.1142    0.0292    0.0187
          74   -0.1141    0.3285    0.0118    0.1394   -0.1820    0.3124   -0.0213   -0.0393
          75    0.0274    0.2212   -0.0049    0.1149    0.0012   -0.1588   -0.0108    0.0420


   Root No.      33        34        35        36        37        38        39        40

                33 A      34 A      35 A      36 A      37 A      38 A      39 A      40 A   

                   1.6       1.7       1.7       1.9       2.0       2.1       2.2       2.9
  
           1   -0.0520   -0.0689    0.0260    0.1808   -0.0610    0.0791    0.0541   -0.1365
           2   -0.1182   -0.0289    0.0083    0.2098    0.0881   -0.0420   -0.0628   -0.0944
           3   -0.0112   -0.1428   -0.3845    0.0046   -0.0004   -0.1229    0.2060   -0.0115
           4   -0.0227   -0.0690    0.0196    0.1754   -0.0408    0.0541    0.0411   -0.0886
           5    0.0151    0.0533   -0.0228    0.0302    0.1277   -0.0730   -0.0223    0.1246
           6   -0.0153   -0.0318    0.0003    0.0062    0.0087   -0.2068    0.2327   -0.0011
           7   -0.0234   -0.0285    0.0088    0.2334    0.0544    0.0197    0.0113    0.1959
           8    0.0737    0.0368   -0.0115   -0.0561    0.0773   -0.0753   -0.0392    0.0263
           9   -0.0035    0.0301    0.1271    0.0071    0.0114   -0.2132    0.2913   -0.0018
          10   -0.0142    0.0392   -0.0094    0.0400    0.1132   -0.0818   -0.0869    0.0138
          11    0.0324    0.0870   -0.0238   -0.2165    0.1126   -0.1519   -0.1179   -0.0316
          12    0.0082    0.1351    0.4162    0.0039    0.0067   -0.0930    0.1045   -0.0074
          13    0.0033    0.0281   -0.0076    0.0553    0.0894   -0.0566   -0.0627   -0.0392
          14   -0.1075   -0.0048    0.0078   -0.1695   -0.1402    0.0817    0.0592    0.1213
          15    0.0096    0.0633    0.1661   -0.0036   -0.0115    0.1869   -0.2783    0.0070
          16   -0.0351   -0.0176    0.0137   -0.1159   -0.1911    0.1532    0.1252    0.0171
          17   -0.0935    0.0003    0.0029   -0.0040    0.0004   -0.0036   -0.0246    0.0382
          18   -0.0011   -0.0980   -0.3134   -0.0046   -0.0134    0.1446   -0.1619    0.0032
          19   -0.1689   -0.0110    0.0108    0.0854    0.0262   -0.0112   -0.0557   -0.1644
          20   -0.1170   -0.0927    0.0318    0.4342    0.0683    0.0163   -0.0201   -0.3282
          21    0.0063    0.0546    0.1876   -0.0059   -0.0067    0.0349   -0.0768    0.0063
          22   -0.0448   -0.0464   -0.0099    0.0097   -0.0232    0.0003    0.0474   -0.1065
          23   -0.0212    0.0722   -0.0296   -0.0122    0.0918    0.0044    0.0473    0.1114
          24   -0.0124    0.0712    0.1318    0.0012   -0.0080    0.1284   -0.1363   -0.0350
          25    0.1356    0.0883   -0.0274   -0.1525    0.1704   -0.1832   -0.1341   -0.0175
          26   -0.0398    0.1087   -0.0318   -0.2105    0.1860   -0.2263   -0.2155   -0.0289
          27   -0.0044   -0.0633   -0.1904   -0.0008   -0.0035    0.0309   -0.0298    0.0026
          28    0.1818    0.0192   -0.0127    0.0376    0.1006   -0.0750   -0.0486   -0.1760
          29   -0.0507   -0.0167    0.0055   -0.2935   -0.2372    0.1327    0.1337    0.2542
          30   -0.0039   -0.0392   -0.0883    0.0045    0.0070   -0.0948    0.1270   -0.0052
          31   -0.0510   -0.0283    0.0192   -0.1663   -0.3041    0.2588    0.2160    0.0267
          32    0.0702   -0.0664    0.0129    0.0765   -0.0746    0.0644    0.0636   -0.0404
          33   -0.0023    0.0409    0.1738   -0.0010   -0.0004   -0.0726    0.0688   -0.0000
          34    0.0348    0.0470    0.0345   -0.0325    0.0553    0.0010   -0.1386    0.0701
          35   -0.0223    0.0386   -0.1554    0.0599   -0.0015    0.0021    0.2918   -0.0444
          36   -0.0191    0.0479    0.0773    0.0395   -0.0700    0.1339   -0.0094   -0.1386
          37   -0.0608   -0.1185   -0.0479   -0.0720   -0.0213   -0.1335   -0.0240    0.0410
          38   -0.0786   -0.0599    0.1384    0.0123   -0.1136    0.1010   -0.1097   -0.0119
          39    0.0026    0.0960    0.0567   -0.0407    0.0717    0.0536   -0.1203    0.0919
          40    0.0267    0.4040   -0.1347    0.1028   -0.1063    0.0352    0.0519   -0.0423
          41    0.0173    0.1855   -0.0523    0.0097    0.1002    0.1211    0.0843   -0.0187
          42   -0.0118   -0.0914    0.0182    0.0306   -0.1985   -0.1744   -0.1146    0.0170
          43    0.0039    0.0178   -0.0081   -0.0048    0.0432    0.0365    0.0342   -0.0094
          44   -0.0337   -0.3351    0.0981   -0.0043   -0.2338   -0.2549   -0.1812    0.0414
          45   -0.0036   -0.0460    0.0112    0.0083   -0.0880   -0.0967   -0.0726    0.0281
          46   -0.0045   -0.0078   -0.0013    0.0298   -0.1402   -0.1139   -0.0808    0.0317
          47   -0.0148   -0.2903    0.1065   -0.1246    0.3082    0.1658    0.0936   -0.0160
          48   -0.0143   -0.2298    0.0827   -0.0805    0.1587    0.0620    0.0246    0.0090
          49   -0.0013    0.0071   -0.0043    0.0181   -0.0719   -0.0511   -0.0352    0.0069
          50    0.0089    0.1631   -0.0591    0.0654   -0.1536   -0.0772   -0.0428    0.0051
          51    0.0027    0.1253   -0.0486    0.0723   -0.2095   -0.1276   -0.0760    0.0134
          52   -0.0134   -0.2856    0.1053   -0.1238    0.3070    0.1646    0.0916   -0.0126
          53    0.0084    0.1582   -0.0573    0.0634   -0.1477   -0.0735   -0.0399    0.0040
          54   -0.0050   -0.1060    0.0388   -0.0468    0.1183    0.0644    0.0385   -0.0066
          55    0.0530    0.0405   -0.0985   -0.0093    0.0860   -0.1003    0.0913    0.0131
          56   -0.0307    0.0618    0.1810    0.0590   -0.0783    0.2312   -0.1276   -0.0213
          57   -0.0193   -0.1632   -0.0385    0.0493   -0.1162   -0.0135    0.0581   -0.0791
          58    0.0112    0.0807    0.0833    0.0239    0.0005    0.0820   -0.0352   -0.0081
          59    0.0237   -0.1114   -0.1522    0.0254   -0.0335   -0.1050    0.1473   -0.0806
          60    0.0698    0.1108   -0.1061   -0.0607    0.1797   -0.0608   -0.0324    0.1766
          61   -0.0096   -0.1361    0.0465   -0.0239   -0.0252   -0.0715   -0.0632    0.0288
          62    0.0126    0.1124   -0.0298   -0.0087    0.1207    0.1170    0.0811   -0.0165
          63    0.0233    0.2900   -0.0920    0.0221    0.1758    0.2436    0.1941   -0.0718
          64   -0.0254   -0.0220    0.0088    0.2060    0.0536    0.0150    0.0128    0.3755
          65    0.4147   -0.0624    0.0248    0.0517   -0.0508    0.0374    0.0098   -0.0015
          66   -0.0022   -0.0514   -0.1944   -0.0030   -0.0079    0.1306   -0.1558    0.0024
          67    0.3345   -0.0324    0.0268   -0.1204   -0.0989    0.0336    0.0215   -0.0080
          68    0.3937   -0.0752    0.0479    0.2582    0.0119    0.0350    0.0298    0.3739
          69   -0.0318    0.0542    0.1599   -0.0123    0.0066   -0.0885    0.0994   -0.0199
          70   -0.1458    0.0945    0.1345   -0.1875    0.0022   -0.1597    0.1441   -0.0063
          71   -0.1382   -0.0091   -0.1656   -0.1355   -0.0244    0.0793   -0.1263   -0.1972
          72    0.3960   -0.0516   -0.0680   -0.1254   -0.0819    0.0784   -0.0808   -0.2968
          73   -0.1118    0.0056   -0.1758   -0.1889   -0.0181    0.1045   -0.1774   -0.0051
          74   -0.2044    0.0748    0.1253   -0.1201   -0.0040   -0.1068    0.0886   -0.1686
          75   -0.3574   -0.0051   -0.1235    0.1356    0.0714    0.0726   -0.1000    0.3175


   Root No.      41        42        43        44        45        46        47        48

                41 A      42 A      43 A      44 A      45 A      46 A      47 A      48 A   

                   3.0       3.4       3.4       3.5       3.7       4.2       5.0       5.3
  
           1    0.1874    0.0077   -0.0043    0.0278   -0.0758   -0.1998   -0.1010   -0.1975
           2   -0.1593   -0.0398   -0.0179   -0.0238    0.0466    0.1002    0.0547    0.0686
           3   -0.0775   -0.0821   -0.0932    0.4707   -0.0095   -0.0153   -0.3557    0.1871
           4    0.2270    0.0591    0.0323    0.0352   -0.1062   -0.1606   -0.1064   -0.2264
           5    0.1459   -0.1273   -0.1134   -0.0471    0.0577   -0.1005    0.1552    0.0043
           6    0.0685    0.1053    0.0950   -0.1467    0.4978   -0.0589    0.3069   -0.2532
           7   -0.0019    0.0094    0.0022    0.0016    0.0087    0.0086   -0.0305   -0.2640
           8    0.2467   -0.0276   -0.0443    0.0074   -0.0313   -0.2290    0.1144    0.0735
           9   -0.0668   -0.0088    0.0251   -0.4489   -0.3105    0.0026   -0.3031    0.1607
          10   -0.2132    0.0323    0.0404   -0.0015    0.0482    0.2263   -0.0728   -0.2018
          11    0.1020    0.0591    0.0332    0.0278   -0.0572   -0.1344    0.0635    0.1224
          12   -0.0464   -0.0869   -0.1041    0.5149   -0.1444    0.0532    0.3014   -0.1236
          13   -0.2159   -0.0256   -0.0021   -0.0277    0.0598    0.2278   -0.0232   -0.1304
          14   -0.1084    0.0357    0.0345   -0.0029    0.0226    0.1327    0.0013   -0.0097
          15    0.1052    0.1043    0.0927   -0.1672    0.4705   -0.0742   -0.3314    0.1259
          16   -0.0282   -0.0628   -0.0451   -0.0179    0.0257   -0.0070   -0.0201   -0.0568
          17   -0.2354   -0.0089    0.0103   -0.0207    0.0806    0.2503    0.0589    0.0506
          18   -0.0257   -0.0180    0.0040   -0.3185   -0.4315    0.0638    0.3669   -0.1500
          19   -0.2176   -0.0598   -0.0290   -0.0290    0.0451    0.0503    0.0185    0.1349
          20    0.0036   -0.1020   -0.0712   -0.0232    0.0033   -0.1107   -0.0085    0.1352
          21    0.0212    0.0271    0.0294   -0.1408    0.0113   -0.0015    0.0595   -0.0340
          22    0.3862    0.1186    0.0860    0.0481   -0.0531    0.5625   -0.0694    0.1102
          23    0.2226   -0.2486   -0.1979   -0.0734    0.1108    0.2824    0.0464    0.0255
          24    0.0750    0.0711    0.0578    0.0448   -0.0822    0.1228    0.0887    0.1291
          25    0.1375    0.1090    0.0707    0.0460   -0.0808   -0.1282   -0.0416    0.0302
          26   -0.1259    0.2066    0.1635    0.0631   -0.0881    0.0159   -0.1353   -0.0328
          27    0.0155    0.0252    0.0295   -0.1498    0.0363   -0.0121   -0.0510    0.0190
          28    0.1286   -0.0726   -0.0626   -0.0157    0.0004   -0.1192    0.0880    0.1863
          29    0.1165    0.1352    0.0922    0.0511   -0.0811   -0.0386   -0.1374   -0.2499
          30   -0.0356   -0.0319   -0.0283    0.0433   -0.1277    0.0163    0.0567   -0.0164
          31   -0.0818   -0.2216   -0.1651   -0.0757    0.1091   -0.0765    0.1724    0.3244
          32    0.1719    0.0091   -0.0033    0.0168   -0.0472   -0.1170   -0.0194   -0.0174
          33    0.0075    0.0055   -0.0019    0.0907    0.1195   -0.0145   -0.0628    0.0243
          34   -0.1275   -0.0697   -0.0587   -0.0031   -0.0351   -0.1505    0.0119    0.0001
          35   -0.0652    0.0125    0.0337   -0.0375    0.1232   -0.0717   -0.0429   -0.1197
          36   -0.0625    0.2566    0.2179    0.0763   -0.0929   -0.0386    0.0792    0.0987
          37   -0.3315    0.0128    0.0113   -0.0099    0.0303   -0.2767   -0.0164   -0.0603
          38   -0.1824    0.0074    0.0068    0.0164   -0.0402   -0.1444    0.0183   -0.0088
          39   -0.0699   -0.1445   -0.1139   -0.0189   -0.0238   -0.0658    0.0277    0.0222
          40   -0.0506    0.3875   -0.4093   -0.0233    0.0006   -0.0055    0.0012    0.0007
          41   -0.0163   -0.0067    0.0387    0.0052   -0.0042   -0.0021   -0.0062   -0.0020
          42    0.0167    0.1481   -0.2213   -0.0183    0.0063    0.0094    0.0023   -0.0003
          43   -0.0039   -0.0373    0.0785    0.0074   -0.0030   -0.0078   -0.0005   -0.0009
          44    0.0415    0.0421   -0.1522   -0.0182    0.0081    0.0257    0.0007    0.0025
          45    0.0314    0.0496   -0.1562   -0.0180    0.0083    0.0352    0.0003    0.0039
          46    0.0417   -0.3811    0.4287    0.0270   -0.0037    0.0021   -0.0025   -0.0003
          47   -0.0194    0.1554   -0.1722   -0.0105    0.0017   -0.0009    0.0011    0.0002
          48    0.0124   -0.1621    0.1878    0.0119   -0.0028   -0.0001   -0.0009   -0.0001
          49    0.0084   -0.0372    0.0367    0.0023    0.0005   -0.0003    0.0011   -0.0000
          50    0.0070   -0.0456    0.0498    0.0033   -0.0002    0.0001    0.0001   -0.0000
          51    0.0138   -0.0943    0.0995    0.0054   -0.0021   -0.0012    0.0007    0.0000
          52   -0.0117    0.0854   -0.0888   -0.0047    0.0008    0.0002    0.0002    0.0001
          53    0.0047   -0.0268    0.0279    0.0017    0.0000    0.0003   -0.0004   -0.0001
          54   -0.0068    0.0499   -0.0536   -0.0034   -0.0009    0.0006    0.0002    0.0001
          55    0.0929    0.0303    0.0296   -0.0236    0.0936    0.0469    0.1412    0.0600
          56    0.0331   -0.0884   -0.0827    0.0358   -0.1630    0.0260   -0.2530   -0.1021
          57    0.0143    0.0959    0.0737    0.0277   -0.0372    0.0154   -0.0361   -0.0066
          58    0.0474   -0.0016   -0.0016    0.0022   -0.0178    0.0358   -0.0034    0.0045
          59    0.0320    0.1655    0.1383    0.0167    0.0335    0.0278    0.1093    0.0726
          60    0.0534   -0.3436   -0.2853   -0.0638    0.0039    0.0171   -0.2163   -0.1487
          61    0.0329   -0.0269   -0.0468   -0.0090    0.0054    0.0234    0.0004    0.0021
          62   -0.0166   -0.1160    0.2034    0.0182   -0.0065   -0.0243    0.0027   -0.0012
          63   -0.0759    0.0297    0.1550    0.0241   -0.0140   -0.0522   -0.0011   -0.0043
          64    0.0012    0.0904    0.0588    0.0261   -0.0257   -0.0136   -0.0098   -0.1034
          65   -0.0661    0.0029    0.0067   -0.0014    0.0050    0.0119    0.0011    0.0016
          66    0.0126    0.0014   -0.0033    0.0592    0.0347   -0.0023   -0.0043    0.0083
          67   -0.1177    0.0260    0.0278   -0.0037    0.0018    0.0608   -0.0016    0.1242
          68   -0.1122    0.1073    0.0816    0.0200   -0.0201    0.0516    0.0171    0.2276
          69    0.0003   -0.0060   -0.0022   -0.0349   -0.0193   -0.0018   -0.0086   -0.0076
          70    0.0388    0.0120    0.0119   -0.1056   -0.0925   -0.0528   -0.0145    0.1593
          71   -0.0074   -0.0531   -0.0385    0.0506    0.0691    0.0277    0.0040   -0.1472
          72   -0.0586   -0.0771   -0.0507    0.0446    0.0898    0.0724   -0.0068   -0.2228
          73    0.0713    0.0157   -0.0015    0.1267    0.0636   -0.0460    0.0787    0.1048
          74   -0.0130   -0.0479   -0.0270   -0.0755   -0.0232    0.0210   -0.0454   -0.0937
          75    0.0780    0.0857    0.0463    0.1157    0.0204   -0.0705    0.0876    0.1882


   Root No.      49        50        51        52        53        54        55        56

                49 A      50 A      51 A      52 A      53 A      54 A      55 A      56 A   

                   5.7       6.7       6.9       7.6       7.7       8.6       8.8       8.8
  
           1   -0.0075   -0.0838   -0.0426   -0.1448    0.0085   -0.2549    0.0631   -0.0914
           2    0.0930   -0.1555   -0.0341    0.2268   -0.0456   -0.1914    0.0466   -0.0531
           3    0.1590    0.0294    0.0081   -0.0140    0.0036   -0.0029    0.0003   -0.0035
           4    0.0626   -0.1536   -0.0552   -0.0389   -0.0089   -0.2174    0.0508   -0.0717
           5    0.3107    0.0301    0.0269    0.0400    0.0084    0.1937   -0.0385    0.0619
           6   -0.2696   -0.0824   -0.0196    0.0388   -0.0083    0.0164    0.0127    0.0379
           7    0.2310    0.1309    0.0455    0.1894   -0.0238   -0.0001    0.0088    0.0068
           8    0.2230   -0.1757   -0.0389    0.0034    0.0026    0.2040   -0.0534    0.0715
           9    0.1371    0.0265    0.0067   -0.0088    0.0020    0.0079   -0.0694   -0.0906
          10    0.0748    0.0380    0.0068   -0.2031    0.0399    0.1938   -0.0392    0.0653
          11    0.0416   -0.1969   -0.0543   -0.1278    0.0210    0.2742   -0.0795    0.0919
          12   -0.0855   -0.0060   -0.0010    0.0036   -0.0005   -0.0058    0.0217    0.0254
          13    0.1047   -0.0676   -0.0224   -0.2590    0.0462    0.1892   -0.0401    0.0612
          14    0.0775   -0.2529   -0.0733   -0.0216   -0.0113   -0.2080    0.0406   -0.0776
          15    0.0861    0.0084    0.0027   -0.0047    0.0015    0.0034   -0.0009    0.0003
          16    0.0100   -0.0937   -0.0413   -0.3077    0.0435   -0.0446    0.0066   -0.0336
          17    0.1374   -0.2709   -0.0666    0.1076   -0.0276   -0.1280    0.0277   -0.0364
          18   -0.1068   -0.0087   -0.0005    0.0027    0.0002    0.0006    0.0017    0.0025
          19   -0.1593    0.1424    0.0388   -0.0522    0.0162    0.1227   -0.0300    0.0380
          20   -0.2538    0.2864    0.0742   -0.1317    0.0354    0.2135   -0.0505    0.0643
          21   -0.0264   -0.0081    0.0001    0.0032    0.0003   -0.0001   -0.0003   -0.0002
          22   -0.1098   -0.1029    0.0058    0.1702   -0.0151    0.1478   -0.0378    0.0597
          23    0.0124    0.2527    0.0710   -0.1997    0.0396   -0.2468    0.0716   -0.1048
          24    0.1726    0.1295    0.0263   -0.0610    0.0099   -0.0442    0.0122   -0.0242
          25   -0.1354    0.1348    0.0369    0.1501   -0.0246   -0.1268    0.0326   -0.0404
          26   -0.2650    0.2452    0.0632    0.2010   -0.0349   -0.2532    0.0649   -0.0820
          27    0.0126   -0.0010   -0.0006   -0.0009    0.0000    0.0024   -0.0049   -0.0053
          28    0.0019   -0.1467   -0.0375    0.0784   -0.0198   -0.1058    0.0192   -0.0367
          29   -0.0728    0.3031    0.0770   -0.1211    0.0334    0.2014   -0.0389    0.0681
          30   -0.0113   -0.0036   -0.0003    0.0019   -0.0000   -0.0019   -0.0002   -0.0019
          31   -0.0459    0.1662    0.0676    0.3812   -0.0510    0.0405   -0.0066    0.0286
          32   -0.0360    0.0349    0.0069   -0.0036    0.0004   -0.0159    0.0040   -0.0060
          33    0.0145   -0.0001    0.0018    0.0013    0.0008    0.0004   -0.0000   -0.0001
          34    0.0664    0.0197    0.0023   -0.0221    0.0031   -0.0056    0.0015   -0.0046
          35   -0.1627   -0.0555   -0.0408    0.0075   -0.0183   -0.0352    0.0015    0.0029
          36    0.1489    0.0021   -0.0303    0.0372   -0.0197    0.0792   -0.0259    0.0295
          37   -0.0296   -0.1023   -0.0316    0.0756   -0.0167    0.1123   -0.0336    0.0455
          38    0.0514    0.0850    0.0240   -0.1049    0.0226   -0.1607    0.0514   -0.0694
          39    0.1002    0.1496    0.0247   -0.1354    0.0173   -0.1318    0.0287   -0.0583
          40    0.0020    0.0269   -0.1152    0.0142    0.0644   -0.0620   -0.1353    0.1011
          41   -0.0085    0.0774   -0.3383    0.0026   -0.2240    0.2305    0.4148   -0.3028
          42    0.0009   -0.1079    0.3612    0.0375    0.2800    0.1577    0.3480   -0.2598
          43   -0.0014   -0.0376    0.1103    0.0099    0.0538    0.0473    0.0949   -0.0705
          44    0.0015    0.0351   -0.0917   -0.0100   -0.0437   -0.0425   -0.0828    0.0606
          45    0.0011    0.1252   -0.3770   -0.0333   -0.2054   -0.1663   -0.3449    0.2561
          46   -0.0034    0.0576   -0.2406    0.0292    0.0929    0.0104    0.0050   -0.0020
          47    0.0014   -0.0123    0.0536   -0.0063   -0.0151   -0.0070   -0.0091    0.0065
          48   -0.0015    0.0383   -0.1581    0.0188    0.0627    0.0040   -0.0018    0.0022
          49    0.0015   -0.0463    0.1897   -0.0045    0.0642   -0.0169   -0.0007   -0.0024
          50    0.0001   -0.0256    0.1382   -0.0735   -0.4403    0.0146    0.0008    0.0025
          51    0.0015   -0.0690    0.3160   -0.0793   -0.3940   -0.0005   -0.0015    0.0006
          52    0.0002   -0.0216    0.1062   -0.0430   -0.2484    0.0068    0.0006    0.0010
          53   -0.0007    0.0421   -0.2105    0.0847    0.4823   -0.0088    0.0061   -0.0064
          54   -0.0003    0.0234   -0.1181    0.0483    0.2747   -0.0045    0.0038   -0.0043
          55    0.1295    0.1413    0.0280   -0.0978    0.0160   -0.0986    0.0310   -0.0422
          56   -0.2331   -0.2439   -0.0448    0.1695   -0.0264    0.1680   -0.0579    0.0760
          57   -0.0355   -0.0584   -0.0107    0.0440   -0.0066    0.0406   -0.0124    0.0177
          58   -0.0035    0.0018    0.0006    0.0008   -0.0002   -0.0022    0.0001   -0.0011
          59    0.1210    0.0785    0.0070   -0.0375    0.0013   -0.0119   -0.0009   -0.0059
          60   -0.2652   -0.1639   -0.0144    0.0865   -0.0050    0.0373   -0.0035    0.0185
          61    0.0006    0.0225   -0.0474   -0.0067   -0.0263    0.0128    0.0352   -0.0272
          62    0.0049   -0.1168    0.4421    0.0038    0.2391   -0.1817   -0.3229    0.2353
          63   -0.0025   -0.0191   -0.0151    0.0129   -0.0122    0.0149   -0.0039    0.0062
          64    0.1201    0.1349    0.0522    0.3647   -0.0523    0.1010   -0.0469    0.0353
          65    0.0130   -0.0467   -0.0144    0.0080   -0.0055   -0.0584    0.0418    0.0132
          66    0.0118    0.0069    0.0010   -0.0164    0.0030   -0.0901    0.4998    0.6151
          67   -0.1446   -0.0178   -0.0100   -0.1015    0.0148   -0.0190    0.0070   -0.0077
          68   -0.2166   -0.0289   -0.0138   -0.1513    0.0231    0.0021    0.0004   -0.0015
          69    0.0128    0.0018    0.0003    0.0081   -0.0016    0.0048   -0.0265   -0.0323
          70   -0.0595   -0.0691   -0.0233   -0.0962    0.0125   -0.0319    0.0951    0.1024
          71    0.0727    0.0588    0.0196    0.0775   -0.0100    0.0463   -0.1323   -0.1420
          72    0.1061    0.0903    0.0304    0.1221   -0.0159    0.0681   -0.2208   -0.2459
          73   -0.1051   -0.0740   -0.0235   -0.0862    0.0111    0.0012   -0.0813   -0.1134
          74    0.0876    0.0525    0.0178    0.0567   -0.0066    0.0011    0.0946    0.1333
          75   -0.1606   -0.1033   -0.0337   -0.1132    0.0135    0.0105   -0.2121   -0.2856


   Root No.      57        58        59        60        61        62        63        64

                57 A      58 A      59 A      60 A      61 A      62 A      63 A      64 A   

                   9.1       9.5      10.0      11.0      11.4      14.3      15.1      16.5
  
           1   -0.0552   -0.1385   -0.0101    0.0014   -0.1151    0.3472    0.1523   -0.3329
           2    0.0220   -0.3209    0.0300    0.0095   -0.2277   -0.2064    0.3693   -0.2621
           3   -0.0002    0.0000    0.0007   -0.0005    0.0011   -0.0037   -0.0017    0.0005
           4   -0.0124   -0.1601    0.0027    0.0057   -0.1438   -0.3257   -0.2244    0.4080
           5   -0.0038   -0.1352   -0.0146   -0.0180    0.4180   -0.2519    0.2366   -0.1608
           6   -0.0004    0.0021   -0.0329    0.0008   -0.0075   -0.0025   -0.0031    0.0040
           7    0.0530   -0.1001   -0.0185   -0.0144    0.3769   -0.0343   -0.3722   -0.1088
           8   -0.0236   -0.0124    0.0324    0.0019    0.0658    0.4462    0.0301    0.3432
           9    0.0061   -0.0029    0.0054   -0.0003    0.0017    0.0112   -0.0020   -0.0044
          10    0.0652   -0.1609    0.0380    0.0057   -0.0907    0.3476   -0.2238   -0.3204
          11   -0.0728    0.0846    0.0719    0.0224   -0.4078   -0.2125   -0.2518   -0.2781
          12   -0.0006    0.0004   -0.0013   -0.0003    0.0033   -0.0033    0.0008    0.0017
          13    0.0928   -0.1406    0.0315    0.0060   -0.1094   -0.3051    0.1701    0.3892
          14   -0.1028    0.3191   -0.0591   -0.0106    0.1819   -0.1979   -0.3893   -0.1398
          15    0.0015   -0.0046    0.0015   -0.0000   -0.0040   -0.0072    0.0031    0.0028
          16   -0.0814    0.3807   -0.0704   -0.0145    0.2420   -0.0455    0.4363   -0.0813
          17   -0.0097    0.0075   -0.0029   -0.0005    0.0301    0.4037    0.0149    0.3238
          18   -0.0007    0.0025   -0.0002   -0.0004    0.0020    0.0095    0.0009   -0.0028
          19    0.0051    0.1338   -0.0052   -0.0016    0.0474    0.0133   -0.0529    0.0478
          20    0.0060    0.1956   -0.0102   -0.0036    0.0948   -0.0058   -0.1034    0.0646
          21    0.0001   -0.0010   -0.0002   -0.0003   -0.0003    0.0006    0.0006   -0.0001
          22    0.0172    0.0027    0.0737   -0.0005    0.0772   -0.0016    0.0209   -0.0328
          23   -0.0078    0.0271   -0.1403   -0.0064   -0.1585    0.0099   -0.0229    0.0054
          24   -0.0007    0.0039    0.0034   -0.0019   -0.0022   -0.0056    0.0102   -0.0271
          25    0.0079   -0.0008   -0.0211   -0.0053    0.0884    0.0126    0.0536    0.0471
          26    0.0207   -0.0013   -0.0434   -0.0097    0.1566   -0.0057    0.0835    0.0665
          27    0.0002   -0.0002    0.0003    0.0000   -0.0007    0.0003   -0.0004   -0.0003
          28   -0.0585    0.1312   -0.0185   -0.0025    0.0355   -0.0178   -0.0576   -0.0485
          29    0.0849   -0.1971    0.0338    0.0050   -0.0808   -0.0022    0.1093    0.0474
          30   -0.0009    0.0022   -0.0004   -0.0004    0.0012    0.0003   -0.0009   -0.0007
          31    0.0578   -0.2455    0.0417    0.0073   -0.1113    0.0126   -0.1269    0.0171
          32   -0.0070    0.0000   -0.0021   -0.0002   -0.0016    0.0122   -0.0008   -0.0297
          33    0.0002   -0.0006   -0.0001   -0.0004   -0.0002   -0.0008   -0.0005    0.0003
          34   -0.0036   -0.0083   -0.0290   -0.0011    0.0048   -0.0067    0.0044    0.0011
          35   -0.0008    0.0073    0.0161    0.0087   -0.0476    0.0089   -0.0421    0.0272
          36    0.0018   -0.0108    0.0902    0.0082    0.0946   -0.0180    0.0666   -0.0349
          37   -0.0004   -0.0353   -0.2191   -0.0026    0.0481   -0.0146    0.0440   -0.0313
          38   -0.0103    0.0537    0.6280    0.0059   -0.0111    0.0037   -0.0447    0.0406
          39   -0.0086   -0.0104   -0.4356   -0.0064   -0.1673    0.0287   -0.0980    0.0738
          40    0.0016   -0.0019    0.0125   -0.2478   -0.0059    0.0000    0.0000    0.0000
          41   -0.0037    0.0029   -0.0025    0.1601    0.0049    0.0000    0.0002    0.0004
          42   -0.0033    0.0041   -0.0147   -0.2771   -0.0232    0.0008   -0.0019    0.0008
          43   -0.0008    0.0010   -0.0027   -0.0225   -0.0021    0.0001    0.0001   -0.0000
          44    0.0007   -0.0009    0.0013    0.0127    0.0015    0.0002    0.0001   -0.0001
          45    0.0032   -0.0034    0.0096    0.0911    0.0105   -0.0004    0.0011   -0.0006
          46    0.0003   -0.0009    0.0072   -0.2999   -0.0111    0.0002   -0.0002    0.0002
          47   -0.0001    0.0002   -0.0012    0.0723    0.0028    0.0003    0.0000    0.0000
          48    0.0002   -0.0006    0.0054   -0.2069   -0.0078    0.0001   -0.0003    0.0003
          49   -0.0006    0.0021   -0.0152    0.6612    0.0251   -0.0003    0.0007   -0.0005
          50    0.0002   -0.0013    0.0090   -0.3231   -0.0118    0.0004   -0.0003    0.0003
          51   -0.0003    0.0005   -0.0058    0.2769    0.0110   -0.0002    0.0004   -0.0002
          52    0.0001   -0.0004    0.0035   -0.1059   -0.0036    0.0001   -0.0000    0.0001
          53   -0.0003    0.0009   -0.0060    0.1872    0.0066    0.0003    0.0001   -0.0001
          54   -0.0001    0.0005   -0.0034    0.0997    0.0034    0.0000    0.0000   -0.0000
          55   -0.0040    0.0203    0.1608    0.0022   -0.0189    0.0011   -0.0118    0.0089
          56    0.0076   -0.0384   -0.3197   -0.0035    0.0271   -0.0038    0.0187   -0.0123
          57    0.0022   -0.0041    0.0062    0.0006    0.0179   -0.0020    0.0051   -0.0029
          58    0.0003    0.0033    0.0235    0.0007    0.0010    0.0007   -0.0002   -0.0004
          59   -0.0006   -0.0127   -0.2164   -0.0020   -0.0318    0.0035   -0.0077    0.0038
          60    0.0034    0.0209    0.3615    0.0037    0.0605   -0.0067    0.0181   -0.0105
          61   -0.0005    0.0008   -0.0043    0.0147   -0.0026    0.0002   -0.0005    0.0002
          62    0.0027   -0.0020   -0.0008   -0.1091   -0.0033    0.0004   -0.0000   -0.0003
          63    0.0004   -0.0016    0.0120    0.0132    0.0083   -0.0006    0.0011   -0.0002
          64   -0.1206    0.5086    0.0232    0.0179   -0.4012    0.0173    0.1828    0.0319
          65    0.7864    0.1757   -0.0120    0.0014   -0.0380   -0.0043    0.0072   -0.0600
          66   -0.0470    0.0155   -0.0054    0.0006   -0.0053   -0.0016    0.0015    0.0005
          67   -0.1428   -0.0986   -0.0016   -0.0018    0.0281   -0.0169   -0.0005   -0.0048
          68   -0.3978   -0.1861    0.0021   -0.0025    0.0566   -0.0039   -0.0102    0.0107
          69    0.0207    0.0085    0.0002    0.0003   -0.0028    0.0005    0.0006   -0.0004
          70    0.0895   -0.0428   -0.0016   -0.0009    0.0202    0.0087    0.0030    0.0052
          71   -0.1531    0.0143    0.0044    0.0011   -0.0137    0.0022    0.0014    0.0051
          72   -0.1747    0.0370    0.0056    0.0014   -0.0267   -0.0017    0.0036    0.0032
          73    0.0903   -0.0497   -0.0009   -0.0012    0.0211    0.0068    0.0026    0.0049
          74   -0.1369    0.0195    0.0024    0.0011   -0.0129    0.0026    0.0017    0.0043
          75    0.1974   -0.0579   -0.0022   -0.0016    0.0326    0.0019   -0.0049   -0.0027


   Root No.      65        66        67        68        69

                65 A      66 A      67 A      68 A      69 A   

                  16.7      17.4      20.3      20.4      22.7
  
           1   -0.2339   -0.0214    0.1489    0.4385   -0.0261
           2    0.2463   -0.0190   -0.3235   -0.1216    0.0055
           3   -0.0032   -0.0001    0.0034    0.0021    0.0021
           4   -0.0798    0.0661    0.0980   -0.4419    0.0376
           5   -0.4070   -0.1296    0.2755   -0.1275   -0.0669
           6    0.0068   -0.0028   -0.0059    0.0012   -0.0225
           7    0.5234    0.0202    0.0214    0.2299    0.0051
           8    0.0874    0.0289   -0.4961    0.0244    0.0376
[...]
 FORCE CONSTANT      0.7080

 VIBRATION         35   35A           ATOM PAIR      ENERGY CONTRIBUTION    RADIAL
 FREQUENCY          1032.36         C 22 -- H 23         +20.8% ( 58.6%)     12.2%
 TRANSITION DIPOLE   0.4062         C 22 -- H 24         +17.3% ( 53.4%)     14.5%
 TRAVEL (Ang.)       0.4019         C 22 -- H 25          +9.4% ( 39.4%)      1.1%
 REDUCED MASS        0.4044         C  6 -- H 11          +9.4% ( 39.3%)      0.3%
 EFFECTIVE MASS      4.5729
 FORCE CONSTANT      0.2539

 VIBRATION         36   36A           ATOM PAIR      ENERGY CONTRIBUTION    RADIAL
 FREQUENCY          1035.07         C 22 -- H 23         +19.8% ( 55.8%)     13.5%
 TRANSITION DIPOLE   0.4841         C 22 -- H 25         +15.5% ( 49.3%)     11.8%
 TRAVEL (Ang.)       0.4008         C  6 -- H 11         +11.0% ( 41.6%)      0.1%
 REDUCED MASS        0.4056         C 22 -- H 24          +9.2% ( 38.1%)      2.5%
 EFFECTIVE MASS      4.5470
 FORCE CONSTANT      0.2560

 VIBRATION         37   37A           ATOM PAIR      ENERGY CONTRIBUTION    RADIAL
 FREQUENCY          1056.93         C 22 -- H 25         +26.6% ( 63.3%)     15.7%
 TRANSITION DIPOLE   0.8209         C 22 -- H 24         +23.7% ( 59.8%)     14.6%
 TRAVEL (Ang.)       0.2862         C  3 -- C 22         +14.3% ( 46.5%)      0.0%
 REDUCED MASS        0.7788         C 22 -- H 23         +14.0% ( 46.0%)      0.2%
 EFFECTIVE MASS      4.9333
 FORCE CONSTANT      0.5126

 VIBRATION         38   38A           ATOM PAIR      ENERGY CONTRIBUTION    RADIAL
 FREQUENCY          1159.70         C  1 -- C  2         +14.5% ( 58.1%)      1.4%
 TRANSITION DIPOLE   0.4707         C  2 -- C  8         +13.1% ( 55.3%)     83.1%
 TRAVEL (Ang.)       0.2264         C  2 -- C  3         +10.6% ( 49.7%)      8.4%
 REDUCED MASS        1.1342         C  3 -- C 22         +10.4% ( 49.3%)     79.0%
 EFFECTIVE MASS      9.1648         C  3 -- C  4         +10.1% ( 48.4%)     14.2%
 FORCE CONSTANT      0.8987

 VIBRATION         39   39A           ATOM PAIR      ENERGY CONTRIBUTION    RADIAL
 FREQUENCY          1186.09         O 14 -- H 15         +76.2% ( 80.3%)      4.3%
 TRANSITION DIPOLE   0.9999         O 14 -- H 21         +13.5% ( 33.7%)     22.1%
 TRAVEL (Ang.)       0.2724         C  4 -- H  9          +1.6% ( 11.7%)     14.7%
 REDUCED MASS        0.7660         C 13 -- H 20          +1.0% (  9.0%)     43.2%
 EFFECTIVE MASS      2.9229
 FORCE CONSTANT      0.6349

 VIBRATION         40   40A           ATOM PAIR      ENERGY CONTRIBUTION    RADIAL
 FREQUENCY          1191.62         C  4 -- H  9         +20.2% ( 58.7%)      6.8%
 TRANSITION DIPOLE   0.4385         C  5 -- C  6         +18.3% ( 55.8%)    100.0%
 TRAVEL (Ang.)       0.3311         C  1 -- H  7         +15.8% ( 51.9%)      6.3%
 REDUCED MASS        0.5162         C  4 -- C  5          +9.6% ( 40.4%)     56.3%
 EFFECTIVE MASS      5.4519
 FORCE CONSTANT      0.4319

 VIBRATION         41   41A           ATOM PAIR      ENERGY CONTRIBUTION    RADIAL
 FREQUENCY          1234.62         C  5 -- H 10         +29.6% ( 64.5%)      0.0%
 TRANSITION DIPOLE   0.3297         C  6 -- H 11         +24.0% ( 58.0%)      0.2%
 TRAVEL (Ang.)       0.4389         C  4 -- H  9          +9.3% ( 36.1%)      1.2%
 REDUCED MASS        0.2836         C  1 -- H  7          +7.7% ( 33.0%)      0.7%
 EFFECTIVE MASS      2.5778
 FORCE CONSTANT      0.2547

 VIBRATION         42   42A           ATOM PAIR      ENERGY CONTRIBUTION    RADIAL
 FREQUENCY          1245.38         C 22 -- H 25         +44.1% ( 58.2%)      0.6%
 TRANSITION DIPOLE   0.6840         C 22 -- H 24         +33.4% ( 50.6%)      4.1%
 TRAVEL (Ang.)       0.3772         C 22 -- H 23         +10.8% ( 28.8%)     21.9%
 REDUCED MASS        0.3805         C  3 -- C 22          +4.1% ( 17.8%)     11.5%
 EFFECTIVE MASS      1.5635
 FORCE CONSTANT      0.3477

 VIBRATION         43   43A           ATOM PAIR      ENERGY CONTRIBUTION    RADIAL
 FREQUENCY          1252.77         C 22 -- H 23         +41.6% ( 55.4%)      0.3%
 TRANSITION DIPOLE   0.6330         C 22 -- H 24         +32.8% ( 49.2%)      1.4%
 TRAVEL (Ang.)       0.3906         C 22 -- H 25         +17.4% ( 35.8%)     17.0%
 REDUCED MASS        0.3529         C  3 -- C 22          +3.4% ( 15.9%)     18.4%
 EFFECTIVE MASS      1.4528
 FORCE CONSTANT      0.3263

 VIBRATION         44   44A           ATOM PAIR      ENERGY CONTRIBUTION    RADIAL
 FREQUENCY          1253.84         C  6 -- H 11         +21.2% ( 56.4%)      4.7%
 TRANSITION DIPOLE   0.2965         C  2 -- C  3         +12.2% ( 42.7%)      1.1%
 TRAVEL (Ang.)       0.3292         C  1 -- C  2         +10.9% ( 40.3%)     66.5%
 REDUCED MASS        0.4963         C  2 -- C  8         +10.1% ( 38.8%)     94.1%
 EFFECTIVE MASS      4.9114
 FORCE CONSTANT      0.4597

 VIBRATION         45   45A           ATOM PAIR      ENERGY CONTRIBUTION    RADIAL
 FREQUENCY          1332.79         C  1 -- H  7         +31.5% ( 62.9%)      2.0%
 TRANSITION DIPOLE   0.3671         C  4 -- H  9         +21.7% ( 52.2%)      0.5%
 TRAVEL (Ang.)       0.3864         C  1 -- C  2          +7.0% ( 29.7%)     40.0%
 REDUCED MASS        0.3389         C  2 -- C  3          +6.3% ( 28.2%)      2.4%
 EFFECTIVE MASS      2.7966
 FORCE CONSTANT      0.3547

 VIBRATION         46   46A           ATOM PAIR      ENERGY CONTRIBUTION    RADIAL
 FREQUENCY          1342.58         C 13 -- H 19         +21.2% ( 51.7%)      0.0%
 TRANSITION DIPOLE   0.7201         C 13 -- H 20         +13.8% ( 41.7%)      1.4%
 TRAVEL (Ang.)       0.3542         C  3 -- C 22         +12.6% ( 39.9%)     99.7%
 REDUCED MASS        0.4004         C  3 -- C  4          +7.0% ( 29.8%)     33.8%
 EFFECTIVE MASS      4.1893
 FORCE CONSTANT      0.4252

 VIBRATION         47   47A           ATOM PAIR      ENERGY CONTRIBUTION    RADIAL
 FREQUENCY          1362.48         C 22 -- H 23         +17.5% ( 51.5%)      2.5%
 TRANSITION DIPOLE   0.9843         C  3 -- C 22         +13.1% ( 44.6%)     99.3%
 TRAVEL (Ang.)       0.3141         C 22 -- H 24         +11.7% ( 42.1%)      3.0%
 REDUCED MASS        0.5017         C 22 -- H 25         +11.5% ( 41.7%)      3.0%
 EFFECTIVE MASS      5.3801
 FORCE CONSTANT      0.5487

 VIBRATION         48   48A           ATOM PAIR      ENERGY CONTRIBUTION    RADIAL
 FREQUENCY          1376.63         C 22 -- H 23         +10.3% ( 37.6%)      0.2%
 TRANSITION DIPOLE   0.7945         C  2 -- C  3          +9.1% ( 35.2%)     74.0%
 TRAVEL (Ang.)       0.3546         C  3 -- C  4          +8.1% ( 33.3%)     81.0%
 REDUCED MASS        0.3896         C  4 -- C  5          +7.7% ( 32.4%)     75.4%
 EFFECTIVE MASS      5.2583
 FORCE CONSTANT      0.4350

 VIBRATION         49   49A           ATOM PAIR      ENERGY CONTRIBUTION    RADIAL
 FREQUENCY          1425.45         H 16 -- O 17         +61.6% ( 63.2%)      8.9%
 TRANSITION DIPOLE   1.1670         O 17 -- H 18         +37.7% ( 49.5%)      8.3%
 TRAVEL (Ang.)       0.2934         O 14 -- H 15          +0.4% (  4.9%)      2.1%
 REDUCED MASS        0.5496
 EFFECTIVE MASS      1.8006
 FORCE CONSTANT      0.6580

 VIBRATION         50   50A           ATOM PAIR      ENERGY CONTRIBUTION    RADIAL
 FREQUENCY          1445.50         C  3 -- C  4         +13.3% ( 58.0%)     99.0%
 TRANSITION DIPOLE   0.5169         C  1 -- C  2         +13.2% ( 57.8%)     99.6%
 TRAVEL (Ang.)       0.1728         C  1 -- C  6         +12.5% ( 56.2%)     98.8%
 REDUCED MASS        1.5629         C  4 -- C  5         +11.1% ( 52.9%)     99.6%
 EFFECTIVE MASS     10.5084         C  2 -- C  3         +10.6% ( 51.8%)     99.1%
 FORCE CONSTANT      1.9241         C  5 -- C  6         +10.3% ( 51.1%)     99.5%

 VIBRATION         51   51A           ATOM PAIR      ENERGY CONTRIBUTION    RADIAL
 FREQUENCY          1478.40         C  8 -- O 12         +35.1% ( 80.0%)     80.8%
 TRANSITION DIPOLE   5.1466         C  8 -- C 13         +26.2% ( 69.2%)     33.3%
 TRAVEL (Ang.)       0.1080         C  2 -- C  8         +17.0% ( 55.8%)     91.0%
 REDUCED MASS        3.9126         C 13 -- H 20          +9.5% ( 41.5%)      2.0%
 EFFECTIVE MASS     12.3765
 FORCE CONSTANT      5.0385

 VIBRATION         52   52A           ATOM PAIR      ENERGY CONTRIBUTION    RADIAL
 FREQUENCY          1530.50         C  4 -- C  5         +11.7% ( 48.4%)     83.2%
 TRANSITION DIPOLE   0.8274         C  5 -- C  6         +11.4% ( 47.7%)      0.3%
 TRAVEL (Ang.)       0.1759         C  1 -- C  2         +11.1% ( 47.0%)     94.1%
 REDUCED MASS        1.4247         C  1 -- C  6         +10.6% ( 46.1%)     64.1%
 EFFECTIVE MASS      9.9668         C  2 -- C  3         +10.6% ( 46.0%)      0.0%
 FORCE CONSTANT      1.9663

 VIBRATION         53   53A           ATOM PAIR      ENERGY CONTRIBUTION    RADIAL
 FREQUENCY          1572.30         C  2 -- C  3         +18.6% ( 60.3%)     99.0%
 TRANSITION DIPOLE   1.1150         C  3 -- C  4         +12.9% ( 50.3%)     28.6%
 TRAVEL (Ang.)       0.1649         C  1 -- C  2         +10.4% ( 45.1%)     22.5%
 REDUCED MASS        1.5768         C  3 -- C 22          +9.1% ( 42.2%)     87.5%
 EFFECTIVE MASS      9.9128
 FORCE CONSTANT      2.2967

 VIBRATION         54   54A           ATOM PAIR      ENERGY CONTRIBUTION    RADIAL
 FREQUENCY          1667.58         O 14 -- H 21         +96.3% ( 97.7%)     98.7%
 TRANSITION DIPOLE   1.8658         O 14 -- H 15          +3.3% ( 18.0%)     45.3%
 TRAVEL (Ang.)       0.1297         H 16 -- O 17          +0.2% (  4.3%)     95.9%
 REDUCED MASS        2.4037
 EFFECTIVE MASS      4.0793
 FORCE CONSTANT      3.9383

 VIBRATION         55   55A           ATOM PAIR      ENERGY CONTRIBUTION    RADIAL
 FREQUENCY          1693.10         C  5 -- C  6         +17.0% ( 58.6%)     91.0%
 TRANSITION DIPOLE   0.8921         C  1 -- C  6         +15.0% ( 55.1%)     84.0%
 TRAVEL (Ang.)       0.1270         C  2 -- C  3         +14.5% ( 54.1%)     88.3%
 REDUCED MASS        2.4709         C  3 -- C  4         +13.2% ( 51.7%)     84.8%
 EFFECTIVE MASS     11.8967
 FORCE CONSTANT      4.1732

 VIBRATION         56   56A           ATOM PAIR      ENERGY CONTRIBUTION    RADIAL
 FREQUENCY          1698.20         C  4 -- C  5         +18.5% ( 61.4%)    100.0%
 TRANSITION DIPOLE   1.2070         C  1 -- C  2         +16.8% ( 58.6%)     99.5%
 TRAVEL (Ang.)       0.1280         C  3 -- C  4         +10.1% ( 45.5%)     48.0%
 REDUCED MASS        2.4237         C  1 -- C  6          +9.2% ( 43.4%)     51.7%
 EFFECTIVE MASS     11.9412
 FORCE CONSTANT      4.1183

 VIBRATION         57   57A           ATOM PAIR      ENERGY CONTRIBUTION    RADIAL
 FREQUENCY          1756.84         C  8 -- C 13         +39.2% ( 92.4%)     96.3%
 TRANSITION DIPOLE   9.1807         C  8 -- O 12         +26.7% ( 76.3%)     77.7%
 TRAVEL (Ang.)       0.0810         C  2 -- C  8         +20.5% ( 66.9%)      9.3%
 REDUCED MASS        5.8570         C 13 -- H 19          +6.4% ( 37.3%)     18.1%
 EFFECTIVE MASS     12.2800
 FORCE CONSTANT     10.6509

 VIBRATION         58   58A           ATOM PAIR      ENERGY CONTRIBUTION    RADIAL
 FREQUENCY          2567.93         H 16 -- O 17         +80.9% ( 92.4%)     97.8%
 TRANSITION DIPOLE   2.5851         O 17 -- H 18         +17.2% ( 42.5%)     91.5%
 TRAVEL (Ang.)       0.1928         O 14 -- H 15          +1.9% ( 14.2%)     96.3%
 REDUCED MASS        0.7065
 EFFECTIVE MASS      1.5419
 FORCE CONSTANT      2.7449

 VIBRATION         59   59A           ATOM PAIR      ENERGY CONTRIBUTION    RADIAL
 FREQUENCY          2646.33         C 22 -- H 24         +61.3% ( 80.8%)     99.1%
 TRANSITION DIPOLE   0.9907         C 22 -- H 25         +35.1% ( 61.1%)     95.5%
 TRAVEL (Ang.)       0.2230         C 22 -- H 23          +2.8% ( 17.1%)     40.2%
 REDUCED MASS        0.5122         C  3 -- C 22          +0.8% (  9.3%)      0.0%
 EFFECTIVE MASS      1.4317
 FORCE CONSTANT      2.1132

 VIBRATION         60   60A           ATOM PAIR      ENERGY CONTRIBUTION    RADIAL
 FREQUENCY          2659.28         C 22 -- H 23         +60.3% ( 80.1%)     99.4%
 TRANSITION DIPOLE   0.8742         C 22 -- H 25         +30.6% ( 57.1%)     94.2%
 TRAVEL (Ang.)       0.2301         C 22 -- H 24          +8.2% ( 29.5%)     71.7%
 REDUCED MASS        0.4787         C  3 -- C 22          +0.9% (  9.8%)      0.1%
 EFFECTIVE MASS      1.4475
 FORCE CONSTANT      1.9947

 VIBRATION         61   61A           ATOM PAIR      ENERGY CONTRIBUTION    RADIAL
 FREQUENCY          2739.15         C  6 -- H 11         +54.4% ( 74.6%)    100.0%
 TRANSITION DIPOLE   0.3161         C  5 -- H 10         +27.7% ( 53.2%)    100.0%
 TRAVEL (Ang.)       0.2562         C  1 -- H  7         +10.2% ( 32.3%)     99.8%
 REDUCED MASS        0.3749         C  4 -- H  9          +5.8% ( 24.3%)     99.7%
 EFFECTIVE MASS      1.3673
 FORCE CONSTANT      1.6574

 VIBRATION         62   62A           ATOM PAIR      ENERGY CONTRIBUTION    RADIAL
 FREQUENCY          2743.36         C  4 -- H  9         +58.2% ( 77.0%)    100.0%
 TRANSITION DIPOLE   1.0467         C  6 -- H 11         +20.6% ( 45.9%)     99.9%
 TRAVEL (Ang.)       0.2494         C  5 -- H 10         +15.9% ( 40.3%)     99.7%
 REDUCED MASS        0.3951         C  1 -- H  7          +3.2% ( 18.0%)     99.9%
 EFFECTIVE MASS      1.3597
 FORCE CONSTANT      1.7522

 VIBRATION         63   63A           ATOM PAIR      ENERGY CONTRIBUTION    RADIAL
 FREQUENCY          2747.03         C  1 -- H  7         +57.2% ( 76.4%)    100.0%
 TRANSITION DIPOLE   1.6001         C  5 -- H 10         +24.9% ( 50.4%)    100.0%
 TRAVEL (Ang.)       0.2481         C  4 -- H  9         +14.5% ( 38.4%)     99.9%
 REDUCED MASS        0.3989         C  6 -- H 11          +0.9% (  9.7%)     95.6%
 EFFECTIVE MASS      1.3713
 FORCE CONSTANT      1.7737

 VIBRATION         64   64A           ATOM PAIR      ENERGY CONTRIBUTION    RADIAL
 FREQUENCY          2749.52         C 13 -- H 19         +68.5% ( 85.0%)     99.5%
 TRANSITION DIPOLE   0.6150         C 13 -- H 20         +29.9% ( 56.1%)     96.7%
 TRAVEL (Ang.)       0.2067         C  8 -- C 13          +1.0% ( 10.1%)      1.6%
 REDUCED MASS        0.5738         C  1 -- H  7          +0.5% (  7.2%)    100.0%
 EFFECTIVE MASS      1.4854
 FORCE CONSTANT      2.5557

 VIBRATION         65   65A           ATOM PAIR      ENERGY CONTRIBUTION    RADIAL
 FREQUENCY          2756.22         C  5 -- H 10         +28.9% ( 54.2%)    100.0%
 TRANSITION DIPOLE   1.1433         C  1 -- H  7         +26.3% ( 51.7%)    100.0%
 TRAVEL (Ang.)       0.3267         C  6 -- H 11         +21.4% ( 46.7%)    100.0%
 REDUCED MASS        0.2292         C  4 -- H  9         +18.9% ( 43.8%)    100.0%
 EFFECTIVE MASS      1.4393
 FORCE CONSTANT      1.0259

 VIBRATION         66   66A           ATOM PAIR      ENERGY CONTRIBUTION    RADIAL
 FREQUENCY          2771.60         O 14 -- H 15         +51.8% ( 71.3%)     99.5%
 TRANSITION DIPOLE   1.9940         O 17 -- H 18         +45.2% ( 66.6%)     99.2%
 TRAVEL (Ang.)       0.2348         H 16 -- O 17          +2.9% ( 16.8%)     89.6%
 REDUCED MASS        0.4414         O 14 -- H 21          +0.1% (  3.8%)      0.7%
 EFFECTIVE MASS      1.2836
 FORCE CONSTANT      1.9980

 VIBRATION         67   67A           ATOM PAIR      ENERGY CONTRIBUTION    RADIAL
 FREQUENCY          2773.60         C 22 -- H 23         +35.9% ( 57.5%)     96.1%
 TRANSITION DIPOLE   0.6375         C 22 -- H 25         +32.9% ( 55.0%)     95.6%
 TRAVEL (Ang.)       0.2774         C 22 -- H 24         +28.7% ( 51.4%)     94.7%
 REDUCED MASS        0.3159         C  4 -- H  9          +0.7% (  8.0%)     99.1%
 EFFECTIVE MASS      1.1498
 FORCE CONSTANT      1.4316

 VIBRATION         68   68A           ATOM PAIR      ENERGY CONTRIBUTION    RADIAL
 FREQUENCY          2805.16         O 14 -- H 15         +49.2% ( 68.2%)     99.5%
 TRANSITION DIPOLE   0.5517         O 17 -- H 18         +39.2% ( 60.8%)     99.9%
 TRAVEL (Ang.)       0.2522         H 16 -- O 17         +11.5% ( 32.9%)     99.5%
 REDUCED MASS        0.3780         O 14 -- H 21          +0.1% (  3.7%)      0.2%
 EFFECTIVE MASS      1.2518
 FORCE CONSTANT      1.7523

 VIBRATION         69   69A           ATOM PAIR      ENERGY CONTRIBUTION    RADIAL
 FREQUENCY          2813.78         C 13 -- H 20         +70.6% ( 82.9%)     97.6%
 TRANSITION DIPOLE   1.0516         C 13 -- H 19         +28.4% ( 52.6%)     90.5%
 TRAVEL (Ang.)       0.2074         C  8 -- C 13          +0.8% (  8.6%)     93.6%
 REDUCED MASS        0.5573
 EFFECTIVE MASS      1.2718
 FORCE CONSTANT      2.5995

      SYMMETRY NUMBER FOR POINT-GROUP C1  =  1


          SYSTEM IS A GROUND STATE



 Title: ASE calculation


          MOLECULE IS NOT LINEAR

          THERE ARE 69 GENUINE VIBRATIONS IN THIS SYSTEM
          THIS THERMODYNAMICS CALCULATION IS LIMITED TO
          MOLECULES WHICH HAVE NO INTERNAL ROTATIONS




                    CALCULATED THERMODYNAMIC PROPERTIES
                                          *
   TEMP. (K)   PARTITION FUNCTION   H.O.F.    ENTHALPY  HEAT CAPACITY ENTROPY
                                   KCAL/MOL   CAL/MOLE    CAL/K/MOL  CAL/K/MOL


 298.00  VIB.     0.8921D+06                  7870.0512    48.0851    53.6369
         ROT.     0.2434D+07                   888.2803     2.9808    32.2031
         INT.     0.2172D+13                  8758.3315    51.0659    85.8401
         TRA.     0.2166D+28                  1480.4672     4.9680    41.3186
         TOT.                     -243.857   10238.7986    56.0339   127.1586

   *: NOTE: HEATS OF FORMATION ARE RELATIVE TO THE
            ELEMENTS IN THEIR STANDARD STATE AT 298K
              (=  Standard Enthalpy of Formation).

            Hvib:  Zero-point energy is not included.
                   frequencies of less than zero cm-1 are not included.
            Hrot = (3/2)RT
            Htra = (3/2)RT + pV = (5/2)RT

            Heat capacity is Cp, not Cv

          For more information, see: HTTP://OpenMOPAC.net/Manual/thermochemistry.html


           FORCE CONSTANT IN CARTESIAN COORDINATES (Millidynes/A)

    ATOM   CHEMICAL       X               Y               Z
   NUMBER   SYMBOL  FORCE CONSTANT  FORCE CONSTANT  FORCE CONSTANT

      1       C       11.184729       10.218858        2.349954
      2       C       11.374487       10.797642        2.867823
      3       C       11.072487       11.591903        2.504833
      4       C       11.432493        9.999458        2.221845
      5       C       11.362000       10.339819        2.310157
      6       C        9.787798       11.847203        2.394493
      7       H        1.775550        3.403776        0.400705
      8       C        4.852305        7.815760       14.213393
      9       H        1.726376        3.435573        0.358884
     10       H        1.738055        3.399401        0.390758
     11       H        4.215184        0.919734        0.387328
     12       O        0.389785        2.863107        8.390277
     13       C        3.531012        6.345919       10.871866
     14       O        2.387712        4.240288        4.864569
     15       H        0.531824        0.956367        3.779392
     16       H        2.719019        0.772602        1.126874
     17       O        5.202369        2.969519        3.093961
     18       H        1.199504        2.660243        0.901977
     19       H        1.172080        3.337193        0.733654
     20       H        0.329876        1.386495        3.595681
     21       H        0.342210        4.147806        0.088684
     22       C        7.376943        6.408738        5.819977
     23       H        1.363395        3.498574        0.518847
     24       H        1.258206        1.425087        2.589654
     25       H        1.240436        1.139853        2.897401

 **********************
 *                    *
 * JOB ENDED NORMALLY *
 *                    *
 **********************



 TOTAL JOB TIME:             1.84 SECONDS

 == MOPAC DONE ==
