 *******************************************************************************
 **                                                                           **
 **                              MOPAC v22.0.6                                **
 **                                                                           **
 *******************************************************************************
 **          Digital Object Identifier (DOI): 10.5281/zenodo.6511958          **
 **    Visit the DOI location for information on how to cite this program.    **
 *******************************************************************************

                              PM7 CALCULATION RESULTS

 *******************************************************************************
 *  CALCULATION DONE:                                Tue Mar 26 11:24:05 2024  *
 *  PM7        - The PM7 Hamiltonian to be used
 *  DOUBLET    - SPIN STATE DEFINED AS A DOUBLET
 *
 *
 *
 *                 CHARGE ON SYSTEM = 0
 *
 *
 *
 *  EPS=78.4   - USE ANDREAS KLAMT'S COSMO IMPLICIT SOLVATION MODEL
 *  LET        - OVERRIDE SOME SAFETY CHECKS
 *  THREADS    - USE A MAXIMUM OF 30 THREADS
 *  T=         - A TIME OF 14.0 DAYS REQUESTED
 *  DUMP=N     - RESTART FILE WRITTEN EVERY 30.0 MINUTES REQUESTED
 *  RELSCF     - DEFAULT SCF CRITERION MULTIPLIED BY 1.0000
 *              (DEFAULT SCF CRITERION = 0.00010)
 *  ITRY=      - DO A MAXIMUM OF 15000 ITERATIONS FOR SCF
 *  AUX        - OUTPUT AUXILIARY INFORMATION
 *  ISOTOPE    - SAVE THE FORCE MATRIX FOR USE LATER
 *  BONDS      - FINAL BOND-ORDER MATRIX TO BE PRINTED
 *  LARGE      - EXPANDED OUTPUT TO BE PRINTED
 *  THERMO     - THERMODYNAMIC QUANTITIES TO BE CALCULATED
 *******************************************************************************
PM7 AUX LARGE THERMO(298,298) LET ISOTOPE BONDS DUMP=30M ITRY=15000 T=14D THREADS=30 CHARGE=0 DOUBLET eps=78.4 RELSCF=1
 Title: ASE calculation

   ATOM   CHEMICAL          X               Y               Z
  NUMBER   SYMBOL      (ANGSTROMS)     (ANGSTROMS)     (ANGSTROMS)

     1       C          1.18306085  *   0.66432618  *  -0.88483719  *
     2       C          0.91428757  *  -0.62604848  *  -1.33472123  *
     3       C         -0.19332490  *  -1.33353430  *  -0.85392698  *
     4       C         -1.04106127  *  -0.73104988  *   0.08286060  *
     5       C         -0.75727196  *   0.56600372  *   0.52437172  *
     6       C          0.35423585  *   1.27471095  *   0.04879291  *
     7       H          2.05366531  *   1.20064710  *  -1.26821426  *
     8       H          1.57497642  *  -1.09421401  *  -2.07394304  *
     9       H         -1.91714680  *  -1.26857355  *   0.46379061  *
    10       H          0.56924858  *   2.28697482  *   0.40307292  *
    11       N         -1.60807899  *   1.20894935  *   1.49681625  *
    12       O         -1.33223280  *   2.34271159  *   1.87198753  *
    13       O         -2.58349295  *   0.61281641  *   1.93339413  *
    14       C         -0.43331781  *  -2.71311619  *  -1.35260432  *
    15       C         -0.40969414  *  -3.76461209  *  -0.26762742  *
    16       H         -0.50429789  *  -4.78194850  *  -0.67295016  *
    17       H         -1.22662262  *  -3.62492976  *   0.45733594  *
    18       H          0.53247512  *  -3.73291737  *   0.29442855  *
    19       N         -1.55946541  *  -2.81135384  *  -2.21129184  *
    20       O         -1.96830004  *  -3.91301871  *  -2.58833108  *
    21       O         -2.11304699  *  -1.78980612  *  -2.63263355  *
    22       D          0.67539324  *  -3.09871175  *  -2.17584928  *
    23       C          5.61041202  *  -5.75342265  *  -4.66367224  *
    24       N          5.14375878  *  -6.58917376  *  -5.62915010  *
    25       C          3.71172183  *  -6.58149615  *  -5.94882447  *
    26       C          2.86447000  *  -5.94540303  *  -4.83489283  *
    27       N          3.37828369  *  -4.57841533  *  -4.48114923  *
    28       C          4.80892314  *  -4.68504415  *  -4.00533739  *
    29       H          6.63924907  *  -5.86518376  *  -4.34567901  *
    30       H          5.61734186  *  -7.48318592  *  -5.76027163  *
    31       H          3.35594493  *  -7.62308759  *  -6.14219522  *
    32       H          3.57540473  *  -6.03256269  *  -6.91414196  *
    33       H          1.80359972  *  -5.85598469  *  -5.16845372  *
    34       H          2.86813163  *  -6.58301980  *  -3.92290508  *
    35       H          3.34508884  *  -3.96744263  *  -5.32191072  *
    36       H          5.30526976  *  -3.69361359  *  -4.16325270  *
    37       H          4.80025180  *  -4.85862221  *  -2.89956477  *
    38       H          2.34933843  *  -3.46378618  *  -1.96553348  *
    39       H          2.68824124  *  -4.09520181  *  -3.69641107  *
    40       O          1.80141987  *  -3.40434802  *  -2.72352061  *


                                Isotopes Used

              Atom:   22  H  Default mass  1.0079,  mass used:  2.0140 amu


          CARTESIAN COORDINATES 

    NO.       ATOM           X           Y           Z

     1         C          1.1831      0.6643     -0.8848
     2         C          0.9143     -0.6260     -1.3347
     3         C         -0.1933     -1.3335     -0.8539
     4         C         -1.0411     -0.7310      0.0829
     5         C         -0.7573      0.5660      0.5244
     6         C          0.3542      1.2747      0.0488
     7         H          2.0537      1.2006     -1.2682
     8         H          1.5750     -1.0942     -2.0739
     9         H         -1.9171     -1.2686      0.4638
    10         H          0.5692      2.2870      0.4031
    11         N         -1.6081      1.2089      1.4968
    12         O         -1.3322      2.3427      1.8720
    13         O         -2.5835      0.6128      1.9334
    14         C         -0.4333     -2.7131     -1.3526
    15         C         -0.4097     -3.7646     -0.2676
    16         H         -0.5043     -4.7819     -0.6730
    17         H         -1.2266     -3.6249      0.4573
    18         H          0.5325     -3.7329      0.2944
    19         N         -1.5595     -2.8114     -2.2113
    20         O         -1.9683     -3.9130     -2.5883
    21         O         -2.1130     -1.7898     -2.6326
    22         H          0.6754     -3.0987     -2.1758
    23         C          5.6104     -5.7534     -4.6637
    24         N          5.1438     -6.5892     -5.6292
    25         C          3.7117     -6.5815     -5.9488
    26         C          2.8645     -5.9454     -4.8349
    27         N          3.3783     -4.5784     -4.4811
    28         C          4.8089     -4.6850     -4.0053
    29         H          6.6392     -5.8652     -4.3457
    30         H          5.6173     -7.4832     -5.7603
    31         H          3.3559     -7.6231     -6.1422
    32         H          3.5754     -6.0326     -6.9141
    33         H          1.8036     -5.8560     -5.1685
    34         H          2.8681     -6.5830     -3.9229
    35         H          3.3451     -3.9674     -5.3219
    36         H          5.3053     -3.6936     -4.1633
    37         H          4.8003     -4.8586     -2.8996
    38         H          2.3493     -3.4638     -1.9655
    39         H          2.6882     -4.0952     -3.6964
    40         O          1.8014     -3.4043     -2.7235

 General Reference for PM7:
 "Optimization of Parameters for Semiempirical Methods VI: More Modifications to the 
 NDDO Approximations and Re-optimization of Parameters", J. J. P. Stewart, J. Mol. Mod., 1:32, 19 (2013)
 https://link.springer.com/article/10.1007/s00894-012-1667-x

           Empirical Formula: C12 H19 N4 O5  =    40 atoms



      MOLECULAR POINT GROUP   :   C1  


 DOUBLET STATE CALCULATION


          UHF CALCULATION, NO. OF ALPHA ELECTRONS =   59
                           NO. OF BETA  ELECTRONS =   58
  SCF CRITERION =    0.1000E-03


          HEAT OF FORMATION =     -51.023835 KCALS/MOLE


          CARTESIAN COORDINATE DERIVATIVES

   NUMBER  ATOM         X            Y            Z

     1       C      2.010515     1.210621     0.197725
     2       C     -1.807419    -0.904707     0.129907
     3       C      1.111777     1.503993     0.279998
     4       C     -1.480641     1.600911     0.230639
     5       C      1.483303     1.602617     0.187720
     6       C     -2.587897     0.295967     0.116368
     7       H      0.138146     0.458860    -0.084373
     8       H      0.613873     0.241870     0.124606
     9       H     -0.150615     0.532709     0.106508
    10       H      0.708356     0.214263    -0.159344
    11       N     -1.656717     0.825308     0.418677
    12       O     -0.668440    -0.478506    -0.169126
    13       O     -1.474032    -0.167766    -0.147206
    14       C      0.677282    -4.000522     0.104842
    15       C     -0.660832     0.949203    -0.597498
    16       H     -0.043445     0.711024    -0.049436
    17       H     -0.113644     0.389669     0.469742
    18       H      0.470878     0.952963     0.548182
    19       N     -1.031951     0.623361    -0.411162
    20       O      0.717013     0.172237     0.502371
    21       O     -0.926739     3.407905     0.252312
    22       H     -2.846671    10.961718     2.938230
    23       C      0.783593    -2.269767    -0.273968
    24       N      1.145684    -0.344379     0.042842
    25       C     -0.012481    -1.182348    -0.662168
    26       C     -0.415024    -1.210715    -0.959554
    27       N      0.174218    -1.888193    -0.069880
    28       C      0.645238    -1.733718    -0.272830
    29       H      0.724013    -0.768625    -0.362956
    30       H      1.372151    -0.185723    -0.709479
    31       H      0.451880    -0.330214    -0.456544
    32       H      0.881974    -0.540115     0.054290
    33       H     -0.486230    -1.335265    -0.361497
    34       H     -0.360603    -0.848929     0.886234
    35       H      0.037912    -0.619159    -0.780376
    36       H      0.937091    -1.124832    -0.032182
    37       H      0.409914    -0.733284     0.362022
    38       H      1.698515    -1.545377     1.401165
    39       H     -3.860700     5.040161    -0.318027
    40       O      3.391139    -9.482651    -2.476616

 DIPOLE           X         Y         Z       TOTAL
 POINT-CHG.    10.068   -21.862    -8.916    25.667
 HYBRID        -0.111     1.249     0.238     1.276
 SUM            9.957   -20.613    -8.679    24.481


          GRADIENT NORM =  19.92679



 ** GRADIENT IS VERY LARGE, BUT SINCE "LET" IS USED, CALCULATION WILL CONTINUE


                              **** WARNING ****

           GRADIENT IS VERY LARGE FOR A THERMO CALCULATION
           RESULTS ARE LIKELY TO BE INACCURATE IF THERE ARE
           ANY LOW-LYING VIBRATIONS (LESS THAN ABOUT 400CM-1)
           GRADIENT NORM SHOULD BE LESS THAN ABOUT 1.3 FOR THERMO
           TO GIVE ACCURATE RESULTS


          TIME FOR SCF CALCULATION =    0.36

          TIME FOR DERIVATIVES     =    0.05

          MOLECULAR WEIGHT =  300.31



          ROTATIONAL CONSTANTS IN CM(-1)

          A =    0.02089960   B =    0.00318573   C =    0.00290420



           PRINCIPAL MOMENTS OF INERTIA IN UNITS OF 10**(-40)*GRAM-CM**2

          A =     1339.3920   B =     8786.9259   C =     9638.7079


          ORIENTATION OF MOLECULE IN FORCE CALCULATION

    NO.       ATOM         X         Y         Z

     1          C      -3.2079    0.0968    0.1650
     2          C      -1.8152    0.0968    0.1650
     3          C      -1.1012    1.3005    0.1650
     4          C      -1.7984    2.5142    0.1728
     5          C      -3.1975    2.4969    0.1730
     6          C      -3.9150    1.2931    0.1675
     7          H      -3.7490   -0.8518    0.1616
     8          H      -1.2701   -0.8545    0.1661
     9          H      -1.2544    3.4657    0.1806
    10          H      -5.0088    1.2905    0.1641
    11          N      -3.9432    3.7326    0.1714
    12          O      -5.1680    3.6887    0.1640
    13          O      -3.3436    4.7993    0.1717
    14          C       0.3844    1.2518    0.1515
    15          C       1.0036    1.9143   -1.0573
    16          H       2.0953    1.7898   -1.0855
    17          H       0.7976    2.9956   -1.0834
    18          H       0.6108    1.4861   -1.9884
    19          N       0.9701    1.6555    1.3800
    20          O       2.1915    1.8042    1.4753
    21          O       0.2666    1.8134    2.3838
    22          H       0.7936   -0.1133   -0.0052
    23          C       3.1044   -5.4585   -1.9234
    24          N       4.2807   -5.6212   -1.2613
    25          C       4.6532   -4.6566   -0.2203
    26          C       3.8675   -3.3399   -0.3311
    27          N       2.3876   -3.5971   -0.3686
    28          C       2.0566   -4.4645   -1.5613
    29          H       2.9067   -6.0953   -2.7764
    30          H       5.0600   -6.0461   -1.7643
    31          H       5.7494   -4.4444   -0.2681
    32          H       4.4827   -5.1383    0.7750
    33          H       4.0972   -2.6857    0.5429
    34          H       4.1630   -2.7794   -1.2459
    35          H       2.0995   -4.0906    0.5001
    36          H       1.0933   -4.9957   -1.3514
    37          H       1.8619   -3.7973   -2.4387
    38          H       0.7409   -1.3238   -1.2346
    39          H       1.8196   -2.5957   -0.3814
    40          O       1.0364   -1.3326   -0.3453


    FIRST DERIVATIVES WILL BE USED IN THE CALCULATION OF SECOND DERIVATIVES

          ESTIMATED TIME TO COMPLETE CALCULATION =       98.44 SECONDS

    FOR POINT-GROUP C1   THERE ARE   1 UNIQUE SYMMETRY FUNCTIONS.

 STEP:   1 TIME =     0.30 SECS, INTEGRAL =      0.30 TIME LEFT:1209599.29
 STEP:   2 TIME =     0.18 SECS, INTEGRAL =      0.48 TIME LEFT:1209599.11
 STEP:   3 TIME =     0.18 SECS, INTEGRAL =      0.65 TIME LEFT:1209598.94
 STEP:   4 TIME =     0.19 SECS, INTEGRAL =      0.84 TIME LEFT:1209598.75
 STEP:   5 TIME =     0.17 SECS, INTEGRAL =      1.01 TIME LEFT:1209598.58
 STEP:   6 TIME =     0.17 SECS, INTEGRAL =      1.18 TIME LEFT:1209598.41
 STEP:   7 TIME =     0.17 SECS, INTEGRAL =      1.36 TIME LEFT:1209598.23
 STEP:   8 TIME =     0.18 SECS, INTEGRAL =      1.53 TIME LEFT:1209598.06
 STEP:   9 TIME =     0.23 SECS, INTEGRAL =      1.76 TIME LEFT:1209597.83
 STEP:  10 TIME =     0.17 SECS, INTEGRAL =      1.93 TIME LEFT:1209597.66
 STEP:  11 TIME =     0.17 SECS, INTEGRAL =      2.11 TIME LEFT:1209597.48
 STEP:  12 TIME =     0.17 SECS, INTEGRAL =      2.28 TIME LEFT:1209597.31
 STEP:  13 TIME =     0.17 SECS, INTEGRAL =      2.45 TIME LEFT:1209597.14
 STEP:  14 TIME =     0.17 SECS, INTEGRAL =      2.62 TIME LEFT:1209596.97
 STEP:  15 TIME =     0.23 SECS, INTEGRAL =      2.85 TIME LEFT:1209596.74
 STEP:  16 TIME =     0.17 SECS, INTEGRAL =      3.02 TIME LEFT:1209596.57
 STEP:  17 TIME =     0.18 SECS, INTEGRAL =      3.20 TIME LEFT:1209596.39
 STEP:  18 TIME =     0.17 SECS, INTEGRAL =      3.37 TIME LEFT:1209596.22
 STEP:  19 TIME =     0.17 SECS, INTEGRAL =      3.54 TIME LEFT:1209596.05
 STEP:  20 TIME =     0.18 SECS, INTEGRAL =      3.71 TIME LEFT:1209595.88
 STEP:  21 TIME =     0.18 SECS, INTEGRAL =      3.89 TIME LEFT:1209595.70
 STEP:  22 TIME =     0.18 SECS, INTEGRAL =      4.07 TIME LEFT:1209595.52
 STEP:  23 TIME =     0.18 SECS, INTEGRAL =      4.24 TIME LEFT:1209595.35
 STEP:  24 TIME =     0.18 SECS, INTEGRAL =      4.42 TIME LEFT:1209595.17
 STEP:  25 TIME =     0.18 SECS, INTEGRAL =      4.60 TIME LEFT:1209594.99
 STEP:  26 TIME =     0.21 SECS, INTEGRAL =      4.81 TIME LEFT:1209594.78
 STEP:  27 TIME =     0.20 SECS, INTEGRAL =      5.00 TIME LEFT:1209594.59
 STEP:  28 TIME =     0.18 SECS, INTEGRAL =      5.18 TIME LEFT:1209594.41
 STEP:  29 TIME =     0.18 SECS, INTEGRAL =      5.36 TIME LEFT:1209594.23
 STEP:  30 TIME =     0.18 SECS, INTEGRAL =      5.54 TIME LEFT:1209594.05
 STEP:  31 TIME =     0.21 SECS, INTEGRAL =      5.75 TIME LEFT:1209593.84
 STEP:  32 TIME =     0.19 SECS, INTEGRAL =      5.94 TIME LEFT:1209593.65
 STEP:  33 TIME =     0.18 SECS, INTEGRAL =      6.11 TIME LEFT:1209593.48
 STEP:  34 TIME =     0.18 SECS, INTEGRAL =      6.29 TIME LEFT:1209593.30
 STEP:  35 TIME =     0.18 SECS, INTEGRAL =      6.46 TIME LEFT:1209593.12
 STEP:  36 TIME =     0.17 SECS, INTEGRAL =      6.64 TIME LEFT:1209592.95
 STEP:  37 TIME =     0.21 SECS, INTEGRAL =      6.85 TIME LEFT:1209592.74
 STEP:  38 TIME =     0.18 SECS, INTEGRAL =      7.03 TIME LEFT:1209592.56
 STEP:  39 TIME =     0.18 SECS, INTEGRAL =      7.20 TIME LEFT:1209592.39
 STEP:  40 TIME =     0.18 SECS, INTEGRAL =      7.38 TIME LEFT:1209592.21
 STEP:  41 TIME =     0.18 SECS, INTEGRAL =      7.55 TIME LEFT:1209592.04
 STEP:  42 TIME =     0.22 SECS, INTEGRAL =      7.77 TIME LEFT:1209591.82
 STEP:  43 TIME =     0.17 SECS, INTEGRAL =      7.95 TIME LEFT:1209591.64
 STEP:  44 TIME =     0.18 SECS, INTEGRAL =      8.12 TIME LEFT:1209591.47
 STEP:  45 TIME =     0.18 SECS, INTEGRAL =      8.30 TIME LEFT:1209591.29
 STEP:  46 TIME =     0.17 SECS, INTEGRAL =      8.47 TIME LEFT:1209591.12
 STEP:  47 TIME =     0.18 SECS, INTEGRAL =      8.64 TIME LEFT:1209590.95
 STEP:  48 TIME =     0.18 SECS, INTEGRAL =      8.83 TIME LEFT:1209590.76
 STEP:  49 TIME =     0.18 SECS, INTEGRAL =      9.00 TIME LEFT:1209590.59
 STEP:  50 TIME =     0.17 SECS, INTEGRAL =      9.17 TIME LEFT:1209590.42
 STEP:  51 TIME =     0.17 SECS, INTEGRAL =      9.34 TIME LEFT:1209590.25
 STEP:  52 TIME =     0.17 SECS, INTEGRAL =      9.51 TIME LEFT:1209590.08
 STEP:  53 TIME =     0.17 SECS, INTEGRAL =      9.68 TIME LEFT:1209589.91
 STEP:  54 TIME =     0.17 SECS, INTEGRAL =      9.85 TIME LEFT:1209589.74
 STEP:  55 TIME =     0.18 SECS, INTEGRAL =     10.04 TIME LEFT:1209589.55
 STEP:  56 TIME =     0.17 SECS, INTEGRAL =     10.21 TIME LEFT:1209589.38
 STEP:  57 TIME =     0.17 SECS, INTEGRAL =     10.38 TIME LEFT:1209589.21
 STEP:  58 TIME =     0.18 SECS, INTEGRAL =     10.55 TIME LEFT:1209589.04
 STEP:  59 TIME =     0.23 SECS, INTEGRAL =     10.78 TIME LEFT:1209588.81
 STEP:  60 TIME =     0.18 SECS, INTEGRAL =     10.96 TIME LEFT:1209588.63
 STEP:  61 TIME =     0.17 SECS, INTEGRAL =     11.12 TIME LEFT:1209588.46
 STEP:  62 TIME =     0.17 SECS, INTEGRAL =     11.30 TIME LEFT:1209588.29
 STEP:  63 TIME =     0.17 SECS, INTEGRAL =     11.47 TIME LEFT:1209588.12
 STEP:  64 TIME =     0.18 SECS, INTEGRAL =     11.64 TIME LEFT:1209587.95
 STEP:  65 TIME =     0.20 SECS, INTEGRAL =     11.84 TIME LEFT:1209587.75
 STEP:  66 TIME =     0.20 SECS, INTEGRAL =     12.04 TIME LEFT:1209587.55
 STEP:  67 TIME =     0.17 SECS, INTEGRAL =     12.21 TIME LEFT:1209587.38
 STEP:  68 TIME =     0.17 SECS, INTEGRAL =     12.38 TIME LEFT:1209587.21
 STEP:  69 TIME =     0.18 SECS, INTEGRAL =     12.56 TIME LEFT:1209587.03
 STEP:  70 TIME =     0.23 SECS, INTEGRAL =     12.79 TIME LEFT:1209586.80
 STEP:  71 TIME =     0.17 SECS, INTEGRAL =     12.96 TIME LEFT:1209586.63
 STEP:  72 TIME =     0.17 SECS, INTEGRAL =     13.13 TIME LEFT:1209586.46
 STEP:  73 TIME =     0.17 SECS, INTEGRAL =     13.30 TIME LEFT:1209586.29
 STEP:  74 TIME =     0.17 SECS, INTEGRAL =     13.47 TIME LEFT:1209586.12
 STEP:  75 TIME =     0.18 SECS, INTEGRAL =     13.65 TIME LEFT:1209585.94
 STEP:  76 TIME =     0.19 SECS, INTEGRAL =     13.84 TIME LEFT:1209585.75
 STEP:  77 TIME =     0.20 SECS, INTEGRAL =     14.04 TIME LEFT:1209585.55
 STEP:  78 TIME =     0.18 SECS, INTEGRAL =     14.21 TIME LEFT:1209585.38
 STEP:  79 TIME =     0.17 SECS, INTEGRAL =     14.38 TIME LEFT:1209585.21
 STEP:  80 TIME =     0.18 SECS, INTEGRAL =     14.56 TIME LEFT:1209585.03
 STEP:  81 TIME =     0.18 SECS, INTEGRAL =     14.74 TIME LEFT:1209584.85
 STEP:  82 TIME =     0.20 SECS, INTEGRAL =     14.94 TIME LEFT:1209584.65
 STEP:  83 TIME =     0.17 SECS, INTEGRAL =     15.11 TIME LEFT:1209584.48
 STEP:  84 TIME =     0.18 SECS, INTEGRAL =     15.29 TIME LEFT:1209584.30
 STEP:  85 TIME =     0.17 SECS, INTEGRAL =     15.46 TIME LEFT:1209584.13
 STEP:  86 TIME =     0.18 SECS, INTEGRAL =     15.64 TIME LEFT:1209583.95
 STEP:  87 TIME =     0.18 SECS, INTEGRAL =     15.82 TIME LEFT:1209583.77
 STEP:  88 TIME =     0.18 SECS, INTEGRAL =     16.00 TIME LEFT:1209583.59
 STEP:  89 TIME =     0.18 SECS, INTEGRAL =     16.17 TIME LEFT:1209583.42
 STEP:  90 TIME =     0.17 SECS, INTEGRAL =     16.34 TIME LEFT:1209583.25
 STEP:  91 TIME =     0.17 SECS, INTEGRAL =     16.52 TIME LEFT:1209583.07
 STEP:  92 TIME =     0.17 SECS, INTEGRAL =     16.69 TIME LEFT:1209582.90
 STEP:  93 TIME =     0.19 SECS, INTEGRAL =     16.88 TIME LEFT:1209582.71
 STEP:  94 TIME =     0.17 SECS, INTEGRAL =     17.05 TIME LEFT:1209582.54
 STEP:  95 TIME =     0.18 SECS, INTEGRAL =     17.23 TIME LEFT:1209582.36
 STEP:  96 TIME =     0.17 SECS, INTEGRAL =     17.40 TIME LEFT:1209582.19
 STEP:  97 TIME =     0.18 SECS, INTEGRAL =     17.57 TIME LEFT:1209582.02
 STEP:  98 TIME =     0.22 SECS, INTEGRAL =     17.80 TIME LEFT:1209581.79
 STEP:  99 TIME =     0.17 SECS, INTEGRAL =     17.97 TIME LEFT:1209581.62
 STEP: 100 TIME =     0.17 SECS, INTEGRAL =     18.14 TIME LEFT:1209581.45
 STEP: 101 TIME =     0.17 SECS, INTEGRAL =     18.31 TIME LEFT:1209581.28
 STEP: 102 TIME =     0.17 SECS, INTEGRAL =     18.48 TIME LEFT:1209581.11
 STEP: 103 TIME =     0.17 SECS, INTEGRAL =     18.66 TIME LEFT:1209580.93
 STEP: 104 TIME =     0.19 SECS, INTEGRAL =     18.84 TIME LEFT:1209580.75
 STEP: 105 TIME =     0.20 SECS, INTEGRAL =     19.04 TIME LEFT:1209580.55
 STEP: 106 TIME =     0.17 SECS, INTEGRAL =     19.21 TIME LEFT:1209580.38
 STEP: 107 TIME =     0.18 SECS, INTEGRAL =     19.38 TIME LEFT:1209580.21
 STEP: 108 TIME =     0.17 SECS, INTEGRAL =     19.55 TIME LEFT:1209580.04
 STEP: 109 TIME =     0.21 SECS, INTEGRAL =     19.76 TIME LEFT:1209579.83
 STEP: 110 TIME =     0.20 SECS, INTEGRAL =     19.96 TIME LEFT:1209579.63
 STEP: 111 TIME =     0.18 SECS, INTEGRAL =     20.13 TIME LEFT:1209579.46
 STEP: 112 TIME =     0.17 SECS, INTEGRAL =     20.30 TIME LEFT:1209579.29
 STEP: 113 TIME =     0.17 SECS, INTEGRAL =     20.48 TIME LEFT:1209579.11
 STEP: 114 TIME =     0.17 SECS, INTEGRAL =     20.65 TIME LEFT:1209578.94
 STEP: 115 TIME =     0.20 SECS, INTEGRAL =     20.85 TIME LEFT:1209578.74
 STEP: 116 TIME =     0.20 SECS, INTEGRAL =     21.05 TIME LEFT:1209578.54
 STEP: 117 TIME =     0.17 SECS, INTEGRAL =     21.22 TIME LEFT:1209578.37
 STEP: 118 TIME =     0.17 SECS, INTEGRAL =     21.39 TIME LEFT:1209578.20
 STEP: 119 TIME =     0.17 SECS, INTEGRAL =     21.56 TIME LEFT:1209578.03
 STEP: 120 TIME =     0.19 SECS, INTEGRAL =     21.75 TIME LEFT:1209577.84

(To convert to Hartree/Bohr^2, multiply by (10^(-21) x N x a0^2)/(4.184 x 627.51) =  0.0642)


           FORCE MATRIX IN MILLIDYNES/ANGSTROM


                  C  1       C  2       C  3       C  4       C  5       C  6
 ------------------------------------------------------------------------------
     C    1  14.863044
     C    2   5.881208  14.864632
     C    3   2.191553   5.657789  15.326008
     C    4   1.354743   1.990803   5.554499  14.476872
     C    5   2.083550   1.262401   2.028494   5.533161  15.721621
     C    6   6.149118   2.148570   1.373190   1.880753   5.537629  15.018793
     H    7   3.400472   0.761891   0.086935   0.010404   0.086727   0.765181
     H    8   0.741029   3.366572   0.727378   0.094557   0.044202   0.091080
     H    9   0.049356   0.098935   0.702937   3.361021   0.754794   0.090149
     H   10   0.730903   0.090617   0.028271   0.082351   0.741520   3.372850
     N   11   0.235352   0.027399   0.220182   1.181582   3.120119   1.234891
     O   12   0.027161   0.012292   0.053108   0.139496   1.455411   0.109322
     O   13   0.061513   0.015760   0.033590   0.109247   1.425878   0.124802
     C   14   0.090136   0.803251   3.665970   0.779912   0.098517   0.015040
     C   15   0.017575   0.038384   0.654182   0.043301   0.011183   0.008450
     H   16   0.002604   0.005207   0.047140   0.002981   0.002294   0.001112
     H   17   0.003807   0.003553   0.018316   0.008651   0.002902   0.003836
     H   18   0.002253   0.005576   0.031712   0.005257   0.001539   0.002758
     N   19   0.046779   0.036325   1.008964   0.048096   0.025586   0.016168
     O   20   0.016886   0.030702   0.110861   0.026772   0.005673   0.007883
     O   21   0.023964   0.023641   0.069262   0.037301   0.015118   0.015171
     H   22   0.014921   0.054770   0.555783   0.081496   0.011543   0.014757
     C   23   0.018020   0.000746   0.001831   0.001084   0.000852   0.001141
     N   24   0.019102   0.001255   0.001488   0.000900   0.001791   0.001287
     C   25   0.004300   0.000576   0.001469   0.000534   0.001046   0.000822
     C   26   0.001267   0.000896   0.002642   0.001344   0.001079   0.000670
     N   27   0.003161   0.004498   0.026860   0.006807   0.003726   0.002730
     C   28   0.004917   0.000946   0.003576   0.001401   0.000864   0.000958
     H   29   0.002017   0.000541   0.000657   0.000220   0.000747   0.000626
     H   30   0.003220   0.000712   0.000863   0.000466   0.001012   0.000745
     H   31   0.000721   0.000534   0.000809   0.000503   0.000770   0.000471
     H   32   0.001229   0.000236   0.000510   0.000173   0.000344   0.000280
     H   33   0.000427   0.000230   0.001077   0.000502   0.000309   0.000327
     H   34   0.000504   0.000367   0.001550   0.000691   0.000518   0.000285
     H   35   0.001111   0.000885   0.003077   0.000860   0.000790   0.000568
     H   36   0.001555   0.000756   0.002181   0.001033   0.000580   0.000456
     H   37   0.001519   0.000561   0.001656   0.000632   0.000515   0.000504
     H   38   0.002861   0.008193   0.016247   0.003431   0.004045   0.002058
     H   39   0.009252   0.012548   0.073869   0.019424   0.009003   0.006392
     O   40   0.016761   0.044719   0.201347   0.053972   0.016172   0.012316


                  H  7       H  8       H  9       H 10       N 11       O 12
 ------------------------------------------------------------------------------
     H    7   4.330936
     H    8   0.031921   4.251891
     H    9   0.010502   0.012540   4.235349
     H   10   0.036416   0.009981   0.009377   4.265360
     N   11   0.031454   0.047768   0.101619   0.107263  18.791964
     O   12   0.010969   0.012222   0.026151   0.045929   9.159398  12.015797
     O   13   0.009979   0.012125   0.035184   0.026089   9.233579   2.634763
     C   14   0.009883   0.038187   0.024212   0.009919   0.035022   0.017093
     C   15   0.003734   0.009058   0.011818   0.004815   0.022582   0.008751
     H   16   0.000480   0.001744   0.003505   0.000610   0.003329   0.001119
     H   17   0.001069   0.001062   0.012832   0.001426   0.007843   0.002954
     H   18   0.001522   0.002359   0.002751   0.001823   0.007409   0.003094
     N   19   0.008111   0.020694   0.133764   0.008556   0.049130   0.018446
     O   20   0.003660   0.013263   0.080557   0.005640   0.027158   0.010996
     O   21   0.004770   0.010745   0.087509   0.005409   0.031308   0.010231
     H   22   0.012001   0.055344   0.030676   0.009840   0.043205   0.018935
     C   23   0.000758   0.001113   0.001060   0.000941   0.002617   0.001380
     N   24   0.000462   0.001921   0.000902   0.000899   0.003809   0.001633
     C   25   0.000383   0.001044   0.000696   0.000605   0.002415   0.001140
     C   26   0.000622   0.002160   0.000690   0.000628   0.002761   0.001080
     N   27   0.001876   0.006179   0.003381   0.002330   0.009410   0.004229
     C   28   0.000933   0.001607   0.000635   0.000719   0.002066   0.001046
     H   29   0.000298   0.000663   0.000245   0.000471   0.001716   0.000850
     H   30   0.000222   0.001224   0.000519   0.000524   0.002198   0.000978
     H   31   0.000198   0.000984   0.000476   0.000308   0.001664   0.000659
     H   32   0.000212   0.000232   0.000159   0.000204   0.000846   0.000388
     H   33   0.000370   0.000582   0.000540   0.000222   0.000961   0.000512
     H   34   0.000279   0.000561   0.000537   0.000152   0.001312   0.000565
     H   35   0.000769   0.000979   0.000437   0.000380   0.001987   0.000793
     H   36   0.001126   0.000410   0.000513   0.000229   0.001210   0.000425
     H   37   0.000382   0.000788   0.000203   0.000337   0.001247   0.000467
     H   38   0.001915   0.024927   0.002207   0.001388   0.006833   0.002486
     H   39   0.004789   0.018919   0.008729   0.005532   0.023436   0.010326
     O   40   0.011591   0.029741   0.022930   0.008641   0.042865   0.016830


                  O 13       C 14       C 15       H 16       H 17       H 18
 ------------------------------------------------------------------------------
     O   13  12.065932
     C   14   0.020443  12.946693
     C   15   0.007622   3.276787  11.261795
     H   16   0.001753   0.683613   3.364613   4.179447
     H   17   0.002878   0.707445   3.321976   0.470560   4.133101
     H   18   0.002484   0.679632   3.372587   0.469262   0.469738   4.194967
     N   19   0.018103   4.509704   0.788111   0.078517   0.025793   0.058591
     O   20   0.010305   1.276244   0.097209   0.024809   0.014375   0.010426
     O   21   0.010562   1.283452   0.106481   0.031069   0.014692   0.011747
     H   22   0.015784   0.966792   0.435308   0.044617   0.035173   0.038308
     C   23   0.001293   0.006768   0.001625   0.001585   0.000777   0.000789
     N   24   0.001606   0.003488   0.001449   0.000999   0.000965   0.000421
     C   25   0.000929   0.012127   0.000920   0.001027   0.000625   0.000326
     C   26   0.001321   0.009599   0.001251   0.003016   0.000668   0.000980
     N   27   0.003709   0.143913   0.001973   0.007768   0.001691   0.004475
     C   28   0.000808   0.014766   0.002181   0.001858   0.000686   0.000723
     H   29   0.000650   0.002989   0.000885   0.000347   0.000449   0.000256
     H   30   0.000931   0.002713   0.000884   0.000447   0.000594   0.000362
     H   31   0.000770   0.002719   0.000571   0.000476   0.000385   0.000285
     H   32   0.000295   0.002462   0.000564   0.000318   0.000266   0.000290
     H   33   0.000444   0.009234   0.001290   0.000874   0.000498   0.000537
     H   34   0.000570   0.010247   0.001936   0.002011   0.000564   0.000909
     H   35   0.000734   0.012400   0.001402   0.001099   0.000477   0.000668
     H   36   0.000682   0.007494   0.000946   0.000640   0.000323   0.000389
     H   37   0.000593   0.008148   0.000975   0.000430   0.000347   0.000736
     H   38   0.002083   0.124400   0.007268   0.010443   0.001466   0.006904
     H   39   0.009245   0.401584   0.005074   0.022819   0.004271   0.012705
     O   40   0.015308   1.525043   0.033136   0.037303   0.014038   0.027099


                  N 19       O 20       O 21       H 22       C 23       N 24
 ------------------------------------------------------------------------------
     N   19  19.937031
     O   20   9.841836  12.409116
     O   21   9.667194   2.551997  12.275503
     H   22   1.031091   0.225179   0.230847   1.142785
     C   23   0.005862   0.003118   0.002872   0.015129  13.921148
     N   24   0.002661   0.002660   0.002427   0.006879   6.686808  14.405012
     C   25   0.005937   0.003214   0.002906   0.026967   0.865925   3.873887
     C   26   0.008584   0.004720   0.003884   0.015031   0.083862   0.849239
     N   27   0.063445   0.021644   0.024873   0.265006   0.826237   0.028864
     C   28   0.006329   0.003619   0.003026   0.025367   3.375121   1.091936
     H   29   0.002163   0.001844   0.001708   0.004766   3.498628   0.877956
     H   30   0.002215   0.001899   0.001739   0.006846   0.976318   3.342497
     H   31   0.002262   0.001891   0.001375   0.005311   0.068985   0.829838
     H   32   0.002259   0.001288   0.001614   0.005821   0.070186   0.824281
     H   33   0.011447   0.007039   0.007011   0.019213   0.016083   0.059628
     H   34   0.005332   0.002861   0.002608   0.020530   0.014725   0.015637
     H   35   0.007941   0.003807   0.004410   0.023308   0.035559   0.012995
     H   36   0.003481   0.001780   0.002441   0.012928   0.804715   0.074789
     H   37   0.002734   0.001821   0.001324   0.016441   0.817486   0.089978
     H   38   0.044835   0.013019   0.014802   0.449247   0.005774   0.003075
     H   39   0.164056   0.060052   0.064151   0.764250   0.082996   0.032757
     O   40   0.468799   0.158749   0.172765   0.878718   0.046781   0.020004


                  C 25       C 26       N 27       C 28       H 29       H 30
 ------------------------------------------------------------------------------
     C   25  11.651926
     C   26   2.602727  11.707093
     N   27   0.882980   3.343386  12.968083
     C   28   0.088895   0.763414   3.255147  11.615392
     H   29   0.152448   0.020005   0.068662   0.624187   4.277949
     H   30   0.677818   0.058327   0.015577   0.148640   0.109450   4.185923
     H   31   3.141415   0.640501   0.067159   0.017834   0.020065   0.039972
     H   32   3.092695   0.659322   0.020037   0.023800   0.023234   0.037552
     H   33   0.647363   3.172997   0.762894   0.068475   0.003213   0.010307
     H   34   0.662032   3.206180   0.789502   0.030043   0.005639   0.008515
     H   35   0.016318   0.781530   3.383860   0.780214   0.008526   0.008057
     H   36   0.018253   0.062803   0.756221   3.035258   0.025009   0.026684
     H   37   0.019542   0.025647   0.760752   3.026555   0.028023   0.024451
     H   38   0.006358   0.007233   0.068648   0.009263   0.002351   0.001199
     H   39   0.106794   0.588430   2.043139   0.527952   0.026029   0.015563
     O   40   0.064270   0.055904   0.994481   0.080373   0.015231   0.010391


                  H 31       H 32       H 33       H 34       H 35       H 36
 ------------------------------------------------------------------------------
     H   31   4.083082
     H   32   0.427096   4.061179
     H   33   0.025658   0.027757   4.081715
     H   34   0.032851   0.043401   0.413839   4.130959
     H   35   0.007862   0.018459   0.040746   0.073276   4.198819
     H   36   0.004793   0.007793   0.014967   0.007638   0.046935   4.009410
     H   37   0.005567   0.008297   0.008490   0.012452   0.063475   0.417710
     H   38   0.001196   0.001105   0.004902   0.009178   0.008903   0.005571
     H   39   0.022458   0.025083   0.069848   0.055913   0.413130   0.061403
     O   40   0.013456   0.015298   0.038086   0.031636   0.066791   0.035491


                  H 37       H 38       H 39       O 40
 ------------------------------------------------------
     H   37   3.999845
     H   38   0.007285   4.389590
     H   39   0.079848   0.311695   2.086779
     O   40   0.040519   4.083877   1.136271   4.410649


          HEAT OF FORMATION =     -51.023835 KCALS/MOLE


          TRIVIAL VIBRATIONS, SHOULD BE ZERO

 -29.2266=TX   4.7909=TY -37.4461=TZ -23.8991=RX -35.4285=RY  21.1954=RZ


      MOLECULAR POINT GROUP   :   C1  


           EIGENVECTORS  


   Root No.       1         2         3         4         5         6         7         8

                 1 A       2 A       3 A       4 A       5 A       6 A       7 A       8 A   

                  -2.4      -1.8      -0.5      -0.1      -0.0      -0.0      -0.0      -0.0
  
           1    0.0019   -0.0059   -0.0055   -0.0432    0.0188    0.0122   -0.0229   -0.0391
           2   -0.0007   -0.0044   -0.0107    0.0036   -0.0173   -0.0142    0.0237    0.0176
           3    0.0021    0.0004   -0.0134   -0.1008    0.3483   -0.0638    0.0240    0.0726
           4   -0.0018   -0.0107   -0.0052   -0.0455    0.0175    0.0119   -0.0218   -0.0377
           5   -0.0057   -0.0127   -0.0081    0.0043   -0.0061   -0.0223    0.0002   -0.0030
           6   -0.0013   -0.0020   -0.0085    0.0208    0.2511    0.0342   -0.0527   -0.0338
           7   -0.0012   -0.0079   -0.0113   -0.0492    0.0075    0.0225   -0.0032   -0.0214
           8   -0.0116   -0.0227   -0.0059    0.0082    0.0021   -0.0285   -0.0124   -0.0144
           9   -0.0059   -0.0050    0.0081    0.1265    0.0415    0.0349   -0.0543   -0.0463
          10    0.0054    0.0310   -0.0114   -0.0395   -0.0020    0.0280    0.0163   -0.0045
          11   -0.0065   -0.0142   -0.0063    0.0099   -0.0052   -0.0243    0.0002   -0.0030
          12   -0.0010    0.0054    0.0338    0.0892   -0.1501   -0.0344   -0.0110   -0.0014
          13    0.0033    0.0180   -0.0104   -0.0385   -0.0037    0.0272    0.0167   -0.0039
          14   -0.0021   -0.0032   -0.0094    0.0068   -0.0174   -0.0162    0.0242    0.0183
          15    0.0005    0.0005    0.0040   -0.0035   -0.1862   -0.1160    0.0688    0.0960
          16    0.0008    0.0065   -0.0070   -0.0383    0.0068    0.0185   -0.0027   -0.0209
          17   -0.0003    0.0044   -0.0122    0.0069   -0.0214   -0.0105    0.0346    0.0269
          18    0.0017   -0.0005   -0.0117   -0.0876    0.0346   -0.1371    0.0983    0.1452
          19   -0.0012   -0.0085   -0.0028   -0.0419    0.0251    0.0075   -0.0388   -0.0531
          20   -0.0007   -0.0037   -0.0119    0.0033   -0.0217   -0.0113    0.0327    0.0254
          21    0.0032   -0.0009   -0.0129   -0.1517    0.4747   -0.0586    0.0237    0.0769
          22   -0.0017   -0.0024   -0.0028   -0.0398    0.0241    0.0068   -0.0368   -0.0515
          23   -0.0051   -0.0154   -0.0069    0.0056   -0.0026   -0.0252   -0.0082   -0.0107
          24   -0.0007   -0.0059   -0.0109    0.0094    0.3188    0.1007   -0.0984   -0.0930
          25    0.0005    0.0103   -0.0080   -0.0362   -0.0161    0.0309    0.0347    0.0125
          26   -0.0016    0.0007   -0.0087    0.0088    0.0039   -0.0264   -0.0102   -0.0125
          27   -0.0066    0.0178    0.1148    0.0988   -0.2468   -0.0208   -0.0366   -0.0394
          28   -0.0004    0.0021   -0.0068   -0.0376    0.0069    0.0184   -0.0030   -0.0212
          29   -0.0010    0.0046   -0.0136    0.0087   -0.0311   -0.0033    0.0523    0.0429
          30    0.0021   -0.0015   -0.0138   -0.1272   -0.0153   -0.1739    0.1480    0.1993
          31    0.0006    0.0080   -0.0112   -0.0352   -0.0086    0.0326    0.0347    0.0115
          32   -0.0012    0.0005   -0.0109    0.0091   -0.0194   -0.0119    0.0344    0.0267
          33   -0.0003   -0.0005    0.0019   -0.0196   -0.2818   -0.1145    0.0798    0.0966
          34    0.0007    0.0095   -0.0110   -0.0343   -0.0093    0.0320    0.0340    0.0110
          35   -0.0017   -0.0066   -0.0118    0.0118   -0.0235   -0.0054    0.0504    0.0399
          36    0.0001   -0.0010   -0.0028   -0.0351   -0.2383   -0.0797    0.0659    0.0719
          37   -0.0011    0.0068   -0.0118   -0.0295   -0.0162    0.0366    0.0506    0.0249
          38   -0.0003   -0.0017   -0.0103    0.0059   -0.0157   -0.0141    0.0253    0.0190
          39   -0.0020    0.0002   -0.0003   -0.0089   -0.1869   -0.0660    0.0474    0.0557
          40    0.0245    0.0832   -0.0179   -0.0750    0.0050    0.0243   -0.0022   -0.0217
          41   -0.0807   -0.2862    0.0012   -0.0110   -0.0003   -0.0372   -0.0271   -0.0281
          42    0.0025   -0.0326    0.0138    0.0908    0.0271    0.0749   -0.0586   -0.0567
          43   -0.0047    0.0071   -0.0115   -0.1048    0.0152    0.0358    0.0062   -0.0070
          44   -0.0207   -0.0095   -0.0057   -0.0285    0.0411   -0.1314   -0.0993   -0.0844
          45   -0.0233    0.0061    0.0046    0.0405    0.0554    0.0255   -0.0944   -0.0794
          46   -0.0021    0.0137   -0.0114   -0.0998    0.0158    0.0132   -0.0094   -0.0251
          47   -0.0004    0.0225   -0.0099   -0.0245    0.0403   -0.3020   -0.2182   -0.2252
          48   -0.0137   -0.0135    0.0080    0.0302    0.0616   -0.0589   -0.1492   -0.1421
          49   -0.0083   -0.0199   -0.0103   -0.0869    0.0191    0.1966    0.1189    0.1279
          50   -0.0144   -0.0186   -0.0053   -0.0264    0.0425   -0.0997   -0.0777   -0.0581
          51    0.0008    0.0472   -0.0008    0.0429    0.0922    0.0479   -0.0875   -0.0455
          52   -0.0051    0.0062   -0.0071   -0.1070    0.0230   -0.1009   -0.0853   -0.1106
          53   -0.0047    0.0172   -0.0079   -0.0363    0.0720   -0.0657   -0.0616   -0.0179
          54   -0.0164   -0.0140    0.0050    0.0521    0.0382    0.0531   -0.0731   -0.0663
          55   -0.0752    0.0332    0.0031    0.1732    0.0314    0.0037   -0.0165   -0.0278
          56    0.7989   -0.1208    0.0469   -0.0228   -0.0689    0.0868    0.0666    0.0311
          57   -0.1809    0.0638   -0.0128   -0.0229    0.0369    0.0406   -0.0827   -0.0735
          58    0.0340   -0.0102    0.0769    0.2273    0.0406   -0.0005   -0.0210   -0.0299
          59   -0.3580    0.0918   -0.6424   -0.0712   -0.1223    0.1237    0.0929    0.0443
          60    0.0855   -0.0301    0.1128   -0.5259    0.0132    0.0391   -0.0688   -0.0662
          61    0.0340   -0.0390   -0.0086    0.5943    0.0702   -0.0014   -0.0289   -0.0318
          62   -0.3730    0.0907    0.7270    0.0019   -0.0366    0.1038    0.0784    0.0423
          63    0.0670   -0.0584   -0.1317    0.2528    0.0589    0.0347   -0.0923   -0.0772
          64   -0.0081   -0.1706    0.0068   -0.0732   -0.0050    0.0358   -0.0032   -0.0200
          65    0.1311    0.6130   -0.0018    0.0008    0.0039   -0.0478   -0.0356   -0.0407
          66    0.0694    0.1379    0.0058    0.0517   -0.0123    0.1656    0.0024   -0.0130
          67    0.0000   -0.0015    0.0092    0.0250    0.0202   -0.0667    0.1145    0.0373
          68   -0.0004   -0.0046    0.0020    0.0194    0.0475    0.0728    0.1239   -0.0263
          69    0.0017   -0.0034   -0.0059   -0.0073   -0.0758   -0.0359   -0.1181    0.0312
          70    0.0007    0.0014    0.0087    0.0143    0.0058   -0.0403    0.1056    0.0004
          71   -0.0001   -0.0050    0.0031    0.0142    0.0328    0.0678    0.1141   -0.0249
          72    0.0020    0.0010   -0.0049    0.0097   -0.0545   -0.0857   -0.1013    0.0903
          73    0.0022    0.0088    0.0058   -0.0120   -0.0396    0.0429   -0.0418   -0.0009
          74    0.0011   -0.0038    0.0024   -0.0046   -0.0184    0.0771   -0.0296    0.0121
          75    0.0010    0.0008   -0.0033    0.0355    0.0067   -0.1235    0.0798    0.0571
          76   -0.0027   -0.0178    0.0038   -0.0099   -0.0303   -0.0259   -0.0314   -0.0193
          77    0.0005   -0.0074    0.0015   -0.0024   -0.0107    0.0478   -0.0223    0.0031
          78    0.0000   -0.0009   -0.0030    0.0363    0.0265    0.0002    0.0986    0.0710
          79    0.0011    0.0045    0.0042   -0.0095   -0.0303   -0.0152   -0.0275   -0.0150
          80   -0.0010   -0.0090   -0.0004    0.0023   -0.0004   -0.0225   -0.0379   -0.0105
          81   -0.0006   -0.0131   -0.0047   -0.0007   -0.0376    0.0871    0.0326   -0.0390
          82    0.0004    0.0044    0.0071    0.0177    0.0081   -0.0477    0.0083    0.0955
          83   -0.0010   -0.0051   -0.0001    0.0167    0.0347    0.0703   -0.0399    0.1042
          84    0.0037    0.0115   -0.0061   -0.0182   -0.0736    0.0294    0.0197   -0.1482
          85    0.0003    0.0062    0.0112    0.0452    0.0514   -0.1149    0.2144    0.0412
          86   -0.0011   -0.0023    0.0029    0.0333    0.0846    0.0758    0.2713   -0.1034
          87    0.0032   -0.0018   -0.0071   -0.0221   -0.1107   -0.0266   -0.2517    0.0878
          88   -0.0003   -0.0006    0.0099    0.0236    0.0220   -0.0700    0.1654   -0.0030
          89    0.0010    0.0035    0.0048    0.0203    0.0589    0.0502    0.2813   -0.1276
          90    0.0014   -0.0036   -0.0045    0.0198   -0.0518   -0.1195   -0.1594    0.1822
          91    0.0004    0.0005    0.0055   -0.0106   -0.0363    0.0274   -0.0340   -0.0053
          92    0.0019   -0.0013    0.0044   -0.0043   -0.0207    0.1279   -0.0278    0.0310
          93   -0.0005   -0.0043   -0.0017    0.0683    0.0714   -0.2665    0.2841    0.0289
          94    0.0008   -0.0024    0.0053   -0.0393   -0.0932    0.2012   -0.2099    0.0325
          95    0.0029    0.0020    0.0010   -0.0213   -0.0639    0.0554   -0.1511    0.0239
          96    0.0011   -0.0024   -0.0041    0.0226   -0.0243   -0.1074   -0.0076    0.0695
          97   -0.0012   -0.0172    0.0022   -0.0282   -0.0594    0.0051   -0.0720   -0.0841
          98    0.0005   -0.0073    0.0008   -0.0160   -0.0451    0.0099   -0.0540   -0.0385
          99   -0.0024   -0.0079   -0.0024    0.0504    0.0594    0.0205    0.1324    0.1194
         100   -0.0019   -0.0100    0.0041    0.0126    0.0075   -0.1175    0.0044    0.0317
         101   -0.0009   -0.0078    0.0028    0.0084    0.0212    0.1153    0.0132    0.0554
         102    0.0001    0.0051   -0.0021    0.0502    0.0583    0.0113    0.1312    0.1195
         103    0.0020    0.0069    0.0035   -0.0303   -0.0670    0.0748   -0.0543   -0.0692
         104    0.0012    0.0043   -0.0010   -0.0085   -0.0228   -0.1210   -0.0434   -0.0983
         105   -0.0003   -0.0187   -0.0054   -0.0146   -0.0633    0.0611    0.0211   -0.1089
         106    0.0008    0.0056    0.0078    0.0121    0.0011   -0.0579    0.1111   -0.0443
         107    0.0007    0.0051   -0.0019    0.0166    0.0294    0.0780   -0.2071    0.2701
         108    0.0038    0.0010   -0.0078   -0.0507   -0.1252   -0.0008    0.0853   -0.4094
         109   -0.0002    0.0084    0.0069    0.0438    0.0414   -0.0375   -0.1887    0.4396
         110   -0.0007    0.0015    0.0005    0.0294    0.0655    0.1352   -0.0287    0.1856
         111    0.0043    0.0160   -0.0058   -0.0145   -0.0582    0.0761    0.0742   -0.1687
         112    0.0047    0.0249   -0.0019    0.0058   -0.0384    0.0549    0.0091   -0.0167
         113   -0.0115   -0.1025    0.0033    0.0073   -0.0019   -0.0589   -0.0322   -0.0368
         114    0.0077    0.0164   -0.0091    0.0084   -0.0185    0.2088    0.0165    0.0054
         115   -0.0317   -0.1893    0.0018   -0.0143   -0.0260   -0.0737   -0.0328   -0.0273
         116    0.0461    0.3056   -0.0014    0.0155    0.0143   -0.0565   -0.0450   -0.0131
         117   -0.0012   -0.0217   -0.0070    0.0003   -0.0325    0.2320    0.0234    0.0116
         118    0.0299    0.2067   -0.0099    0.0142   -0.0032   -0.2308   -0.0570   -0.0536
         119   -0.0790   -0.4916   -0.0001   -0.0015   -0.0016   -0.1414   -0.0507   -0.0422
         120   -0.0080   -0.0875   -0.0081    0.0041   -0.0310    0.3120    0.0400    0.0202


   Root No.       9        10        11        12        13        14        15        16

                 9 A      10 A      11 A      12 A      13 A      14 A      15 A      16 A   

                  -0.0      -0.0       0.0       0.0       0.0       0.0       0.0       0.1
  
           1    0.0453    0.0095   -0.1763   -0.0402   -0.0436    0.0026   -0.0201   -0.0137
           2   -0.0234   -0.0261    0.1228    0.0321   -0.0327    0.0009    0.0215   -0.0411
           3   -0.0025   -0.0004    0.0505   -0.0104    0.0015    0.0242    0.0190    0.0192
           4    0.0448    0.0089   -0.1725   -0.0396   -0.0412    0.0026   -0.0210   -0.0093
           5    0.0072    0.0095    0.0385    0.0408   -0.0677    0.0028    0.0486   -0.1014
           6   -0.0058    0.0464    0.0621   -0.0696   -0.0352   -0.0089   -0.1003    0.0573
           7    0.0176   -0.0243   -0.1073   -0.0454   -0.0133   -0.0026   -0.0310    0.0217
           8    0.0229    0.0293   -0.0041    0.0439   -0.0852    0.0061    0.0575   -0.1257
           9   -0.0055    0.0551    0.0460   -0.0851   -0.0336    0.0024   -0.0650    0.0447
          10   -0.0097   -0.0529   -0.0361   -0.0516    0.0135   -0.0033   -0.0519    0.0640
          11    0.0069    0.0123    0.0399    0.0405   -0.0678    0.0053    0.0468   -0.1005
          12    0.0026    0.0170   -0.0047   -0.0553   -0.0327    0.0027   -0.0885    0.0693
          13   -0.0095   -0.0525   -0.0345   -0.0516    0.0153   -0.0032   -0.0545    0.0690
          14   -0.0238   -0.0247    0.1255    0.0330   -0.0335    0.0024    0.0213   -0.0418
          15    0.0080   -0.0217   -0.0332    0.0003   -0.0015    0.0121    0.0059   -0.0041
          16    0.0174   -0.0207   -0.1032   -0.0452   -0.0145    0.0005   -0.0371    0.0263
          17   -0.0391   -0.0436    0.1634    0.0282   -0.0167    0.0001    0.0097   -0.0160
          18    0.0022   -0.0374    0.0009    0.0350    0.0329    0.0353    0.1282   -0.0575
          19    0.0655    0.0341   -0.2308   -0.0358   -0.0672    0.0031   -0.0077   -0.0505
          20   -0.0349   -0.0398    0.1535    0.0292   -0.0194    0.0006    0.0138   -0.0201
          21   -0.0045   -0.0052    0.0702    0.0023    0.0073    0.0289    0.0256    0.0297
          22    0.0659    0.0342   -0.2252   -0.0325   -0.0669    0.0085   -0.0042   -0.0392
          23    0.0193    0.0238    0.0090    0.0448   -0.0817    0.0055    0.0569   -0.1177
          24   -0.0058    0.0707    0.0791   -0.0985   -0.0605   -0.0443   -0.2081    0.0849
          25   -0.0309   -0.0746    0.0225   -0.0580    0.0397   -0.0044   -0.0761    0.1115
          26    0.0192    0.0247    0.0072    0.0447   -0.0827    0.0061    0.0614   -0.1280
          27    0.0063    0.0171   -0.0197   -0.0689   -0.0532   -0.0072   -0.1720    0.1334
          28    0.0174   -0.0203   -0.1032   -0.0456   -0.0147    0.0004   -0.0388    0.0275
          29   -0.0644   -0.0716    0.2327    0.0228    0.0122   -0.0024   -0.0098    0.0297
          30    0.0023   -0.0642   -0.0102    0.0802    0.0693    0.0507    0.2615   -0.1378
          31   -0.0344   -0.0837    0.0394   -0.0617    0.0502   -0.0055   -0.0988    0.1539
          32   -0.0385   -0.0433    0.1677    0.0263   -0.0122    0.0011   -0.0042    0.0079
          33    0.0129   -0.0287   -0.0655    0.0084   -0.0036   -0.0035   -0.0236   -0.0152
          34   -0.0334   -0.0826    0.0368   -0.0617    0.0494   -0.0053   -0.0983    0.1526
          35   -0.0617   -0.0728    0.2363    0.0138    0.0231   -0.0009   -0.0533    0.1001
          36    0.0090   -0.0268   -0.0582    0.0029    0.0003   -0.0127   -0.0514   -0.0014
          37   -0.0562   -0.1121    0.1040   -0.0738    0.0839   -0.0073   -0.1468    0.2426
          38   -0.0261   -0.0272    0.1311    0.0325   -0.0310    0.0021    0.0212   -0.0398
          39    0.0110   -0.0163   -0.0520    0.0036   -0.0076   -0.0069   -0.0224   -0.0151
          40    0.0233   -0.0244   -0.1088   -0.0443   -0.0217   -0.0051   -0.0341    0.0255
          41    0.0607    0.0530   -0.0642    0.0384   -0.0948    0.0026    0.0098   -0.0503
          42   -0.0085    0.0840    0.0632   -0.1117   -0.0234    0.0095    0.0048   -0.0243
          43   -0.0257   -0.0224   -0.0924   -0.0482    0.0211    0.0048    0.1024   -0.1656
          44    0.0293   -0.0480   -0.1103    0.1889   -0.1405   -0.0085   -0.0248    0.0749
          45   -0.0532    0.0248    0.0403   -0.0296   -0.0210    0.0076    0.0524   -0.0492
          46    0.0189   -0.0547   -0.0814   -0.0617    0.0295    0.0040    0.1086   -0.1644
          47    0.3764   -0.2874   -0.0238    0.0881   -0.0942   -0.0173   -0.0383    0.1664
          48    0.1114   -0.0986    0.1147   -0.1159    0.0562    0.0168    0.1921   -0.2212
          49   -0.3637    0.2046   -0.1763    0.0590   -0.0294    0.0126    0.1261   -0.2664
          50   -0.0399   -0.0046   -0.1287    0.2152   -0.1537   -0.0076   -0.0229    0.0627
          51   -0.2894    0.0799   -0.0592    0.1808   -0.1114   -0.0007    0.0075    0.0569
          52    0.2256   -0.2170   -0.0056   -0.1440    0.1051    0.0092    0.2192   -0.2781
          53   -0.2629    0.0551   -0.2163    0.3938   -0.2246   -0.0139   -0.0452    0.1259
          54   -0.0234    0.0593    0.0537   -0.0840   -0.0186    0.0085    0.0159   -0.0289
          55    0.0024   -0.0453   -0.1053   -0.0164   -0.0055   -0.0002   -0.0033    0.0023
          56    0.1733    0.2089   -0.0054   -0.1204   -0.1754    0.0050   -0.0668   -0.0261
          57   -0.0333    0.0409    0.0452   -0.0667   -0.0130    0.0057    0.0177   -0.0245
          58   -0.0033   -0.0506   -0.1046   -0.0090   -0.0001    0.0015    0.0112   -0.0092
          59    0.2161    0.2564   -0.0071   -0.1771   -0.2075    0.0014   -0.1089    0.0006
          60   -0.0292    0.0334    0.0333   -0.0803   -0.0129   -0.0049   -0.0650    0.0454
          61   -0.0128   -0.0474   -0.0952    0.0043    0.0081    0.0112    0.0777   -0.0689
          62    0.1737    0.2047    0.0046   -0.1166   -0.1585    0.0059   -0.0338   -0.0368
          63   -0.0449    0.0396    0.0504   -0.0542   -0.0039    0.0131    0.0650   -0.0683
          64    0.0431   -0.0079   -0.1281   -0.0480   -0.0037   -0.0051   -0.0554    0.1091
          65    0.0818    0.0630   -0.0494    0.0717   -0.1424   -0.0015    0.0122   -0.0418
          66    0.0593    0.1434    0.0935   -0.1728   -0.0481    0.0066    0.0502   -0.0305
          67   -0.0391   -0.0492    0.0976   -0.0213   -0.1168   -0.0009   -0.0058   -0.0068
          68    0.0234   -0.0298   -0.0542    0.0055    0.1420   -0.0349   -0.0025    0.0208
          69   -0.0638   -0.0189   -0.0263   -0.0104    0.0231    0.0102    0.0050    0.0138
          70   -0.0423   -0.0519    0.1045   -0.0025   -0.1017    0.0095   -0.0079   -0.0120
          71   -0.0310   -0.0868   -0.0495   -0.0514    0.0728    0.0186    0.0100    0.0283
          72   -0.0747   -0.0273   -0.0382   -0.0606   -0.0207    0.0001    0.0193    0.0302
          73   -0.0178   -0.0246    0.1216    0.0790   -0.0154    0.0290   -0.0413   -0.0507
          74   -0.1098   -0.1348   -0.0351   -0.1126    0.0130    0.0638    0.0339    0.0276
          75   -0.0146    0.0048   -0.0576   -0.0371    0.0011   -0.0509    0.0162    0.0498
          76    0.0095    0.0871    0.1088    0.0926    0.0650   -0.1349   -0.0208   -0.0257
          77   -0.0869   -0.0732   -0.0427   -0.0931    0.0685   -0.0205    0.0319    0.0308
          78    0.0823   -0.0326   -0.0524    0.0944    0.0633    0.1164   -0.1187   -0.0438
          79    0.0032    0.0665    0.1084    0.0848    0.0517   -0.1166   -0.0132   -0.0197
          80   -0.0559    0.0413   -0.0519   -0.0557    0.1714   -0.0918   -0.0425   -0.0247
          81    0.0498   -0.0378   -0.0225    0.1199    0.0727    0.0257    0.0221    0.0350
          82   -0.0017    0.0029    0.0934    0.0246   -0.0409   -0.0492   -0.0205   -0.0131
          83    0.0526    0.0219   -0.0640    0.0210    0.1944   -0.0918   -0.0069    0.0244
          84   -0.0300   -0.0078   -0.0111    0.0784    0.0874    0.0116   -0.0027   -0.0024
          85   -0.0606   -0.0851    0.0879   -0.0800   -0.1890    0.0173    0.0172    0.0145
          86    0.0734   -0.0062   -0.0576    0.0555    0.1788   -0.0670    0.0018    0.0283
          87   -0.0963   -0.0280   -0.0217   -0.0338    0.0143    0.0291   -0.0027    0.0040
          88   -0.0576   -0.0718    0.0992   -0.0394   -0.1454    0.0155    0.0062    0.0032
          89   -0.0360   -0.1055   -0.0515   -0.0617    0.0458    0.0260    0.0278    0.0508
          90   -0.0950   -0.0408   -0.0451   -0.1119   -0.0649   -0.0014    0.0278    0.0360
          91   -0.0133   -0.0040    0.1187    0.0790   -0.0029   -0.0061   -0.0340   -0.0432
          92   -0.1268   -0.2287   -0.0237   -0.1213   -0.0615    0.2242   -0.0057   -0.0081
          93   -0.0082    0.0729   -0.0904   -0.1095   -0.0172   -0.2445    0.1021    0.1422
          94   -0.0184   -0.1298    0.1573    0.1548   -0.0292    0.2826   -0.1507   -0.1587
          95   -0.1776   -0.1304   -0.0255   -0.1689   -0.0093    0.0235    0.0864    0.0514
          96   -0.0469   -0.0103   -0.0472   -0.0517   -0.0122   -0.0305    0.0245    0.0446
          97    0.0164    0.1317    0.1221    0.1368    0.1205   -0.2270    0.0312   -0.0007
          98   -0.1606   -0.0693   -0.0330   -0.1724    0.0130   -0.1361    0.1809    0.1298
          99    0.1362   -0.0474   -0.0632    0.1427    0.0900    0.2321   -0.2500   -0.1281
         100    0.0284    0.1416    0.0872    0.0751    0.0935   -0.1587   -0.1013   -0.0714
         101   -0.0194   -0.1219   -0.0496   -0.0226    0.0878    0.1528   -0.1088   -0.0583
         102    0.1289   -0.0444   -0.0635    0.1318    0.0857    0.2153   -0.2334   -0.1155
         103   -0.0157    0.0192    0.1290    0.0977    0.0228   -0.1626    0.1047    0.0500
         104   -0.1250    0.0983   -0.0486   -0.0978    0.2103   -0.0918   -0.1206   -0.0895
         105    0.0047   -0.0211   -0.0132    0.1011    0.0819    0.0069    0.0183    0.0222
         106   -0.0445   -0.0136    0.1066    0.0114   -0.0639   -0.0204   -0.0296   -0.0379
         107    0.0992    0.0677   -0.0775    0.0439    0.2547   -0.1550    0.0011    0.0503
         108   -0.1159    0.0346    0.0190    0.0785    0.1307   -0.0057   -0.0414   -0.0662
         109    0.0835    0.0027    0.0592    0.0204   -0.0451   -0.0843    0.0121    0.0488
         110    0.1358    0.0091   -0.0742    0.0824    0.2219   -0.0943    0.0179    0.0624
         111    0.0119   -0.0174   -0.0107    0.1253    0.1087    0.0187    0.0087    0.0106
         112    0.1152    0.2357    0.0460    0.1149    0.1048    0.4239    0.4746    0.4336
         113    0.0205    0.2333   -0.0186   -0.1698    0.0097    0.2279    0.0499    0.0800
         114    0.1243   -0.0439    0.0479    0.0598   -0.1859   -0.2402    0.0146   -0.0855
         115    0.0396    0.1529    0.1062    0.1091    0.0838   -0.0980   -0.0742   -0.0498
         116   -0.0641    0.0850   -0.0679   -0.0586    0.2498   -0.0635   -0.0727   -0.0563
         117    0.1282   -0.0777   -0.0180    0.1768    0.0346   -0.0366    0.1597    0.1243
         118    0.0075    0.2920    0.1305    0.0141    0.1142    0.2617   -0.0127   -0.0013
         119    0.0162    0.1782    0.0021   -0.0371    0.0241    0.1139   -0.0547   -0.0291
         120    0.1601   -0.0693    0.0137    0.0957   -0.1797   -0.1913    0.1813    0.0661


   Root No.      17        18        19        20        21        22        23        24

                17 A      18 A      19 A      20 A      21 A      22 A      23 A      24 A   

                   0.1       0.1       0.1       0.1       0.2       0.2       0.2       0.3
  
           1   -0.0324    0.0359    0.0053   -0.0989    0.0249    0.0187    0.0276   -0.0016
           2   -0.0697    0.0218    0.0082   -0.0536   -0.0094    0.0037   -0.0021   -0.0636
           3   -0.0299    0.1410   -0.0243    0.1039   -0.0366    0.0141    0.0733   -0.0327
           4   -0.0250    0.0324    0.0046   -0.0908    0.0229    0.0166    0.0252   -0.0015
           5   -0.1165    0.0427    0.0090   -0.0894    0.0009    0.0143    0.0077   -0.0004
           6   -0.1496   -0.0972   -0.0114   -0.0245    0.0091   -0.0891   -0.1552    0.0209
           7    0.0007    0.0171    0.0038   -0.0574    0.0060    0.0052    0.0084   -0.0426
           8   -0.1380    0.0532    0.0094   -0.1077    0.0102    0.0204    0.0159    0.0283
           9   -0.0060    0.0552    0.0094   -0.0989    0.0308   -0.0115   -0.0850   -0.0331
          10    0.0280    0.0081    0.0052   -0.0527    0.0080    0.0048    0.0121   -0.1080
          11   -0.1194    0.0461    0.0103   -0.1063    0.0078    0.0178    0.0147   -0.0291
          12   -0.0793    0.2772   -0.0000    0.0441    0.0099   -0.0243   -0.1332    0.0266
          13    0.0356    0.0057    0.0050   -0.0491    0.0090    0.0047    0.0126   -0.1110
          14   -0.0743    0.0253    0.0090   -0.0652   -0.0055    0.0058    0.0025   -0.0842
          15   -0.0247    0.0428   -0.0097   -0.0112    0.0065   -0.0900   -0.0977    0.0224
          16   -0.0023    0.0233    0.0058   -0.0834    0.0193    0.0129    0.0233   -0.0792
          17   -0.0534    0.0151    0.0084   -0.0435   -0.0114    0.0012   -0.0028   -0.0969
          18    0.1693    0.0744   -0.0035   -0.0874    0.0193   -0.0568   -0.1293    0.0260
          19   -0.0653    0.0492    0.0058   -0.1242    0.0355    0.0288    0.0406    0.0723
          20   -0.0527    0.0144    0.0081   -0.0428   -0.0149   -0.0022   -0.0103   -0.1090
          21   -0.0702    0.2564   -0.0390    0.2957   -0.0997    0.1389    0.3780   -0.1088
          22   -0.0637    0.0485    0.0063   -0.1373    0.0328    0.0279    0.0337    0.0412
          23   -0.1382    0.0523    0.0100   -0.1157    0.0067    0.0209    0.0132    0.0254
          24   -0.3413   -0.3734   -0.0176   -0.0459    0.0288   -0.2353   -0.4301    0.1441
          25    0.0683   -0.0028    0.0041   -0.0218    0.0060   -0.0042    0.0050   -0.1814
          26   -0.1408    0.0487    0.0111   -0.1271    0.0099    0.0233    0.0209    0.0120
          27   -0.1929    0.6018   -0.0025    0.2308   -0.0108    0.0256   -0.2368    0.1124
          28   -0.0030    0.0235    0.0058   -0.0838    0.0202    0.0134    0.0253   -0.0790
          29   -0.0190   -0.0021    0.0074   -0.0123   -0.0225   -0.0084   -0.0109   -0.1727
          30    0.4060    0.0314    0.0172   -0.2684    0.0696   -0.0891   -0.3260    0.0976
          31    0.1210   -0.0360   -0.0004    0.0423    0.0129   -0.0001    0.0144    0.0725
          32   -0.0241   -0.0000    0.0060   -0.0120   -0.0036    0.0028    0.0049    0.0229
          33   -0.1492   -0.2178   -0.0240    0.0671   -0.0326   -0.0512    0.1279   -0.0330
          34    0.1200   -0.0344   -0.0004    0.0410    0.0136   -0.0033    0.0157    0.0721
          35    0.0709   -0.0416   -0.0005    0.0949    0.0033   -0.0052    0.0079    0.2779
          36   -0.1966   -0.3993   -0.0197    0.1276   -0.0556    0.6655   -0.0115   -0.0544
          37    0.2125   -0.0790   -0.0067    0.1453    0.0211   -0.0021    0.0181    0.3164
          38   -0.0739    0.0242    0.0094   -0.0673   -0.0076    0.0053    0.0021   -0.1053
          39   -0.1328   -0.1697   -0.0286    0.0551   -0.0340   -0.6296    0.4477   -0.0641
          40   -0.0013    0.0178    0.0037   -0.0599    0.0014    0.0010    0.0017   -0.0511
          41   -0.0302    0.0175   -0.0012   -0.0112    0.0034    0.0044    0.0064    0.1010
          42    0.0966   -0.0015    0.0179   -0.0993    0.0275    0.0455    0.0297   -0.0802
          43   -0.0444   -0.0104    0.0002    0.1260   -0.0072   -0.0181   -0.0474    0.0197
          44    0.0605   -0.0267   -0.0011    0.0457   -0.0092   -0.0056   -0.0187    0.0331
          45    0.1123   -0.0334    0.0162    0.0118    0.0149    0.0327   -0.0037   -0.0767
          46   -0.0405   -0.0147   -0.0009    0.1393   -0.0123   -0.0223   -0.0552    0.0154
          47    0.1151   -0.0493   -0.0018    0.0080   -0.0297   -0.0028   -0.0041   -0.0532
          48    0.0952   -0.0743    0.0090    0.2511    0.0044   -0.0050   -0.0894   -0.0284
          49   -0.0857   -0.0004   -0.0014    0.2179    0.0126   -0.0340   -0.0860    0.1170
          50    0.0592   -0.0275   -0.0015    0.0658   -0.0068   -0.0091   -0.0262    0.0450
          51    0.2227   -0.0780    0.0161    0.1053    0.0108    0.0195   -0.0315   -0.1952
          52   -0.0529   -0.0506   -0.0076    0.3300   -0.0307   -0.0577   -0.1320    0.0530
          53    0.1261   -0.0605   -0.0031    0.1636   -0.0172   -0.0263   -0.0640    0.0030
          54    0.0927   -0.0050    0.0198   -0.1109    0.0281    0.0555    0.0463   -0.0833
          55   -0.0187    0.0207    0.0029   -0.0728    0.0024    0.0026    0.0084   -0.0159
          56    0.1472   -0.0353   -0.0078    0.1718    0.0348   -0.0489   -0.0789   -0.1450
          57    0.0464    0.0160    0.0203   -0.1419    0.0177    0.0603    0.0492   -0.0199
          58   -0.0080    0.0107    0.0025   -0.0609    0.0003    0.0037    0.0141   -0.0149
          59    0.1523    0.0121   -0.0102    0.1873    0.0325   -0.0529   -0.0988   -0.1651
          60   -0.0371    0.0334    0.0269   -0.2602    0.0345    0.0547    0.0255   -0.0301
          61    0.0652   -0.0322   -0.0015    0.0176   -0.0060    0.0054    0.0395   -0.0280
          62    0.1795   -0.1019   -0.0091    0.1488    0.0277   -0.0462   -0.0357   -0.1420
          63    0.0962   -0.0109    0.0177   -0.0833    0.0141    0.0614    0.0638   -0.0296
          64    0.0846   -0.0108   -0.0054   -0.0220   -0.0705   -0.0054    0.0133   -0.0564
          65   -0.0109    0.0050   -0.0019   -0.0081    0.0100    0.0094    0.0256    0.1436
          66    0.1342   -0.0182    0.0088   -0.0787   -0.0384    0.0644    0.1295    0.0215
          67   -0.0190   -0.0050   -0.0550   -0.0141   -0.0065    0.0063   -0.0060   -0.0074
          68   -0.0039    0.0049   -0.1275   -0.0063    0.0469    0.0089   -0.0042    0.0081
          69   -0.0058   -0.0058    0.0902    0.0179    0.0172   -0.0100    0.0184   -0.0201
          70   -0.0191   -0.0044    0.1018   -0.0019   -0.0055    0.0010   -0.0021   -0.0114
          71   -0.0086   -0.0019    0.0715    0.0041    0.0136    0.0023    0.0003    0.0248
          72   -0.0093   -0.0088   -0.1203    0.0002    0.0200   -0.0019    0.0170   -0.0076
          73    0.0012    0.0067    0.0071    0.0023    0.0041   -0.0043    0.0011   -0.0187
          74   -0.0019   -0.0022    0.0082    0.0039   -0.0051   -0.0046    0.0062    0.0298
          75   -0.0243   -0.0126   -0.0305    0.0001    0.0429    0.0063    0.0117   -0.0099
          76    0.0057    0.0094    0.0009    0.0001   -0.0607   -0.0069   -0.0131   -0.0199
          77    0.0026    0.0005    0.0056    0.0006   -0.0528   -0.0066   -0.0060    0.0199
          78   -0.0047   -0.0061    0.0123   -0.0037    0.0098    0.0074    0.0008   -0.0131
          79    0.0019    0.0083    0.0040    0.0005   -0.0530   -0.0068   -0.0123   -0.0151
          80    0.0264    0.0035   -0.0228   -0.0161   -0.1395   -0.0054   -0.0069    0.0079
          81   -0.0272    0.0032    0.0230    0.0312    0.1852   -0.0008    0.0102   -0.0508
          82   -0.0136   -0.0016    0.0017   -0.0088   -0.0276    0.0020   -0.0119   -0.0207
          83   -0.0020    0.0042   -0.0535   -0.0035    0.0094    0.0052   -0.0078    0.0042
          84   -0.0030    0.0048    0.0490    0.0239    0.0720   -0.0107    0.0125   -0.0455
          85   -0.0304   -0.0099   -0.2362   -0.0287    0.0476    0.0178    0.0013   -0.0015
          86   -0.0103    0.0112   -0.3970   -0.0143    0.1775    0.0227   -0.0043   -0.0334
          87    0.0013   -0.0094    0.3314    0.0273   -0.0901   -0.0228    0.0171    0.0092
          88   -0.0282   -0.0095    0.1650   -0.0012    0.0033    0.0031    0.0020   -0.0069
          89   -0.0314   -0.0099    0.4910    0.0297    0.0880    0.0022    0.0248    0.0142
          90   -0.0026   -0.0094   -0.4358   -0.0240   -0.0387    0.0020   -0.0009    0.0127
          91    0.0009    0.0070    0.0082    0.0022   -0.0065   -0.0047   -0.0024   -0.0204
          92   -0.0013   -0.0054    0.0147    0.0036    0.0474    0.0000    0.0230    0.0371
          93   -0.0551   -0.0238    0.1513    0.0016   -0.0056    0.0089   -0.0072    0.0025
          94    0.0306    0.0163   -0.1387    0.0028    0.0819   -0.0038    0.0254   -0.0380
          95    0.0018   -0.0011   -0.0956    0.0043   -0.0115   -0.0102    0.0123    0.0371
          96   -0.0176   -0.0105   -0.1002    0.0007    0.0484    0.0032    0.0175   -0.0087
          97    0.0004    0.0178   -0.0034    0.0170    0.0238   -0.0115   -0.0146   -0.0704
          98   -0.0253   -0.0021   -0.0243    0.0219    0.1146   -0.0056    0.0187    0.0077
          99    0.0200   -0.0063    0.0369   -0.0245   -0.1494    0.0073   -0.0187    0.0120
         100    0.0256    0.0057   -0.0144   -0.0263   -0.2311   -0.0049   -0.0272   -0.0004
         101    0.0259    0.0011    0.0444   -0.0170   -0.2074   -0.0079   -0.0301    0.0512
         102    0.0166   -0.0069    0.0331   -0.0238   -0.1467    0.0070   -0.0195    0.0131
         103   -0.0233    0.0149    0.0166    0.0251    0.0593   -0.0142   -0.0201   -0.0419
         104    0.0623    0.0028   -0.0030   -0.0272   -0.2606   -0.0114    0.0012    0.0027
         105   -0.0148    0.0053    0.0397    0.0340    0.1532   -0.0071    0.0112   -0.0628
         106   -0.0013    0.0020   -0.0975   -0.0205   -0.0824   -0.0002   -0.0155   -0.0070
         107   -0.0120    0.0011    0.1155    0.0143    0.0521    0.0036   -0.0043   -0.0192
         108    0.0401    0.0159   -0.0219    0.0101   -0.1225   -0.0268    0.0017   -0.0228
         109   -0.0536   -0.0142    0.2066    0.0112    0.1255    0.0117   -0.0050   -0.0698
         110   -0.0278    0.0050   -0.0711    0.0125    0.1862    0.0148   -0.0078   -0.0317
         111   -0.0129    0.0084   -0.0234    0.0293    0.1634   -0.0057    0.0101   -0.0590
         112   -0.1676   -0.0327   -0.0320   -0.0112   -0.3359   -0.0370   -0.1082   -0.0443
         113    0.1017   -0.0314   -0.0027   -0.0206   -0.0852    0.0448    0.1287    0.1155
         114    0.0753    0.0011   -0.0014   -0.0517   -0.0576    0.0586    0.1841    0.3840
         115    0.0246    0.0051   -0.0063    0.0003   -0.0511    0.0022    0.0192    0.0676
         116    0.0196   -0.0026   -0.0296   -0.0408   -0.1491    0.0014    0.0145    0.0386
         117   -0.0637    0.0067   -0.0066    0.0280    0.1945    0.0026    0.0066    0.0079
         118   -0.0274   -0.0375    0.0350    0.0068    0.3924    0.0518    0.1712    0.3170
         119    0.0345   -0.0113    0.0080    0.0271    0.1660    0.0243    0.0724    0.1598
         120    0.0258    0.0032   -0.0258   -0.0582   -0.3141    0.0266    0.0857    0.2569


   Root No.      25        26        27        28        29        30        31        32

                25 A      26 A      27 A      28 A      29 A      30 A      31 A      32 A   

                   0.3       0.3       0.4       0.5       0.5       0.5       0.5       0.6
  
           1    0.0648    0.0170   -0.0269   -0.0069   -0.0574    0.0108    0.0504   -0.0788
           2   -0.0370    0.0009   -0.0011   -0.0012   -0.0073   -0.0004    0.0038    0.0779
           3    0.0250    0.0027   -0.0083    0.0027    0.1784    0.0599    0.1177   -0.0155
           4    0.0549    0.0146   -0.0228   -0.0063   -0.0431    0.0078    0.0353   -0.0608
           5    0.0747    0.0041   -0.0052    0.0007   -0.0455    0.0075    0.0492    0.0910
           6   -0.0023   -0.0079    0.0011    0.0050    0.1584    0.0480    0.0876   -0.0027
           7   -0.0265    0.0031   -0.0020   -0.0003    0.0037   -0.0023   -0.0064    0.0875
           8    0.1236    0.0094   -0.0138   -0.0012   -0.0649    0.0119    0.0667    0.0190
           9    0.0501    0.0155   -0.0296   -0.0063    0.2135    0.0503    0.0513    0.0221
          10   -0.1159    0.0133   -0.0149   -0.0046   -0.0087    0.0002    0.0001   -0.1007
          11    0.0482    0.0139   -0.0213   -0.0052   -0.0670    0.0126    0.0654   -0.0559
          12   -0.0030   -0.0036   -0.0132   -0.0051    0.2059    0.0717    0.1273    0.0025
          13   -0.1264    0.0142   -0.0174   -0.0066   -0.0051   -0.0009   -0.0083   -0.1276
          14   -0.0539    0.0079   -0.0135   -0.0058   -0.0263    0.0046    0.0214   -0.0367
          15    0.0045   -0.0051   -0.0121   -0.0023    0.3790    0.1430    0.2844   -0.0221
          16   -0.0546    0.0207   -0.0307   -0.0102   -0.0414    0.0078    0.0297   -0.1846
          17   -0.0887    0.0035   -0.0043   -0.0030   -0.0042   -0.0011   -0.0022    0.0093
          18    0.0002   -0.0070   -0.0036    0.0025    0.1964    0.0721    0.1484   -0.0201
          19    0.1975    0.0211   -0.0375   -0.0085   -0.1132    0.0283    0.1329   -0.0580
          20   -0.1130   -0.0005    0.0027   -0.0011    0.0213   -0.0086   -0.0367    0.0652
          21    0.0417    0.0143   -0.0038    0.0013   -0.1369   -0.0564   -0.1090    0.0089
          22    0.1839    0.0265   -0.0490   -0.0112   -0.1422    0.0240    0.1283   -0.2007
          23    0.1450    0.0109   -0.0223   -0.0038   -0.1023    0.0176    0.1028    0.0266
          24   -0.1121   -0.0467    0.0505    0.0168   -0.2021   -0.0543   -0.0571   -0.0192
          25   -0.2620    0.0183   -0.0263   -0.0154    0.0365   -0.0077   -0.0673   -0.3629
          26    0.1350    0.0122   -0.0163    0.0008   -0.0944    0.0192    0.1113    0.0856
          27   -0.0940   -0.0341    0.0326    0.0040   -0.3165   -0.0954   -0.1548    0.0121
          28   -0.0525    0.0221   -0.0336   -0.0114   -0.0421    0.0104    0.0364   -0.2031
          29   -0.2205    0.0016    0.0010   -0.0041    0.0489   -0.0081   -0.0495   -0.0250
          30   -0.0414   -0.0243    0.0287    0.0120   -0.3366   -0.1204   -0.2130    0.0034
          31    0.0647    0.0020   -0.0050   -0.0020   -0.0054   -0.0004   -0.0029   -0.0747
          32    0.0610    0.0005   -0.0056   -0.0027   -0.0317    0.0050    0.0281    0.0099
          33    0.0195    0.0030    0.0011    0.0031    0.0623    0.0231    0.0525   -0.0085
          34    0.0644    0.0025   -0.0055   -0.0021   -0.0050    0.0000   -0.0018   -0.0788
          35    0.3455   -0.0157    0.0103    0.0045   -0.0434    0.0096    0.0550    0.1146
          36    0.0165    0.0036    0.0037    0.0065   -0.0995   -0.0448   -0.0864    0.0057
          37    0.3319   -0.0123    0.0098    0.0048   -0.0094    0.0038    0.0180    0.0026
          38   -0.0783    0.0083   -0.0141   -0.0065   -0.0308    0.0033    0.0190   -0.0317
          39    0.0477    0.0145    0.0065    0.0033   -0.1676   -0.0660   -0.1310    0.0059
          40   -0.0337   -0.0021    0.0178    0.0113    0.0269   -0.0082   -0.0199    0.1743
          41    0.0632   -0.0138    0.0104   -0.0106    0.1224   -0.0310   -0.1803   -0.0770
          42    0.0798    0.0252   -0.0326   -0.0094    0.0306   -0.0179   -0.0826    0.0237
          43   -0.0312   -0.0131    0.0267    0.0105    0.0201   -0.0085   -0.0211    0.1105
          44   -0.0041   -0.0096    0.0126   -0.0013    0.0765   -0.0166   -0.1047   -0.0407
          45    0.0483    0.0224   -0.0396   -0.0138   -0.0073   -0.0044   -0.0291   -0.0001
          46   -0.0390   -0.0151    0.0280    0.0109    0.0201   -0.0059   -0.0112    0.1309
          47   -0.0494   -0.0066   -0.0007   -0.0032   -0.0074   -0.0012   -0.0091    0.1358
          48    0.0466    0.0225   -0.0677   -0.0335   -0.0049    0.0208    0.0129   -0.2775
          49   -0.0155   -0.0227    0.0528    0.0156    0.1694   -0.0327   -0.1882    0.0026
          50   -0.0059   -0.0110    0.0136   -0.0025    0.0934   -0.0173   -0.1209   -0.0577
          51   -0.0358    0.0427   -0.0910   -0.0245   -0.2502    0.0646    0.3272    0.1628
          52   -0.0810   -0.0255    0.0313    0.0112   -0.0096    0.0327    0.1338    0.0655
          53   -0.0840   -0.0114   -0.0020   -0.0083   -0.0325    0.0378    0.1219   -0.0606
          54    0.1032    0.0300   -0.0410   -0.0136    0.0499   -0.0436   -0.1896    0.0301
          55   -0.0275   -0.0037    0.0242    0.0146    0.0601    0.0010   -0.0055    0.1741
          56    0.0658    0.0440   -0.0975   -0.0343   -0.0034    0.0065   -0.0181    0.0102
          57    0.0772    0.0075    0.0127    0.0079    0.0637   -0.0379   -0.1444    0.0020
          58   -0.0237   -0.0037    0.0221    0.0127    0.0550   -0.0023   -0.0160    0.1595
          59    0.0516    0.0397   -0.0870   -0.0288   -0.0103    0.0050   -0.0075    0.0658
          60    0.0575    0.0134   -0.0061   -0.0018    0.1313   -0.0090   -0.0973    0.1523
          61    0.0066    0.0025    0.0086    0.0068    0.0386   -0.0201   -0.0765    0.0746
          62    0.0567    0.0424   -0.0862   -0.0280    0.0043    0.0085   -0.0072    0.0015
          63    0.1025    0.0133   -0.0064   -0.0025    0.0524   -0.0500   -0.1944   -0.0618
          64   -0.1508   -0.0613    0.0605   -0.0106    0.0833   -0.0398   -0.1486    0.5263
          65    0.0444   -0.0287    0.1843    0.1069    0.2280   -0.0969   -0.2894   -0.1332
          66   -0.0899   -0.0451    0.1236    0.0506   -0.1634    0.0224    0.2293    0.0637
          67    0.0154    0.0046    0.0628   -0.1004    0.0038   -0.0480    0.0108   -0.0017
          68   -0.0127    0.0201   -0.0230   -0.0353    0.0246   -0.1705    0.0586   -0.0042
          69    0.0105   -0.0994   -0.0302    0.0603   -0.0111    0.0544   -0.0226   -0.0028
          70    0.0191   -0.0089    0.0748   -0.1218    0.0054   -0.0440    0.0114   -0.0037
          71   -0.0215    0.0807   -0.0168   -0.0561    0.0232   -0.1556    0.0517   -0.0046
          72   -0.0021   -0.0928   -0.0919    0.1584   -0.0142    0.0466   -0.0232    0.0051
          73    0.0170   -0.0322    0.0097    0.0126    0.0110   -0.0777    0.0285    0.0007
          74   -0.0228    0.1072   -0.0131   -0.0187    0.0005   -0.0009    0.0017    0.0007
          75   -0.0017   -0.1104   -0.0811    0.0959    0.0025   -0.0754    0.0155    0.0005
          76    0.0192    0.0511    0.0086    0.0859    0.0026   -0.0245    0.0116   -0.0056
          77   -0.0117    0.1575    0.0199    0.0203   -0.0077    0.0441   -0.0085   -0.0057
          78    0.0053   -0.0491   -0.0007   -0.0127    0.0032   -0.0535    0.0139   -0.0028
          79    0.0131    0.0818    0.0091    0.0776   -0.0024   -0.0049    0.0086    0.0020
          80    0.0050   -0.0388   -0.0148   -0.0529    0.0016   -0.0116    0.0050   -0.0180
          81    0.0257   -0.0323    0.1080   -0.0747   -0.0043    0.0405   -0.0112    0.0012
          82    0.0246    0.0264    0.0869   -0.0786   -0.0058    0.0069    0.0002   -0.0030
          83   -0.0069    0.0301   -0.0161   -0.0280    0.0205   -0.1436    0.0488   -0.0048
          84    0.0269   -0.0702    0.0762   -0.0402   -0.0205    0.1282   -0.0324   -0.0013
          85    0.0031   -0.1095   -0.0479    0.1069   -0.0255    0.1309   -0.0521    0.0140
          86    0.0043   -0.1718   -0.0301    0.0858   -0.0314    0.1963   -0.0513   -0.0066
          87    0.0002    0.0682   -0.0001   -0.0790    0.0382   -0.2695    0.0777   -0.0042
          88    0.0161   -0.0525    0.0470   -0.0828   -0.0023    0.0135   -0.0110   -0.0016
          89   -0.0227   -0.2209   -0.2000    0.2630   -0.0018    0.0449   -0.0150    0.0055
          90   -0.0089    0.1489    0.0391   -0.0903   -0.0009   -0.0721    0.0116   -0.0011
          91    0.0186   -0.0106    0.0094    0.0520    0.0098   -0.0752    0.0287    0.0024
          92   -0.0270   -0.0339   -0.0167   -0.2374    0.0214   -0.1052    0.0257   -0.0180
          93   -0.0044    0.1013    0.0244   -0.0468    0.0154   -0.2031    0.0551    0.0005
          94    0.0261   -0.3613   -0.1308    0.1424    0.0415   -0.2423    0.0791   -0.0202
          95   -0.0335    0.1266   -0.0928    0.2225   -0.0383    0.2535   -0.0798    0.0239
          96   -0.0056   -0.1402   -0.1382    0.2329   -0.0107    0.0198   -0.0159    0.0084
          97    0.0598   -0.0291    0.1557   -0.0810   -0.0048    0.0763   -0.0205   -0.0329
          98   -0.0183    0.0073   -0.0499    0.0069    0.0121   -0.1007    0.0374   -0.0048
          99   -0.0023    0.1038    0.0098    0.0508   -0.0107    0.0395   -0.0165    0.0037
         100    0.0153    0.0415   -0.1127    0.3118    0.0143   -0.1613    0.0583   -0.0326
         101   -0.0262    0.4277    0.0874    0.0366   -0.0386    0.2594   -0.0745    0.0090
         102   -0.0047    0.1298    0.0058    0.0880   -0.0138    0.0443   -0.0136   -0.0019
         103    0.0326    0.3075    0.1300    0.3178   -0.0066    0.0305    0.0070    0.0090
         104    0.0084   -0.2666   -0.0483   -0.2788   -0.0347    0.1794   -0.0412   -0.0391
         105    0.0352   -0.0741    0.1331   -0.1038   -0.0246    0.1622   -0.0412   -0.0112
         106    0.0242    0.0930    0.1321   -0.2012    0.0115   -0.0925    0.0303   -0.0036
         107   -0.0030   -0.0614   -0.0836    0.1893   -0.0165    0.0642   -0.0085   -0.0071
         108    0.0240    0.0614    0.0603    0.0184   -0.0200    0.1360   -0.0305   -0.0123
         109    0.0528   -0.1680    0.1906   -0.1661   -0.0706    0.4194   -0.1266   -0.0059
         110    0.0030    0.0367    0.1013   -0.1566    0.0205   -0.2091    0.0936    0.0110
         111    0.0275   -0.0058    0.1476   -0.1264   -0.0042   -0.0219    0.0314    0.0140
[...]
 FREQUENCY          1380.31         N 27 -- H 39         +11.6% ( 42.2%)     10.0%
 TRANSITION DIPOLE   0.3560         H 39 -- O 40         +10.1% ( 39.3%)      1.6%
 TRAVEL (Ang.)       0.5071         N 27 -- H 35          +7.8% ( 34.6%)      3.5%
 REDUCED MASS        0.1900         C 26 -- H 34          +6.4% ( 31.3%)      3.3%
 EFFECTIVE MASS      4.0106
 FORCE CONSTANT      0.2133

 VIBRATION         83   83A           ATOM PAIR      ENERGY CONTRIBUTION    RADIAL
 FREQUENCY          1383.24         C  2 -- C  3          +9.9% ( 42.2%)     95.8%
 TRANSITION DIPOLE   0.7857         C  3 -- C  4          +9.2% ( 40.7%)     94.2%
 TRAVEL (Ang.)       0.3043         C  1 -- C  6          +8.0% ( 38.0%)     95.9%
 REDUCED MASS        0.5265         C  1 -- C  2          +7.6% ( 37.0%)     97.8%
 EFFECTIVE MASS      5.7192
 FORCE CONSTANT      0.5935

 VIBRATION         84   84A           ATOM PAIR      ENERGY CONTRIBUTION    RADIAL
 FREQUENCY          1391.07         C 15 -- H 16         +14.4% ( 45.9%)      0.1%
 TRANSITION DIPOLE   0.9401         C  3 -- C 14         +13.4% ( 44.4%)     97.9%
 TRAVEL (Ang.)       0.3104         C 15 -- H 17          +9.4% ( 37.1%)      1.0%
 REDUCED MASS        0.5032         C 15 -- H 18          +8.0% ( 34.3%)      2.2%
 EFFECTIVE MASS      5.3069
 FORCE CONSTANT      0.5737

 VIBRATION         85   85A           ATOM PAIR      ENERGY CONTRIBUTION    RADIAL
 FREQUENCY          1467.71         N 27 -- H 35         +34.2% ( 64.1%)      0.2%
 TRANSITION DIPOLE   0.7178         N 27 -- H 39         +23.4% ( 53.1%)      0.8%
 TRAVEL (Ang.)       0.3537         H 39 -- O 40         +19.1% ( 47.9%)      0.9%
 REDUCED MASS        0.3673         N 24 -- H 30         +10.8% ( 36.0%)      1.5%
 EFFECTIVE MASS      1.9720
 FORCE CONSTANT      0.4661

 VIBRATION         86   86A           ATOM PAIR      ENERGY CONTRIBUTION    RADIAL
 FREQUENCY          1477.05         N 24 -- H 30         +44.8% ( 72.8%)      1.2%
 TRANSITION DIPOLE   0.3921         N 27 -- H 39          +9.7% ( 33.9%)      1.0%
 TRAVEL (Ang.)       0.2982         H 39 -- O 40          +9.0% ( 32.6%)      0.0%
 REDUCED MASS        0.5135         C 23 -- C 28          +7.9% ( 30.7%)     97.1%
 EFFECTIVE MASS      2.7620
 FORCE CONSTANT      0.6601

 VIBRATION         87   87A           ATOM PAIR      ENERGY CONTRIBUTION    RADIAL
 FREQUENCY          1483.36         N 11 -- O 12         +28.1% ( 74.4%)     66.2%
 TRANSITION DIPOLE   6.9691         N 11 -- O 13         +27.1% ( 73.1%)     62.8%
 TRAVEL (Ang.)       0.1039         C  5 -- N 11         +17.9% ( 59.4%)     99.7%
 REDUCED MASS        4.2109         O 12 -- O 13         +14.9% ( 54.2%)    100.0%
 EFFECTIVE MASS     14.3766
 FORCE CONSTANT      5.4590

 VIBRATION         88   88A           ATOM PAIR      ENERGY CONTRIBUTION    RADIAL
 FREQUENCY          1502.69         N 27 -- H 35         +27.1% ( 60.0%)      0.0%
 TRANSITION DIPOLE   1.2702         N 27 -- H 39         +25.1% ( 57.8%)      7.3%
 TRAVEL (Ang.)       0.3502         H 39 -- O 40         +20.0% ( 51.5%)      2.6%
 REDUCED MASS        0.3659         N 24 -- H 30          +6.9% ( 30.3%)      0.0%
 EFFECTIVE MASS      2.7365
 FORCE CONSTANT      0.4868

 VIBRATION         89   89A           ATOM PAIR      ENERGY CONTRIBUTION    RADIAL
 FREQUENCY          1505.59         C  4 -- C  5         +12.4% ( 48.5%)     99.8%
 TRANSITION DIPOLE   1.1828         C  1 -- C  2         +10.5% ( 44.7%)     99.8%
 TRAVEL (Ang.)       0.1993         C  5 -- C  6         +10.3% ( 44.3%)     15.6%
 REDUCED MASS        1.1276         C  6 -- H 10          +9.5% ( 42.5%)      0.0%
 EFFECTIVE MASS      9.9575
 FORCE CONSTANT      1.5060

 VIBRATION         90   90A           ATOM PAIR      ENERGY CONTRIBUTION    RADIAL
 FREQUENCY          1537.77         C 23 -- N 24         +40.3% ( 90.0%)     99.0%
 TRANSITION DIPOLE   2.8251         C 23 -- C 28         +14.5% ( 53.9%)     54.5%
 TRAVEL (Ang.)       0.0963         N 24 -- H 30         +13.9% ( 52.9%)      9.3%
 REDUCED MASS        4.7291         N 24 -- C 25         +13.2% ( 51.5%)     35.5%
 EFFECTIVE MASS     11.2132         C 23 -- H 29         +13.0% ( 51.2%)      8.7%
 FORCE CONSTANT      6.5889

 VIBRATION         91   91A           ATOM PAIR      ENERGY CONTRIBUTION    RADIAL
 FREQUENCY          1547.47         C  2 -- C  3         +16.4% ( 57.2%)     55.4%
 TRANSITION DIPOLE   1.6270         C  3 -- C  4         +15.5% ( 55.6%)     68.2%
 TRAVEL (Ang.)       0.1667         C  3 -- C 14         +12.0% ( 48.8%)     99.4%
 REDUCED MASS        1.5683         C  5 -- C  6          +8.1% ( 40.2%)     79.1%
 EFFECTIVE MASS     10.0993
 FORCE CONSTANT      2.2127

 VIBRATION         92   92A           ATOM PAIR      ENERGY CONTRIBUTION    RADIAL
 FREQUENCY          1600.36         N 19 -- O 21         +31.7% ( 79.1%)     68.6%
 TRANSITION DIPOLE   4.2732         N 19 -- O 20         +26.5% ( 72.3%)     50.3%
 TRAVEL (Ang.)       0.0901         C 14 -- N 19         +23.5% ( 68.1%)     99.1%
 REDUCED MASS        5.1914         O 20 -- O 21         +10.4% ( 45.3%)     99.6%
 EFFECTIVE MASS     14.2113
 FORCE CONSTANT      7.8338

 VIBRATION         93   93A           ATOM PAIR      ENERGY CONTRIBUTION    RADIAL
 FREQUENCY          1648.92         N 11 -- O 12         +32.7% ( 81.4%)     90.6%
 TRANSITION DIPOLE  10.8549         N 11 -- O 13         +31.2% ( 79.5%)     87.0%
 TRAVEL (Ang.)       0.0864         C  5 -- N 11         +19.1% ( 62.2%)      0.1%
 REDUCED MASS        5.4731         O 12 -- O 13          +5.7% ( 34.1%)      0.4%
 EFFECTIVE MASS     14.3589
 FORCE CONSTANT      8.7676

 VIBRATION         94   94A           ATOM PAIR      ENERGY CONTRIBUTION    RADIAL
 FREQUENCY          1660.95         C  1 -- C  6         +20.8% ( 64.3%)     99.9%
 TRANSITION DIPOLE   4.1367         C  3 -- C  4         +11.9% ( 48.6%)     98.4%
 TRAVEL (Ang.)       0.1356         C  1 -- C  2          +9.1% ( 42.5%)     25.7%
 REDUCED MASS        2.2084         C  5 -- C  6          +8.7% ( 41.5%)     49.6%
 EFFECTIVE MASS     12.3133
 FORCE CONSTANT      3.5895

 VIBRATION         95   95A           ATOM PAIR      ENERGY CONTRIBUTION    RADIAL
 FREQUENCY          1669.63         N 19 -- O 20         +26.0% ( 72.4%)     90.1%
 TRANSITION DIPOLE   6.5253         N 19 -- O 21         +24.2% ( 69.9%)     86.6%
 TRAVEL (Ang.)       0.1067         C 14 -- N 19         +14.6% ( 54.2%)      0.2%
 REDUCED MASS        3.5455         C  4 -- C  5          +5.6% ( 33.5%)     91.0%
 EFFECTIVE MASS     13.8893
 FORCE CONSTANT      5.8233

 VIBRATION         96   96A           ATOM PAIR      ENERGY CONTRIBUTION    RADIAL
 FREQUENCY          1677.88         C  5 -- C  6         +12.1% ( 49.4%)     89.6%
 TRANSITION DIPOLE   5.0924         C  4 -- C  5         +11.8% ( 48.7%)     87.9%
 TRAVEL (Ang.)       0.1473         N 19 -- O 20         +11.8% ( 48.7%)     96.1%
 REDUCED MASS        1.8517         C  1 -- C  2          +9.3% ( 43.3%)     89.8%
 EFFECTIVE MASS     12.7603
 FORCE CONSTANT      3.0714

 VIBRATION         97   97A           ATOM PAIR      ENERGY CONTRIBUTION    RADIAL
 FREQUENCY          1803.91         N 27 -- H 39         +50.4% ( 91.3%)     94.5%
 TRANSITION DIPOLE   5.0843         H 39 -- O 40         +42.1% ( 83.5%)     86.1%
 TRAVEL (Ang.)       0.2154         N 27 -- H 35          +2.0% ( 18.2%)     19.2%
 REDUCED MASS        0.8054         H 38 -- O 40          +1.9% ( 17.8%)     42.1%
 EFFECTIVE MASS      2.0070
 FORCE CONSTANT      1.5441

 VIBRATION         98   98A           ATOM PAIR      ENERGY CONTRIBUTION    RADIAL
 FREQUENCY          2574.39         C 28 -- H 36         +48.3% ( 72.1%)     98.4%
 TRANSITION DIPOLE   1.3885         C 28 -- H 37         +48.2% ( 72.1%)     98.2%
 TRAVEL (Ang.)       0.2339         N 27 -- H 35          +1.7% ( 13.7%)     99.6%
 REDUCED MASS        0.4788         N 27 -- C 28          +0.9% (  9.9%)      0.1%
 EFFECTIVE MASS      1.4224
 FORCE CONSTANT      1.8697

 VIBRATION         99   99A           ATOM PAIR      ENERGY CONTRIBUTION    RADIAL
 FREQUENCY          2593.92         C 25 -- H 32         +44.3% ( 69.2%)     98.4%
 TRANSITION DIPOLE   0.9223         C 25 -- H 31         +38.9% ( 64.8%)     98.1%
 TRAVEL (Ang.)       0.2655         C 26 -- H 34          +7.9% ( 29.1%)     98.2%
 REDUCED MASS        0.3687         C 26 -- H 33          +6.0% ( 25.4%)     98.3%
 EFFECTIVE MASS      1.4183
 FORCE CONSTANT      1.4618

 VIBRATION        100  100A           ATOM PAIR      ENERGY CONTRIBUTION    RADIAL
 FREQUENCY          2613.91         C 26 -- H 33         +45.8% ( 70.2%)     98.6%
 TRANSITION DIPOLE   1.0489         C 26 -- H 34         +33.1% ( 59.6%)     97.3%
 TRAVEL (Ang.)       0.2738         C 25 -- H 31          +8.1% ( 29.5%)     98.2%
 REDUCED MASS        0.3440         N 27 -- H 35          +5.5% ( 24.2%)    100.0%
 EFFECTIVE MASS      1.4516
 FORCE CONSTANT      1.3850

 VIBRATION        101  101A           ATOM PAIR      ENERGY CONTRIBUTION    RADIAL
 FREQUENCY          2652.73         C 15 -- H 17         +71.9% ( 87.4%)     99.7%
 TRANSITION DIPOLE   0.6701         C 15 -- H 16         +16.8% ( 42.2%)     87.5%
 TRAVEL (Ang.)       0.2110         C 15 -- H 18         +10.4% ( 33.2%)     78.9%
 REDUCED MASS        0.5708         C 14 -- C 15          +0.9% (  9.6%)      0.1%
 EFFECTIVE MASS      1.4410
 FORCE CONSTANT      2.3667

 VIBRATION        102  102A           ATOM PAIR      ENERGY CONTRIBUTION    RADIAL
 FREQUENCY          2655.51         N 27 -- H 35         +86.9% ( 93.8%)     99.9%
 TRANSITION DIPOLE   1.8661         C 28 -- H 37          +3.7% ( 19.4%)     98.7%
 TRAVEL (Ang.)       0.1852         C 26 -- H 33          +3.7% ( 19.3%)     97.1%
 REDUCED MASS        0.7401         C 26 -- H 34          +1.9% ( 14.0%)     96.2%
 EFFECTIVE MASS      1.3517
 FORCE CONSTANT      3.0750

 VIBRATION        103  103A           ATOM PAIR      ENERGY CONTRIBUTION    RADIAL
 FREQUENCY          2661.02         N 24 -- H 30         +88.4% ( 94.8%)     99.5%
 TRANSITION DIPOLE   1.8629         C 23 -- H 29          +5.6% ( 23.8%)     96.9%
 TRAVEL (Ang.)       0.1824         C 25 -- H 32          +1.6% ( 12.8%)     98.4%
 REDUCED MASS        0.7617         C 28 -- H 37          +1.3% ( 11.3%)     97.9%
 EFFECTIVE MASS      1.3611
 FORCE CONSTANT      3.1778

 VIBRATION        104  104A           ATOM PAIR      ENERGY CONTRIBUTION    RADIAL
 FREQUENCY          2667.02         C 15 -- H 18         +51.7% ( 74.2%)     98.4%
 TRANSITION DIPOLE   0.6358         C 15 -- H 16         +46.1% ( 70.0%)     97.5%
 TRAVEL (Ang.)       0.2260         C 15 -- H 17          +1.2% ( 11.1%)      9.4%
 REDUCED MASS        0.4949         C 14 -- C 15          +0.9% (  9.7%)      0.0%
 EFFECTIVE MASS      1.4419
 FORCE CONSTANT      2.0741

 VIBRATION        105  105A           ATOM PAIR      ENERGY CONTRIBUTION    RADIAL
 FREQUENCY          2680.61         C 28 -- H 36         +45.7% ( 66.2%)     96.9%
 TRANSITION DIPOLE   1.6784         C 28 -- H 37         +41.8% ( 63.3%)     96.4%
 TRAVEL (Ang.)       0.2569         C 25 -- H 31          +2.9% ( 16.8%)     97.6%
 REDUCED MASS        0.3813         C 25 -- H 32          +2.5% ( 15.3%)     96.3%
 EFFECTIVE MASS      1.2409
 FORCE CONSTANT      1.6143

 VIBRATION        106  106A           ATOM PAIR      ENERGY CONTRIBUTION    RADIAL
 FREQUENCY          2697.72         C 25 -- H 32         +37.9% ( 60.4%)     96.4%
 TRANSITION DIPOLE   1.1846         C 25 -- H 31         +35.9% ( 58.8%)     96.3%
 TRAVEL (Ang.)       0.2909         C 26 -- H 34         +14.9% ( 37.9%)     97.6%
 REDUCED MASS        0.2955         C 26 -- H 33          +6.3% ( 24.7%)     89.6%
 EFFECTIVE MASS      1.2628
 FORCE CONSTANT      1.2669

 VIBRATION        107  107A           ATOM PAIR      ENERGY CONTRIBUTION    RADIAL
 FREQUENCY          2706.00         C  4 -- H  9         +85.3% ( 93.3%)    100.0%
 TRANSITION DIPOLE   1.4843         C  2 -- H  8          +7.5% ( 27.7%)    100.0%
 TRAVEL (Ang.)       0.1870         C  6 -- H 10          +3.5% ( 18.9%)     99.9%
 REDUCED MASS        0.7128         C  3 -- C  4          +0.9% (  9.6%)     22.1%
 EFFECTIVE MASS      1.3726
 FORCE CONSTANT      3.0753

 VIBRATION        108  108A           ATOM PAIR      ENERGY CONTRIBUTION    RADIAL
 FREQUENCY          2707.64         C 26 -- H 34         +39.4% ( 61.5%)     96.8%
 TRANSITION DIPOLE   1.3778         C 26 -- H 33         +34.5% ( 57.5%)     96.2%
 TRAVEL (Ang.)       0.2951         C 25 -- H 31         +10.0% ( 31.0%)     98.4%
 REDUCED MASS        0.2860         C 25 -- H 32          +5.7% ( 23.4%)     93.8%
 EFFECTIVE MASS      1.2183
 FORCE CONSTANT      1.2352

 VIBRATION        109  109A           ATOM PAIR      ENERGY CONTRIBUTION    RADIAL
 FREQUENCY          2711.15         C  2 -- H  8         +78.4% ( 89.4%)    100.0%
 TRANSITION DIPOLE   1.4009         C  6 -- H 10         +14.4% ( 38.3%)    100.0%
 TRAVEL (Ang.)       0.2007         C  4 -- H  9          +3.2% ( 18.1%)    100.0%
 REDUCED MASS        0.6176         C  1 -- H  7          +1.5% ( 12.5%)     97.6%
 EFFECTIVE MASS      1.3719
 FORCE CONSTANT      2.6747

 VIBRATION        110  110A           ATOM PAIR      ENERGY CONTRIBUTION    RADIAL
 FREQUENCY          2715.06         C  6 -- H 10         +71.9% ( 85.8%)    100.0%
 TRANSITION DIPOLE   0.6700         C  1 -- H  7         +12.9% ( 36.3%)     99.9%
 TRAVEL (Ang.)       0.2168         C  2 -- H  8          +6.9% ( 26.6%)     99.9%
 REDUCED MASS        0.5285         C  4 -- H  9          +6.0% ( 24.9%)     99.9%
 EFFECTIVE MASS      1.3986
 FORCE CONSTANT      2.2954

 VIBRATION        111  111A           ATOM PAIR      ENERGY CONTRIBUTION    RADIAL
 FREQUENCY          2735.15         C 23 -- H 29         +87.1% ( 93.6%)    100.0%
 TRANSITION DIPOLE   1.2840         N 24 -- H 30          +6.4% ( 25.3%)     98.9%
 TRAVEL (Ang.)       0.1838         C 25 -- H 31          +1.3% ( 11.6%)     97.9%
 REDUCED MASS        0.7294         C 23 -- N 24          +0.9% (  9.8%)     40.1%
 EFFECTIVE MASS      1.3815
 FORCE CONSTANT      3.2149

 VIBRATION        112  112A           ATOM PAIR      ENERGY CONTRIBUTION    RADIAL
 FREQUENCY          2737.97         C  1 -- H  7         +83.5% ( 92.2%)    100.0%
 TRANSITION DIPOLE   1.2752         C  6 -- H 10          +7.7% ( 28.0%)     99.6%
 TRAVEL (Ang.)       0.1893         C  2 -- H  8          +4.8% ( 22.1%)     99.4%
 REDUCED MASS        0.6871         C  4 -- H  9          +1.5% ( 12.5%)    100.0%
 EFFECTIVE MASS      1.4136
 FORCE CONSTANT      3.0348

 VIBRATION        113  113A           ATOM PAIR      ENERGY CONTRIBUTION    RADIAL
 FREQUENCY          2771.48         C 15 -- H 18         +34.8% ( 56.8%)     96.6%
 TRANSITION DIPOLE   0.3771         C 15 -- H 16         +33.4% ( 55.6%)     96.5%
 TRAVEL (Ang.)       0.2898         C 15 -- H 17         +23.1% ( 46.3%)     94.0%
 REDUCED MASS        0.2897         H 38 -- O 40          +8.2% ( 27.5%)    100.0%
 EFFECTIVE MASS      1.1518
 FORCE CONSTANT      1.3109

 VIBRATION        114  114A           ATOM PAIR      ENERGY CONTRIBUTION    RADIAL
 FREQUENCY          2777.32         H 38 -- O 40         +91.2% ( 94.7%)    100.0%
 TRANSITION DIPOLE   1.0905         C 15 -- H 16          +2.9% ( 17.0%)     96.9%
 TRAVEL (Ang.)       0.1763         C 15 -- H 18          +2.5% ( 15.8%)     96.0%
 REDUCED MASS        0.7810         C 15 -- H 17          +1.7% ( 13.1%)     93.4%
 EFFECTIVE MASS      1.3412
 FORCE CONSTANT      3.5492

      SYMMETRY NUMBER FOR POINT-GROUP C1  =  1


          SYSTEM IS A GROUND STATE



 Title: ASE calculation


          MOLECULE IS NOT LINEAR

          THERE ARE  114 GENUINE VIBRATIONS IN THIS SYSTEM
          THIS THERMODYNAMICS CALCULATION IS LIMITED TO
          MOLECULES WHICH HAVE NO INTERNAL ROTATIONS




                    CALCULATED THERMODYNAMIC PROPERTIES
                                          *
   TEMP. (K)   PARTITION FUNCTION   H.O.F.    ENTHALPY  HEAT CAPACITY ENTROPY
                                   KCAL/MOL   CAL/MOLE    CAL/K/MOL  CAL/K/MOL


 298.00  VIB.     0.1037D+10                 12182.0424    75.4857    82.1328
         ROT.     0.1201D+08                   888.2803     2.9808    35.3755
         INT.     0.1246D+17                 13070.3227    78.4665   117.5084
         TRA.     0.5031D+28                  1480.4672     4.9680    42.9936
         TOT.                      -51.024   14550.7898    83.4345   160.5020

   *: NOTE: HEATS OF FORMATION ARE RELATIVE TO THE
            ELEMENTS IN THEIR STANDARD STATE AT 298K
              (=  Standard Enthalpy of Formation).

            Hvib:  Zero-point energy is not included.
                   frequencies of less than zero cm-1 are not included.
            Hrot = (3/2)RT
            Htra = (3/2)RT + pV = (5/2)RT

            Heat capacity is Cp, not Cv

          For more information, see: HTTP://OpenMOPAC.net/Manual/thermochemistry.html


           FORCE CONSTANT IN CARTESIAN COORDINATES (Millidynes/A)

    ATOM   CHEMICAL       X               Y               Z
   NUMBER   SYMBOL  FORCE CONSTANT  FORCE CONSTANT  FORCE CONSTANT

      1       C       10.897893       10.051193        1.967088
      2       C       10.776177        9.607354        2.115227
      3       C       10.658917       11.009861        2.713248
      4       C       10.599505        9.653573        2.169772
      5       C       11.543382       10.251150        2.040213
      6       C        9.672471       11.472189        1.947111
      7       H        1.712276        3.384249        0.361417
      8       H        1.705107        3.356808        0.382679
      9       H        1.712651        3.297306        0.349272
     10       H        4.126189        0.899683        0.344568
     11       N       13.864362       12.191434        2.659695
     12       O       11.829031        1.692153        0.277396
     13       O        4.253353        9.274797        0.320677
     14       C        8.642324        3.417760        8.774435
     15       C        6.369611        6.172487        6.850105
     16       H        4.042992        0.631990        0.722114
     17       H        0.698593        3.921047        0.678867
     18       H        1.021789        1.126064        3.253095
     19       N       14.677663       -0.705145       12.641885
     20       O       12.170969       -0.387654        1.040370
     21       O        4.853632       -0.279540        8.123401
     22       H        0.587855       -0.070569        0.834061
     23       C        9.511642        5.835348        6.581974
     24       N       10.086255        5.078730        6.924741
     25       C        6.776628        6.792233        6.613501
     26       C        6.730241        6.752194        6.858359
     27       N        7.757764        7.222023        7.384928
     28       C        6.670373        6.700255        6.722801
     29       H        0.936829        1.760863        2.706496
     30       H        2.752727        1.233400        1.424064
     31       H        3.840719        0.893115        0.650170
     32       H        0.607676        1.357458        3.357373
     33       H        0.964872        1.865625        2.548463
     34       H        1.114043        1.573187        2.775771
     35       H        1.280059        1.514604        3.124873
     36       H        3.117549        1.346312        0.761838
     37       H        0.635115        1.847280        2.689519
     38       H        0.582580        0.524667        3.841201
     39       H        1.317232        1.281881        1.007591
     40       O        0.558166        0.801908        3.847483

 **********************
 *                    *
 * JOB ENDED NORMALLY *
 *                    *
 **********************



 TOTAL JOB TIME:            22.35 SECONDS

 == MOPAC DONE ==
