 *******************************************************************************
 **                                                                           **
 **                              MOPAC v22.0.6                                **
 **                                                                           **
 *******************************************************************************
 **          Digital Object Identifier (DOI): 10.5281/zenodo.6511958          **
 **    Visit the DOI location for information on how to cite this program.    **
 *******************************************************************************

                              PM7 CALCULATION RESULTS

 *******************************************************************************
 *  CALCULATION DONE:                                Tue Mar 26 11:24:51 2024  *
 *  PM7        - The PM7 Hamiltonian to be used
 *  DOUBLET    - SPIN STATE DEFINED AS A DOUBLET
 *
 *
 *
 *                 CHARGE ON SYSTEM = 0
 *
 *
 *
 *  EPS=78.4   - USE ANDREAS KLAMT'S COSMO IMPLICIT SOLVATION MODEL
 *  LET        - OVERRIDE SOME SAFETY CHECKS
 *  THREADS    - USE A MAXIMUM OF 30 THREADS
 *  T=         - A TIME OF 14.0 DAYS REQUESTED
 *  DUMP=N     - RESTART FILE WRITTEN EVERY 30.0 MINUTES REQUESTED
 *  RELSCF     - DEFAULT SCF CRITERION MULTIPLIED BY 1.0000
 *              (DEFAULT SCF CRITERION = 0.00010)
 *  ITRY=      - DO A MAXIMUM OF 15000 ITERATIONS FOR SCF
 *  AUX        - OUTPUT AUXILIARY INFORMATION
 *  ISOTOPE    - SAVE THE FORCE MATRIX FOR USE LATER
 *  BONDS      - FINAL BOND-ORDER MATRIX TO BE PRINTED
 *  LARGE      - EXPANDED OUTPUT TO BE PRINTED
 *  THERMO     - THERMODYNAMIC QUANTITIES TO BE CALCULATED
 *******************************************************************************
PM7 AUX LARGE THERMO(298,298) LET ISOTOPE BONDS DUMP=30M ITRY=15000 T=14D THREADS=30 CHARGE=0 DOUBLET eps=78.4 RELSCF=1
 Title: ASE calculation

   ATOM   CHEMICAL          X               Y               Z
  NUMBER   SYMBOL      (ANGSTROMS)     (ANGSTROMS)     (ANGSTROMS)

     1       C         -0.35231209  *   1.00331070  *   1.08992910  *
     2       C          1.02631213  *   0.79867971  *   1.06966052  *
     3       C          1.55789936  *  -0.38708181  *   0.55311952  *
     4       C          0.70921287  *  -1.37021865  *   0.04801245  *
     5       C         -0.67137087  *  -1.14792865  *   0.07001007  *
     6       C         -1.21445899  *   0.03383078  *   0.58994954  *
     7       H         -0.75794022  *   1.93161118  *   1.50176907  *
     8       H          1.69274996  *   1.57747056  *   1.46582836  *
     9       H          1.11637014  *  -2.30418956  *  -0.36234992  *
    10       H         -2.29932015  *   0.19516988  *   0.60209045  *
    11       N         -1.55470357  *  -2.16210130  *  -0.44984139  *
    12       O         -2.76306556  *  -1.96497189  *  -0.43627987  *
    13       O         -1.07780083  *  -3.19888854  *  -0.89291930  *
    14       C          3.04748084  *  -0.59418930  *   0.57975912  *
    15       C          3.43765975  *  -1.87581895  *   1.30565005  *
    16       H          4.52783908  *  -1.98270965  *   1.40705952  *
    17       H          3.06302076  *  -2.78328933  *   0.80866072  *
    18       H          3.02623094  *  -1.88043139  *   2.32847135  *
    19       N          3.55718945  *  -0.66654824  *  -0.83271536  *
    20       O          4.38699488  *   0.15625627  *  -1.18556111  *
    21       O          3.13708535  *  -1.53352592  *  -1.57844362  *
    22       D          3.56585875  *   0.29011002  *   1.07255151  *
    23       C          5.92028879  *   4.68183803  *   5.93437053  *
    24       N          7.19528123  *   4.95587037  *   5.53371896  *
    25       C          7.64393972  *   4.53775969  *   4.19394021  *
    26       C          6.67680025  *   3.52662976  *   3.54347083  *
    27       N          5.27674202  *   3.99926877  *   3.60771079  *
    28       C          4.86278968  *   4.16140874  *   5.02503061  *
    29       H          5.66382022  *   4.84391038  *   6.96975892  *
    30       H          7.92114013  *   4.92066182  *   6.24839939  *
    31       H          8.66883965  *   4.10882997  *   4.24857937  *
    32       H          7.71870909  *   5.45383012  *   3.56063091  *
    33       H          6.95269826  *   3.35852041  *   2.47934894  *
    34       H          6.74625015  *   2.54020756  *   4.05211885  *
    35       H          5.18887074  *   4.89396989  *   3.11190086  *
    36       H          3.95917032  *   4.81505991  *   5.06145954  *
    37       H          4.52777816  *   3.15668906  *   5.38875132  *
    38       H          3.40773110  *   1.29322885  *   3.37652179  *
    39       H          4.20003934  *   2.52679990  *   2.92515852  *
    40       O          3.59559918  *   1.82879083  *   2.60253887  *


                                Isotopes Used

              Atom:   22  H  Default mass  1.0079,  mass used:  2.0140 amu


          CARTESIAN COORDINATES 

    NO.       ATOM           X           Y           Z

     1         C         -0.3523      1.0033      1.0899
     2         C          1.0263      0.7987      1.0697
     3         C          1.5579     -0.3871      0.5531
     4         C          0.7092     -1.3702      0.0480
     5         C         -0.6714     -1.1479      0.0700
     6         C         -1.2145      0.0338      0.5899
     7         H         -0.7579      1.9316      1.5018
     8         H          1.6927      1.5775      1.4658
     9         H          1.1164     -2.3042     -0.3623
    10         H         -2.2993      0.1952      0.6021
    11         N         -1.5547     -2.1621     -0.4498
    12         O         -2.7631     -1.9650     -0.4363
    13         O         -1.0778     -3.1989     -0.8929
    14         C          3.0475     -0.5942      0.5798
    15         C          3.4377     -1.8758      1.3057
    16         H          4.5278     -1.9827      1.4071
    17         H          3.0630     -2.7833      0.8087
    18         H          3.0262     -1.8804      2.3285
    19         N          3.5572     -0.6665     -0.8327
    20         O          4.3870      0.1563     -1.1856
    21         O          3.1371     -1.5335     -1.5784
    22         H          3.5659      0.2901      1.0726
    23         C          5.9203      4.6818      5.9344
    24         N          7.1953      4.9559      5.5337
    25         C          7.6439      4.5378      4.1939
    26         C          6.6768      3.5266      3.5435
    27         N          5.2767      3.9993      3.6077
    28         C          4.8628      4.1614      5.0250
    29         H          5.6638      4.8439      6.9698
    30         H          7.9211      4.9207      6.2484
    31         H          8.6688      4.1088      4.2486
    32         H          7.7187      5.4538      3.5606
    33         H          6.9527      3.3585      2.4793
    34         H          6.7463      2.5402      4.0521
    35         H          5.1889      4.8940      3.1119
    36         H          3.9592      4.8151      5.0615
    37         H          4.5278      3.1567      5.3888
    38         H          3.4077      1.2932      3.3765
    39         H          4.2000      2.5268      2.9252
    40         O          3.5956      1.8288      2.6025

 General Reference for PM7:
 "Optimization of Parameters for Semiempirical Methods VI: More Modifications to the 
 NDDO Approximations and Re-optimization of Parameters", J. J. P. Stewart, J. Mol. Mod., 1:32, 19 (2013)
 https://link.springer.com/article/10.1007/s00894-012-1667-x

           Empirical Formula: C12 H19 N4 O5  =    40 atoms



      MOLECULAR POINT GROUP   :   C1  


 DOUBLET STATE CALCULATION


          UHF CALCULATION, NO. OF ALPHA ELECTRONS =   59
                           NO. OF BETA  ELECTRONS =   58
  SCF CRITERION =    0.1000E-03


          HEAT OF FORMATION =     -67.873876 KCALS/MOLE


          CARTESIAN COORDINATE DERIVATIVES

   NUMBER  ATOM         X            Y            Z

     1       C      0.180184     0.030838    -0.094814
     2       C     -0.183816     0.052959     0.062785
     3       C     -0.072411    -0.181667     0.032264
     4       C     -0.175590     0.212577     0.163034
     5       C      0.119662     0.196481    -0.032634
     6       C     -0.086827     0.010276    -0.093942
     7       H      0.016401     0.059882    -0.122962
     8       H      0.036537    -0.018221    -0.161440
     9       H     -0.020905     0.023026    -0.009733
    10       H      0.001882     0.027461     0.048394
    11       N      0.442099    -0.217012    -0.090102
    12       O     -0.356658    -0.191215     0.053973
    13       O     -0.069506     0.170654     0.041010
    14       C     -0.074503    -0.022804    -0.091102
    15       C      0.048485     0.167351     0.029483
    16       H      0.109404    -0.012396    -0.061923
    17       H     -0.056990     0.051938     0.052182
    18       H     -0.132338    -0.048207     0.122777
    19       N      0.015187     0.317320     0.343885
    20       O     -0.391653     0.693428    -0.225739
    21       O      0.409728    -0.758830    -0.274258
    22       H      0.141313     0.037495     0.134108
    23       C      0.058660    -0.205648     0.029001
    24       N     -0.078550    -0.030787    -0.164701
    25       C     -0.024220    -0.064247     0.058045
    26       C      0.010163    -0.043351     0.078702
    27       N     -0.184536    -0.030951     0.065664
    28       C      0.032518    -0.160681     0.105069
    29       H     -0.031412    -0.007365    -0.094549
    30       H      0.011762     0.303751    -0.006021
    31       H      0.024206    -0.006337    -0.075212
    32       H      0.085442     0.000020     0.082706
    33       H      0.169296    -0.036701    -0.154132
    34       H     -0.036428    -0.217982     0.007699
    35       H     -0.107812    -0.013284     0.143592
    36       H     -0.051228    -0.043237    -0.019357
    37       H      0.184823    -0.001979     0.167494
    38       H     -0.118008     0.022842     0.074368
    39       H      0.035282    -0.065075    -0.121620
    40       O      0.120452    -0.000288    -0.001867

 DIPOLE           X         Y         Z       TOTAL
 POINT-CHG.     4.278    -9.994    -6.785    12.815
 HYBRID         0.627     0.048    -0.023     0.629
 SUM            4.905    -9.946    -6.808    13.013


          GRADIENT NORM =   1.79472


                              **** WARNING ****

           GRADIENT IS VERY LARGE FOR A THERMO CALCULATION
           RESULTS ARE LIKELY TO BE INACCURATE IF THERE ARE
           ANY LOW-LYING VIBRATIONS (LESS THAN ABOUT 400CM-1)
           GRADIENT NORM SHOULD BE LESS THAN ABOUT 1.3 FOR THERMO
           TO GIVE ACCURATE RESULTS


          TIME FOR SCF CALCULATION =    0.31

          TIME FOR DERIVATIVES     =    0.05

          MOLECULAR WEIGHT =  300.31



          ROTATIONAL CONSTANTS IN CM(-1)

          A =    0.01875573   B =    0.00300394   C =    0.00270488



           PRINCIPAL MOMENTS OF INERTIA IN UNITS OF 10**(-40)*GRAM-CM**2

          A =     1492.4904   B =     9318.6805   C =    10348.9905


          ORIENTATION OF MOLECULE IN FORCE CALCULATION

    NO.       ATOM         X         Y         Z

     1          C      -3.0050    0.2872    0.3005
     2          C      -1.6111    0.2872    0.3005
     3          C      -0.9038    1.4934    0.3005
     4          C      -1.5915    2.7054    0.3076
     5          C      -2.9899    2.6891    0.3133
     6          C      -3.7081    1.4866    0.3080
     7          H      -3.5485   -0.6618    0.2943
     8          H      -1.0721   -0.6705    0.2982
     9          H      -1.0457    3.6586    0.3102
    10          H      -4.8050    1.4879    0.3116
    11          N      -3.7071    3.9400    0.3192
    12          O      -4.9314    3.9258    0.3304
    13          O      -3.0768    4.9894    0.3120
    14          C       0.5995    1.4605    0.2623
    15          C       1.1630    2.2510   -0.9121
    16          H       2.2555    2.1525   -0.9958
    17          H       0.9330    3.3257   -0.8578
    18          H       0.7419    1.8832   -1.8623
    19          N       1.1348    2.0472    1.5388
    20          O       1.8399    1.3417    2.2425
    21          O       0.8574    3.1963    1.8335
    22          H       0.9753    0.3883    0.2091
    23          C       2.5885   -5.9191   -2.2570
    24          N       3.8151   -6.1743   -1.7171
    25          C       4.3397   -5.2995   -0.6538
    26          C       3.5411   -3.9849   -0.5322
    27          N       2.0860   -4.2408   -0.4614
    28          C       1.6322   -4.9234   -1.7002
    29          H       2.2960   -6.4633   -3.1415
    30          H       4.5278   -6.5438   -2.3452
    31          H       5.4156   -5.0805   -0.8326
    32          H       4.2884   -5.8658    0.3067
    33          H       3.8541   -3.4260    0.3768
    34          H       3.7472   -3.3233   -1.4020
    35          H       1.8750   -4.8229    0.3575
    36          H       0.6420   -5.3991   -1.5045
    37          H       1.4431   -4.1282   -2.4656
    38          H       0.6381   -1.4563   -1.4711
    39          H       1.2472   -2.4837   -0.5084
    40          O       0.7565   -1.6380   -0.5362


    FIRST DERIVATIVES WILL BE USED IN THE CALCULATION OF SECOND DERIVATIVES

          ESTIMATED TIME TO COMPLETE CALCULATION =       87.19 SECONDS

    FOR POINT-GROUP C1   THERE ARE   1 UNIQUE SYMMETRY FUNCTIONS.

 STEP:   1 TIME =     0.42 SECS, INTEGRAL =      0.42 TIME LEFT:1209599.22
 STEP:   2 TIME =     0.18 SECS, INTEGRAL =      0.60 TIME LEFT:1209599.04
 STEP:   3 TIME =     0.18 SECS, INTEGRAL =      0.78 TIME LEFT:1209598.86
 STEP:   4 TIME =     0.19 SECS, INTEGRAL =      0.97 TIME LEFT:1209598.66
 STEP:   5 TIME =     0.20 SECS, INTEGRAL =      1.17 TIME LEFT:1209598.47
 STEP:   6 TIME =     0.21 SECS, INTEGRAL =      1.38 TIME LEFT:1209598.26
 STEP:   7 TIME =     0.19 SECS, INTEGRAL =      1.56 TIME LEFT:1209598.07
 STEP:   8 TIME =     0.18 SECS, INTEGRAL =      1.75 TIME LEFT:1209597.89
 STEP:   9 TIME =     0.19 SECS, INTEGRAL =      1.94 TIME LEFT:1209597.70
 STEP:  10 TIME =     0.23 SECS, INTEGRAL =      2.17 TIME LEFT:1209597.46
 STEP:  11 TIME =     0.20 SECS, INTEGRAL =      2.38 TIME LEFT:1209597.26
 STEP:  12 TIME =     0.18 SECS, INTEGRAL =      2.55 TIME LEFT:1209597.09
 STEP:  13 TIME =     0.18 SECS, INTEGRAL =      2.73 TIME LEFT:1209596.90
 STEP:  14 TIME =     0.19 SECS, INTEGRAL =      2.93 TIME LEFT:1209596.71
 STEP:  15 TIME =     0.24 SECS, INTEGRAL =      3.17 TIME LEFT:1209596.47
 STEP:  16 TIME =     0.20 SECS, INTEGRAL =      3.36 TIME LEFT:1209596.27
 STEP:  17 TIME =     0.19 SECS, INTEGRAL =      3.55 TIME LEFT:1209596.08
 STEP:  18 TIME =     0.19 SECS, INTEGRAL =      3.75 TIME LEFT:1209595.89
 STEP:  19 TIME =     0.18 SECS, INTEGRAL =      3.92 TIME LEFT:1209595.71
 STEP:  20 TIME =     0.17 SECS, INTEGRAL =      4.09 TIME LEFT:1209595.54
 STEP:  21 TIME =     0.19 SECS, INTEGRAL =      4.29 TIME LEFT:1209595.35
 STEP:  22 TIME =     0.18 SECS, INTEGRAL =      4.46 TIME LEFT:1209595.17
 STEP:  23 TIME =     0.20 SECS, INTEGRAL =      4.66 TIME LEFT:1209594.98
 STEP:  24 TIME =     0.18 SECS, INTEGRAL =      4.84 TIME LEFT:1209594.80
 STEP:  25 TIME =     0.18 SECS, INTEGRAL =      5.01 TIME LEFT:1209594.62
 STEP:  26 TIME =     0.18 SECS, INTEGRAL =      5.19 TIME LEFT:1209594.45
 STEP:  27 TIME =     0.19 SECS, INTEGRAL =      5.38 TIME LEFT:1209594.26
 STEP:  28 TIME =     0.18 SECS, INTEGRAL =      5.56 TIME LEFT:1209594.08
 STEP:  29 TIME =     0.18 SECS, INTEGRAL =      5.73 TIME LEFT:1209593.90
 STEP:  30 TIME =     0.18 SECS, INTEGRAL =      5.91 TIME LEFT:1209593.73
 STEP:  31 TIME =     0.18 SECS, INTEGRAL =      6.09 TIME LEFT:1209593.54
 STEP:  32 TIME =     0.21 SECS, INTEGRAL =      6.30 TIME LEFT:1209593.33
 STEP:  33 TIME =     0.20 SECS, INTEGRAL =      6.50 TIME LEFT:1209593.13
 STEP:  34 TIME =     0.18 SECS, INTEGRAL =      6.69 TIME LEFT:1209592.95
 STEP:  35 TIME =     0.18 SECS, INTEGRAL =      6.86 TIME LEFT:1209592.77
 STEP:  36 TIME =     0.18 SECS, INTEGRAL =      7.04 TIME LEFT:1209592.60
 STEP:  37 TIME =     0.23 SECS, INTEGRAL =      7.27 TIME LEFT:1209592.37
 STEP:  38 TIME =     0.18 SECS, INTEGRAL =      7.45 TIME LEFT:1209592.19
 STEP:  39 TIME =     0.18 SECS, INTEGRAL =      7.63 TIME LEFT:1209592.00
 STEP:  40 TIME =     0.20 SECS, INTEGRAL =      7.83 TIME LEFT:1209591.81
 STEP:  41 TIME =     0.18 SECS, INTEGRAL =      8.00 TIME LEFT:1209591.63
 STEP:  42 TIME =     0.21 SECS, INTEGRAL =      8.22 TIME LEFT:1209591.42
 STEP:  43 TIME =     0.18 SECS, INTEGRAL =      8.39 TIME LEFT:1209591.24
 STEP:  44 TIME =     0.18 SECS, INTEGRAL =      8.57 TIME LEFT:1209591.07
 STEP:  45 TIME =     0.18 SECS, INTEGRAL =      8.75 TIME LEFT:1209590.88
 STEP:  46 TIME =     0.18 SECS, INTEGRAL =      8.93 TIME LEFT:1209590.71
 STEP:  47 TIME =     0.18 SECS, INTEGRAL =      9.11 TIME LEFT:1209590.53
 STEP:  48 TIME =     0.20 SECS, INTEGRAL =      9.31 TIME LEFT:1209590.33
 STEP:  49 TIME =     0.18 SECS, INTEGRAL =      9.48 TIME LEFT:1209590.15
 STEP:  50 TIME =     0.18 SECS, INTEGRAL =      9.66 TIME LEFT:1209589.98
 STEP:  51 TIME =     0.17 SECS, INTEGRAL =      9.83 TIME LEFT:1209589.81
 STEP:  52 TIME =     0.17 SECS, INTEGRAL =     10.00 TIME LEFT:1209589.64
 STEP:  53 TIME =     0.17 SECS, INTEGRAL =     10.17 TIME LEFT:1209589.46
 STEP:  54 TIME =     0.17 SECS, INTEGRAL =     10.34 TIME LEFT:1209589.29
 STEP:  55 TIME =     0.18 SECS, INTEGRAL =     10.52 TIME LEFT:1209589.11
 STEP:  56 TIME =     0.19 SECS, INTEGRAL =     10.71 TIME LEFT:1209588.93
 STEP:  57 TIME =     0.18 SECS, INTEGRAL =     10.89 TIME LEFT:1209588.74
 STEP:  58 TIME =     0.18 SECS, INTEGRAL =     11.08 TIME LEFT:1209588.56
 STEP:  59 TIME =     0.19 SECS, INTEGRAL =     11.27 TIME LEFT:1209588.37
 STEP:  60 TIME =     0.19 SECS, INTEGRAL =     11.45 TIME LEFT:1209588.18
 STEP:  61 TIME =     0.18 SECS, INTEGRAL =     11.64 TIME LEFT:1209588.00
 STEP:  62 TIME =     0.17 SECS, INTEGRAL =     11.81 TIME LEFT:1209587.83
 STEP:  63 TIME =     0.18 SECS, INTEGRAL =     11.98 TIME LEFT:1209587.65
 STEP:  64 TIME =     0.17 SECS, INTEGRAL =     12.16 TIME LEFT:1209587.48
 STEP:  65 TIME =     0.17 SECS, INTEGRAL =     12.32 TIME LEFT:1209587.31
 STEP:  66 TIME =     0.17 SECS, INTEGRAL =     12.50 TIME LEFT:1209587.14
 STEP:  67 TIME =     0.18 SECS, INTEGRAL =     12.68 TIME LEFT:1209586.96
 STEP:  68 TIME =     0.18 SECS, INTEGRAL =     12.86 TIME LEFT:1209586.78
 STEP:  69 TIME =     0.18 SECS, INTEGRAL =     13.04 TIME LEFT:1209586.60
 STEP:  70 TIME =     0.18 SECS, INTEGRAL =     13.22 TIME LEFT:1209586.42
 STEP:  71 TIME =     0.18 SECS, INTEGRAL =     13.39 TIME LEFT:1209586.24
 STEP:  72 TIME =     0.18 SECS, INTEGRAL =     13.57 TIME LEFT:1209586.06
 STEP:  73 TIME =     0.17 SECS, INTEGRAL =     13.74 TIME LEFT:1209585.89
 STEP:  74 TIME =     0.18 SECS, INTEGRAL =     13.92 TIME LEFT:1209585.71
 STEP:  75 TIME =     0.17 SECS, INTEGRAL =     14.09 TIME LEFT:1209585.55
 STEP:  76 TIME =     0.18 SECS, INTEGRAL =     14.27 TIME LEFT:1209585.37
 STEP:  77 TIME =     0.17 SECS, INTEGRAL =     14.44 TIME LEFT:1209585.20
 STEP:  78 TIME =     0.17 SECS, INTEGRAL =     14.61 TIME LEFT:1209585.03
 STEP:  79 TIME =     0.17 SECS, INTEGRAL =     14.78 TIME LEFT:1209584.86
 STEP:  80 TIME =     0.17 SECS, INTEGRAL =     14.95 TIME LEFT:1209584.69
 STEP:  81 TIME =     0.18 SECS, INTEGRAL =     15.12 TIME LEFT:1209584.52
 STEP:  82 TIME =     0.18 SECS, INTEGRAL =     15.30 TIME LEFT:1209584.34
 STEP:  83 TIME =     0.18 SECS, INTEGRAL =     15.48 TIME LEFT:1209584.16
 STEP:  84 TIME =     0.18 SECS, INTEGRAL =     15.65 TIME LEFT:1209583.98
 STEP:  85 TIME =     0.17 SECS, INTEGRAL =     15.82 TIME LEFT:1209583.81
 STEP:  86 TIME =     0.17 SECS, INTEGRAL =     16.00 TIME LEFT:1209583.64
 STEP:  87 TIME =     0.22 SECS, INTEGRAL =     16.21 TIME LEFT:1209583.42
 STEP:  88 TIME =     0.20 SECS, INTEGRAL =     16.41 TIME LEFT:1209583.23
 STEP:  89 TIME =     0.17 SECS, INTEGRAL =     16.58 TIME LEFT:1209583.05
 STEP:  90 TIME =     0.18 SECS, INTEGRAL =     16.76 TIME LEFT:1209582.88
 STEP:  91 TIME =     0.18 SECS, INTEGRAL =     16.94 TIME LEFT:1209582.70
 STEP:  92 TIME =     0.18 SECS, INTEGRAL =     17.11 TIME LEFT:1209582.52
 STEP:  93 TIME =     0.20 SECS, INTEGRAL =     17.31 TIME LEFT:1209582.33
 STEP:  94 TIME =     0.19 SECS, INTEGRAL =     17.50 TIME LEFT:1209582.14
 STEP:  95 TIME =     0.18 SECS, INTEGRAL =     17.68 TIME LEFT:1209581.96
 STEP:  96 TIME =     0.18 SECS, INTEGRAL =     17.85 TIME LEFT:1209581.79
 STEP:  97 TIME =     0.18 SECS, INTEGRAL =     18.03 TIME LEFT:1209581.61
 STEP:  98 TIME =     0.22 SECS, INTEGRAL =     18.25 TIME LEFT:1209581.39
 STEP:  99 TIME =     0.17 SECS, INTEGRAL =     18.42 TIME LEFT:1209581.22
 STEP: 100 TIME =     0.18 SECS, INTEGRAL =     18.59 TIME LEFT:1209581.04
 STEP: 101 TIME =     0.18 SECS, INTEGRAL =     18.77 TIME LEFT:1209580.87
 STEP: 102 TIME =     0.18 SECS, INTEGRAL =     18.95 TIME LEFT:1209580.69
 STEP: 103 TIME =     0.18 SECS, INTEGRAL =     19.12 TIME LEFT:1209580.52
 STEP: 104 TIME =     0.21 SECS, INTEGRAL =     19.34 TIME LEFT:1209580.30
 STEP: 105 TIME =     0.18 SECS, INTEGRAL =     19.51 TIME LEFT:1209580.12
 STEP: 106 TIME =     0.18 SECS, INTEGRAL =     19.69 TIME LEFT:1209579.95
 STEP: 107 TIME =     0.18 SECS, INTEGRAL =     19.86 TIME LEFT:1209579.77
 STEP: 108 TIME =     0.18 SECS, INTEGRAL =     20.04 TIME LEFT:1209579.60
 STEP: 109 TIME =     0.21 SECS, INTEGRAL =     20.25 TIME LEFT:1209579.38
 STEP: 110 TIME =     0.18 SECS, INTEGRAL =     20.43 TIME LEFT:1209579.21
 STEP: 111 TIME =     0.18 SECS, INTEGRAL =     20.61 TIME LEFT:1209579.03
 STEP: 112 TIME =     0.18 SECS, INTEGRAL =     20.78 TIME LEFT:1209578.86
 STEP: 113 TIME =     0.18 SECS, INTEGRAL =     20.96 TIME LEFT:1209578.68
 STEP: 114 TIME =     0.18 SECS, INTEGRAL =     21.13 TIME LEFT:1209578.50
 STEP: 115 TIME =     0.18 SECS, INTEGRAL =     21.31 TIME LEFT:1209578.32
 STEP: 116 TIME =     0.19 SECS, INTEGRAL =     21.50 TIME LEFT:1209578.13
 STEP: 117 TIME =     0.18 SECS, INTEGRAL =     21.69 TIME LEFT:1209577.95
 STEP: 118 TIME =     0.18 SECS, INTEGRAL =     21.87 TIME LEFT:1209577.77
 STEP: 119 TIME =     0.18 SECS, INTEGRAL =     22.05 TIME LEFT:1209577.58
 STEP: 120 TIME =     0.20 SECS, INTEGRAL =     22.25 TIME LEFT:1209577.39

(To convert to Hartree/Bohr^2, multiply by (10^(-21) x N x a0^2)/(4.184 x 627.51) =  0.0642)


           FORCE MATRIX IN MILLIDYNES/ANGSTROM


                  C  1       C  2       C  3       C  4       C  5       C  6
 ------------------------------------------------------------------------------
     C    1  15.049449
     C    2   6.001875  15.055508
     C    3   2.110873   5.862019  15.885708
     C    4   1.438558   2.114484   6.078348  15.228820
     C    5   2.082145   1.311101   1.964938   5.790777  16.185347
     C    6   6.187515   2.129839   1.350719   1.947016   5.629496  15.067061
     H    7   3.404502   0.749731   0.084497   0.009555   0.085756   0.757540
     H    8   0.715204   3.364458   0.713755   0.074351   0.039209   0.089016
     H    9   0.023173   0.083750   0.707633   3.346286   0.730481   0.076757
     H   10   0.705723   0.093083   0.025381   0.071393   0.724859   3.363804
     N   11   0.186956   0.035119   0.216899   1.196543   3.344058   1.179292
     O   12   0.029415   0.016551   0.053741   0.117825   1.454016   0.099715
     O   13   0.058377   0.010741   0.028429   0.099328   1.446100   0.115877
     C   14   0.085399   0.787575   3.319778   0.749084   0.105168   0.022273
     C   15   0.016676   0.030323   0.691929   0.043410   0.013928   0.005256
     H   16   0.002499   0.005862   0.043057   0.001951   0.003827   0.001460
     H   17   0.003792   0.003126   0.011676   0.016515   0.004917   0.003142
     H   18   0.003178   0.008433   0.020664   0.006032   0.003897   0.001783
     N   19   0.023847   0.041696   0.868981   0.046348   0.039264   0.013756
     O   20   0.011292   0.011297   0.089684   0.008219   0.018588   0.005357
     O   21   0.008403   0.014234   0.057489   0.024631   0.015197   0.007967
     H   22   0.007771   0.054696   0.668808   0.038717   0.006689   0.003688
     C   23   0.001471   0.001110   0.001078   0.000711   0.000985   0.000857
     N   24   0.001506   0.001344   0.001408   0.000870   0.001470   0.001291
     C   25   0.001124   0.000323   0.000614   0.000442   0.000995   0.000751
     C   26   0.000899   0.003501   0.001031   0.000677   0.001026   0.000698
     N   27   0.002808   0.003324   0.001215   0.000891   0.001689   0.002216
     C   28   0.000991   0.001002   0.000643   0.000498   0.000801   0.000743
     H   29   0.000314   0.000407   0.000364   0.000241   0.000452   0.000402
     H   30   0.000655   0.000595   0.000673   0.000410   0.000836   0.000656
     H   31   0.000526   0.000531   0.000546   0.000323   0.000550   0.000403
     H   32   0.000341   0.000423   0.000257   0.000200   0.000426   0.000306
     H   33   0.000489   0.005666   0.000366   0.000237   0.000367   0.000267
     H   34   0.000598   0.001328   0.000357   0.000205   0.000423   0.000277
     H   35   0.000951   0.001052   0.000601   0.000327   0.000699   0.000341
     H   36   0.000721   0.000506   0.000409   0.000367   0.000494   0.000288
     H   37   0.000564   0.000496   0.000530   0.000275   0.000557   0.000346
     H   38   0.003979   0.017971   0.003599   0.001969   0.002737   0.002612
     H   39   0.004378   0.008470   0.003040   0.001283   0.002196   0.001703
     O   40   0.014222   0.038072   0.006300   0.002711   0.006513   0.007368


                  H  7       H  8       H  9       H 10       N 11       O 12
 ------------------------------------------------------------------------------
     H    7   4.308926
     H    8   0.031772   4.220295
     H    9   0.010168   0.010147   4.210874
     H   10   0.035632   0.011377   0.008549   4.241051
     N   11   0.033298   0.047367   0.110528   0.104258  18.979339
     O   12   0.011912   0.012334   0.026212   0.037616   9.229937  12.076556
     O   13   0.010441   0.012248   0.046003   0.027285   9.216399   2.615715
     C   14   0.008593   0.038508   0.030678   0.010338   0.024752   0.008272
     C   15   0.004396   0.008849   0.012522   0.004929   0.022845   0.008984
     H   16   0.000807   0.002185   0.003760   0.000900   0.004739   0.001709
     H   17   0.001418   0.001551   0.020896   0.001712   0.010647   0.004023
     H   18   0.001897   0.003097   0.003971   0.001999   0.008424   0.003510
     N   19   0.011574   0.018642   0.068037   0.009299   0.059218   0.018868
     O   20   0.006209   0.010778   0.022008   0.005222   0.033704   0.011780
     O   21   0.003988   0.007867   0.033547   0.004137   0.022043   0.007375
     H   22   0.003316   0.028407   0.005087   0.002217   0.008256   0.002850
     C   23   0.000695   0.001380   0.000651   0.000578   0.002321   0.000967
     N   24   0.000524   0.002164   0.000776   0.000724   0.003027   0.001235
     C   25   0.000437   0.001095   0.000378   0.000513   0.002270   0.001007
     C   26   0.000737   0.001421   0.000655   0.000454   0.002357   0.000826
     N   27   0.000979   0.006461   0.000719   0.000971   0.002561   0.001136
     C   28   0.000608   0.001210   0.000385   0.000564   0.001868   0.000913
     H   29   0.000189   0.000638   0.000158   0.000294   0.001092   0.000515
     H   30   0.000270   0.001131   0.000394   0.000394   0.001911   0.000817
     H   31   0.000265   0.000802   0.000341   0.000190   0.001232   0.000460
     H   32   0.000133   0.000342   0.000139   0.000217   0.000996   0.000406
     H   33   0.000315   0.000611   0.000224   0.000181   0.000951   0.000464
     H   34   0.000334   0.000411   0.000234   0.000168   0.001030   0.000488
     H   35   0.000703   0.000659   0.000275   0.000378   0.001694   0.000616
     H   36   0.000761   0.000223   0.000293   0.000179   0.001104   0.000376
     H   37   0.000311   0.000434   0.000202   0.000255   0.001219   0.000419
     H   38   0.001358   0.020964   0.000992   0.001005   0.004767   0.001401
     H   39   0.001871   0.021257   0.000829   0.000815   0.005416   0.002190
     O   40   0.004765   0.029622   0.001992   0.001891   0.013056   0.003892


                  O 13       C 14       C 15       H 16       H 17       H 18
 ------------------------------------------------------------------------------
     O   13  12.048831
     C   14   0.014143  12.077043
     C   15   0.006830   2.882968  10.951617
     H   16   0.002327   0.687069   3.350182   4.136756
     H   17   0.003409   0.674420   3.350871   0.451794   4.133516
     H   18   0.002652   0.695619   3.312826   0.449301   0.449658   4.121682
     N   19   0.027504   2.575633   0.766678   0.056975   0.080655   0.076694
     O   20   0.015045   1.034255   0.098103   0.017726   0.025569   0.017027
     O   21   0.007761   1.013555   0.071657   0.014341   0.019727   0.015821
     H   22   0.002313   2.939899   0.640270   0.025330   0.042447   0.023099
     C   23   0.001003   0.003859   0.001977   0.000634   0.000790   0.000832
     N   24   0.001248   0.001457   0.001271   0.000583   0.000933   0.000684
     C   25   0.000730   0.000730   0.001023   0.000747   0.000544   0.000556
     C   26   0.001163   0.001066   0.001050   0.000885   0.000514   0.000894
     N   27   0.001059   0.005681   0.004542   0.003596   0.000810   0.003257
     C   28   0.000639   0.001233   0.001587   0.000729   0.000551   0.000920
     H   29   0.000413   0.000585   0.000758   0.000304   0.000329   0.000329
     H   30   0.000733   0.000824   0.001046   0.000389   0.000493   0.000456
     H   31   0.000557   0.000456   0.000621   0.000363   0.000268   0.000281
     H   32   0.000373   0.000472   0.000790   0.000328   0.000322   0.000290
     H   33   0.000356   0.000859   0.001194   0.001179   0.000281   0.000612
     H   34   0.000370   0.000643   0.002813   0.002220   0.000380   0.000556
     H   35   0.000704   0.000732   0.001873   0.000916   0.000633   0.001058
     H   36   0.000505   0.000464   0.001065   0.000535   0.000261   0.000367
     H   37   0.000543   0.000441   0.000864   0.000304   0.000292   0.000980
     H   38   0.001541   0.006721   0.044392   0.018313   0.002402   0.031520
     H   39   0.001960   0.010257   0.013332   0.005919   0.001759   0.012222
     O   40   0.003713   0.053306   0.035555   0.017555   0.002448   0.031725


                  N 19       O 20       O 21       H 22       C 23       N 24
 ------------------------------------------------------------------------------
     N   19  18.841705
     O   20   9.574463  12.262722
     O   21   9.712310   2.680865  12.315341
     H   22   0.849040   0.075606   0.088246   4.017773
     C   23   0.002328   0.001667   0.002161   0.003941  14.024577
     N   24   0.004025   0.002113   0.002328   0.002015   6.997158  14.429705
     C   25   0.005389   0.002826   0.002217   0.001814   0.840104   3.974422
     C   26   0.002211   0.003511   0.001094   0.001110   0.067088   0.832835
     N   27   0.005989   0.004372   0.003907   0.009926   0.911018   0.042574
     C   28   0.005751   0.003387   0.002320   0.000949   3.673874   0.923351
     H   29   0.001919   0.001116   0.000951   0.000899   3.424704   0.852237
     H   30   0.003161   0.001727   0.001625   0.001231   0.925957   3.550280
     H   31   0.001663   0.000953   0.000849   0.000549   0.059136   0.846694
     H   32   0.001909   0.001084   0.000931   0.000351   0.085722   0.796281
     H   33   0.003786   0.005882   0.001404   0.002764   0.013984   0.056617
     H   34   0.003625   0.002128   0.001610   0.001531   0.006240   0.008296
     H   35   0.004263   0.002646   0.002047   0.000821   0.018051   0.008222
     H   36   0.002051   0.001174   0.000858   0.000549   0.716098   0.046551
     H   37   0.001808   0.001205   0.000905   0.000437   0.745249   0.052880
     H   38   0.011578   0.005482   0.006749   0.030494   0.003328   0.002343
     H   39   0.012774   0.005869   0.006476   0.030634   0.022137   0.010599
     O   40   0.036187   0.016545   0.018497   0.023442   0.010347   0.007138


                  C 25       C 26       N 27       C 28       H 29       H 30
 ------------------------------------------------------------------------------
     C   25  11.970568
     C   26   2.530533  12.072172
     N   27   0.971115   3.900553  11.878774
     C   28   0.025699   0.885054   3.795413  12.321722
     H   29   0.090302   0.015319   0.063820   0.631769   4.345591
     H   30   0.737076   0.058113   0.020411   0.078040   0.053065   4.344861
     H   31   3.206715   0.633073   0.067625   0.011832   0.012863   0.058887
     H   32   3.177278   0.679886   0.024259   0.012455   0.018896   0.056079
     H   33   0.647422   3.218400   0.779520   0.078505   0.001392   0.010562
     H   34   0.674322   3.233931   0.811927   0.045145   0.003586   0.006169
     H   35   0.022893   0.889623   3.671653   0.870308   0.005567   0.006791
     H   36   0.008296   0.074901   0.786679   3.177944   0.018178   0.012040
     H   37   0.006649   0.033168   0.812678   3.138602   0.014438   0.010615
     H   38   0.003635   0.005456   0.052676   0.005630   0.001129   0.001094
     H   39   0.025312   0.072421   0.145288   0.067906   0.004878   0.004139
     O   40   0.013114   0.019770   0.270185   0.019590   0.002680   0.004348


                  H 31       H 32       H 33       H 34       H 35       H 36
 ------------------------------------------------------------------------------
     H   31   4.158838
     H   32   0.452448   4.117557
     H   33   0.017747   0.020771   4.175030
     H   34   0.017693   0.044454   0.433909   4.198453
     H   35   0.005136   0.016413   0.031987   0.080027   4.440576
     H   36   0.001693   0.004110   0.014565   0.003772   0.035206   4.158185
     H   37   0.002925   0.004379   0.004186   0.010449   0.074054   0.443557
     H   38   0.000509   0.000452   0.007067   0.003259   0.005540   0.002409
     H   39   0.003909   0.006939   0.013276   0.019871   0.065341   0.013196
     O   40   0.001717   0.003087   0.008014   0.010226   0.026367   0.007047


                  H 37       H 38       H 39       O 40
 ------------------------------------------------------
     H   37   4.134130
     H   38   0.003851   4.326358
     H   39   0.022755   0.789190   3.836674
     O   40   0.010225   3.911649   3.511053   6.144196


          HEAT OF FORMATION =     -67.873876 KCALS/MOLE


          TRIVIAL VIBRATIONS, SHOULD BE ZERO

 -22.1734=TX -45.4380=TY  45.1401=TZ -14.5488=RX -12.0215=RY  49.0466=RZ


      MOLECULAR POINT GROUP   :   C1  


           EIGENVECTORS  


   Root No.       1         2         3         4         5         6         7         8

                 1 A       2 A       3 A       4 A       5 A       6 A       7 A       8 A   

                  -0.0      -0.0      -0.0      -0.0      -0.0      -0.0      -0.0       0.0
  
           1    0.0081   -0.0117    0.0260    0.0190    0.0185   -0.0316    0.1346   -0.0365
           2   -0.0091   -0.0042   -0.0215   -0.0434    0.0024    0.0400   -0.0819    0.0810
           3    0.0159    0.0291    0.0618   -0.0440    0.0118   -0.0640    0.0045    0.0082
           4    0.0083   -0.0124    0.0259    0.0190    0.0184   -0.0311    0.1336   -0.0364
           5   -0.0002   -0.0106    0.0071   -0.0212    0.0011    0.0214   -0.0055    0.0803
           6    0.0056    0.0343    0.0264   -0.0528   -0.0046   -0.1271    0.0308    0.0015
           7    0.0001   -0.0016    0.0013   -0.0010    0.0192   -0.0176    0.0691   -0.0355
           8    0.0042   -0.0153    0.0218   -0.0095    0.0006    0.0129    0.0327    0.0798
           9   -0.0159    0.0286    0.0099   -0.0477   -0.0144   -0.1047    0.0174   -0.0101
          10   -0.0090    0.0048   -0.0238   -0.0202    0.0205   -0.0017    0.0029   -0.0361
          11   -0.0008   -0.0119    0.0071   -0.0205    0.0011    0.0219   -0.0055    0.0797
          12   -0.0244    0.0318    0.0412   -0.0293   -0.0043   -0.0019   -0.0087   -0.0054
          13   -0.0087    0.0036   -0.0236   -0.0199    0.0205   -0.0008    0.0027   -0.0362
          14   -0.0092   -0.0047   -0.0212   -0.0432    0.0024    0.0404   -0.0819    0.0812
          15   -0.0087    0.0260    0.0925   -0.0323    0.0160    0.0789   -0.0519   -0.0044
          16   -0.0005   -0.0045    0.0012   -0.0004    0.0195   -0.0154    0.0679   -0.0364
          17   -0.0140    0.0001   -0.0359   -0.0548    0.0031    0.0486   -0.1198    0.0811
          18    0.0107    0.0216    0.0918   -0.0370    0.0213    0.0369   -0.0442    0.0029
          19    0.0142   -0.0174    0.0451    0.0335    0.0177   -0.0454    0.1869   -0.0371
          20   -0.0124   -0.0010   -0.0320   -0.0517    0.0030    0.0475   -0.1116    0.0808
          21    0.0292    0.0226    0.0587   -0.0402    0.0164   -0.0842    0.0194    0.0151
          22    0.0181   -0.0158    0.0456    0.0366    0.0178   -0.0408    0.1825   -0.0408
          23    0.0040   -0.0139    0.0182   -0.0116    0.0007    0.0158    0.0223    0.0795
          24    0.0113    0.0288    0.0070   -0.0629   -0.0100   -0.1865    0.0629    0.0076
          25   -0.0174    0.0095   -0.0437   -0.0348    0.0211    0.0120   -0.0492   -0.0368
          26    0.0043   -0.0150    0.0185   -0.0123    0.0007    0.0142    0.0241    0.0804
          27   -0.0348    0.0308    0.0257   -0.0134   -0.0122    0.0174    0.0036   -0.0031
          28   -0.0005   -0.0053    0.0009   -0.0002    0.0195   -0.0153    0.0677   -0.0364
          29   -0.0207    0.0066   -0.0584   -0.0732    0.0037    0.0629   -0.1831    0.0817
          30    0.0224    0.0088    0.1072   -0.0321    0.0314    0.0826   -0.0716    0.0038
          31   -0.0124    0.0017   -0.0485   -0.0400    0.0228    0.0152   -0.0637   -0.0375
          32   -0.0119   -0.0044   -0.0358   -0.0546    0.0035    0.0489   -0.1196    0.0804
          33   -0.0022    0.0089    0.1140   -0.0239    0.0275    0.1844   -0.0913   -0.0149
          34   -0.0125    0.0015   -0.0489   -0.0395    0.0225    0.0144   -0.0624   -0.0374
          35   -0.0151   -0.0070   -0.0598   -0.0717    0.0053    0.0608   -0.1774    0.0772
          36    0.0007    0.0039    0.0619   -0.0132    0.0158    0.0933   -0.0499   -0.0066
          37   -0.0158   -0.0008   -0.0697   -0.0569    0.0248    0.0305   -0.1195   -0.0395
          38   -0.0097   -0.0035   -0.0230   -0.0441    0.0023    0.0404   -0.0858    0.0812
          39    0.0024   -0.0048    0.1632   -0.0267    0.0460    0.3391   -0.1544   -0.0353
          40    0.0015   -0.0006    0.0011   -0.0010    0.0186   -0.0191    0.0718   -0.0348
          41    0.0195   -0.0437    0.0520    0.0144   -0.0002    0.0049    0.1124    0.0820
          42    0.0207   -0.0237   -0.0496   -0.0590   -0.0317   -0.1449    0.0162   -0.0322
          43    0.0413   -0.0250   -0.0647   -0.0174    0.0033   -0.0198    0.0271   -0.0558
          44   -0.0038   -0.0246    0.0355    0.0841   -0.0335    0.1656    0.2265    0.1111
          45    0.0247   -0.0216   -0.0915   -0.0191   -0.0618   -0.0351    0.0725   -0.0216
          46    0.0631   -0.0113   -0.0606   -0.0162   -0.0006   -0.0170    0.0332   -0.0369
          47    0.1428    0.0947    0.0967    0.1020   -0.0574    0.1945    0.3057    0.2644
          48    0.1521    0.0314   -0.1085   -0.0264   -0.0873   -0.0369    0.0676    0.0540
          49   -0.1045   -0.1334   -0.1270   -0.0329    0.0239   -0.0349   -0.0397   -0.2026
          50   -0.0287   -0.0452    0.0242    0.0776   -0.0286    0.1557    0.2092    0.0839
          51   -0.0908   -0.0583   -0.1312    0.0368   -0.0781    0.1013    0.1485   -0.0734
          52    0.2008    0.0588   -0.0614   -0.0122   -0.0274   -0.0011    0.0491    0.0533
          53   -0.1385   -0.0953   -0.0279    0.1232   -0.0454    0.2793    0.2692    0.0280
          54    0.0025   -0.0320   -0.0689   -0.0369   -0.0436   -0.0882    0.0463   -0.0372
          55   -0.0500    0.0620    0.0399   -0.0047    0.0344   -0.0096    0.0366   -0.0177
          56    0.0715   -0.0988    0.0911   -0.0472    0.0369   -0.1707    0.0483    0.0554
          57    0.0202   -0.0244   -0.0840   -0.0295   -0.0553   -0.0654    0.0596   -0.0263
          58    0.2178   -0.3525    0.0664   -0.0400    0.0992    0.0491   -0.0503   -0.0763
          59    0.2151   -0.3029    0.1126   -0.0936    0.0783   -0.2445   -0.0125    0.0117
          60   -0.1041    0.1856   -0.0882   -0.0400   -0.0787   -0.1990    0.0865   -0.0109
          61   -0.3703    0.5482    0.0458    0.0279   -0.0205   -0.0755    0.1004    0.0592
          62   -0.0391    0.0769    0.0974   -0.0478    0.0214   -0.2365    0.0627    0.0771
          63    0.1506   -0.2537   -0.1050    0.0040   -0.0470    0.1306    0.0622   -0.0421
          64    0.0163   -0.0331    0.0206    0.0139    0.0182   -0.0256    0.1259   -0.0334
          65    0.0234   -0.0525    0.0583    0.0212   -0.0017    0.0110    0.1361    0.0858
          66    0.0617   -0.0628   -0.0391   -0.1195   -0.0068   -0.2988   -0.0596   -0.0551
          67   -0.0416    0.0038    0.0580   -0.1274    0.0798    0.0469   -0.0477    0.0645
          68   -0.0254    0.0258    0.0258    0.1538    0.1063   -0.0727   -0.0773   -0.0791
          69    0.0109    0.0149   -0.0624   -0.0154   -0.0955    0.0734    0.0117   -0.0660
          70   -0.0285    0.0104   -0.0360   -0.1273    0.1190    0.0532   -0.0310    0.0740
          71   -0.0138    0.0517   -0.0991    0.0080    0.1562   -0.0225   -0.0358   -0.0608
          72   -0.0136    0.0137    0.0879   -0.0869   -0.1543    0.0840   -0.0055   -0.0808
          73   -0.0114   -0.0103   -0.0783   -0.0028   -0.0510    0.0246   -0.0697    0.0750
          74   -0.0045    0.0603   -0.1435   -0.1116   -0.0092    0.0225   -0.0290   -0.0740
          75   -0.0300    0.0169    0.1481   -0.0490    0.0631    0.0608    0.0067   -0.0708
          76   -0.0205   -0.0359    0.0227    0.0944   -0.0669   -0.0126   -0.0559    0.0115
          77   -0.0109    0.0450   -0.0735   -0.0658   -0.0224    0.0036   -0.0145   -0.1222
          78   -0.0157    0.0167    0.0497    0.1018    0.0867    0.0196   -0.0725    0.0326
          79   -0.0167   -0.0305   -0.0054    0.0815   -0.0605   -0.0060   -0.0563    0.0213
          80   -0.0242    0.0131    0.0419    0.0269   -0.0689   -0.0331   -0.0042   -0.1839
          81    0.0175    0.0169   -0.0943    0.1632    0.0567    0.0223   -0.0488    0.0118
          82   -0.0369   -0.0156    0.0692   -0.0327   -0.0362    0.0172   -0.0771    0.0555
          83   -0.0306    0.0070    0.0844    0.1639   -0.0892   -0.0831   -0.1071   -0.0983
          84    0.0278    0.0147   -0.1452    0.1280    0.0578    0.0411    0.0154   -0.0470
          85   -0.0563    0.0162    0.1128   -0.2055    0.1464    0.0640   -0.0409    0.0668
          86   -0.0319    0.0224    0.0695    0.2598    0.2323   -0.1093   -0.0909   -0.0748
          87    0.0197    0.0128   -0.1065   -0.0547   -0.1964    0.0902    0.0175   -0.0692
          88   -0.0400    0.0176    0.0095   -0.1834    0.1839    0.0637   -0.0206    0.0756
          89   -0.0159    0.0740   -0.1581   -0.0120    0.4366   -0.0178    0.0101   -0.0519
          90   -0.0254    0.0090    0.1766   -0.1402   -0.2490    0.0945   -0.0193   -0.0870
          91   -0.0179   -0.0138   -0.0368    0.0013   -0.0147    0.0190   -0.0553    0.0530
          92    0.0049    0.0812   -0.2438   -0.1718   -0.0076    0.0483   -0.0562   -0.0020
          93   -0.0569    0.0222    0.2720   -0.0975    0.2952    0.0590    0.0638   -0.1183
          94    0.0182   -0.0037   -0.2450    0.0138   -0.2465    0.0383   -0.1362    0.1603
          95   -0.0008    0.0584   -0.1423   -0.1852   -0.1369    0.0488   -0.0068   -0.1192
          96   -0.0263    0.0161    0.1411   -0.0908   -0.0223    0.0769    0.0160   -0.0930
          97   -0.0047   -0.0473   -0.0232    0.1847   -0.0958   -0.0308   -0.0499   -0.0116
          98   -0.0071    0.0510   -0.0849   -0.1592   -0.0395    0.0371    0.0426   -0.1787
          99   -0.0247    0.0167    0.0716    0.1269    0.1056    0.0046   -0.1089    0.0761
         100   -0.0452   -0.0490    0.1636    0.0905   -0.0687   -0.0275   -0.0567   -0.0164
         101   -0.0107    0.0494   -0.1017   -0.0110    0.0010   -0.0159   -0.0713   -0.0444
         102   -0.0216    0.0170    0.0612    0.1419    0.1045    0.0011   -0.1155    0.0849
         103    0.0092   -0.0168   -0.1309    0.0882   -0.0568    0.0066   -0.0553    0.0432
         104   -0.0247    0.0075    0.0519   -0.0294   -0.0665   -0.0142    0.0682   -0.2619
         105    0.0238    0.0163   -0.1191    0.1244    0.0597    0.0391    0.0033   -0.0382
         106   -0.0296   -0.0076    0.0195   -0.0485    0.0617    0.0294   -0.0357    0.0405
         107   -0.0368   -0.0108    0.1458    0.2028   -0.2732   -0.1040   -0.1604   -0.0934
         108    0.0496    0.0114   -0.2466    0.1451    0.1081    0.0516    0.0969   -0.1145
         109   -0.0582   -0.0283    0.1977   -0.0317   -0.2417   -0.0025   -0.1736    0.0999
         110   -0.0332    0.0054    0.1046    0.2445   -0.0764   -0.1116   -0.1626   -0.0483
         111    0.0304    0.0158   -0.1552    0.2127    0.1207    0.0159   -0.0186   -0.0057
         112    0.6467    0.4053    0.0840    0.1498   -0.0173    0.0365   -0.0655    0.0182
         113    0.2417    0.1362    0.1146   -0.1695   -0.0685   -0.1512    0.1465    0.0134
         114   -0.1332   -0.1372   -0.0398   -0.0595   -0.0115   -0.1848    0.0714    0.3686
         115   -0.1061   -0.1072    0.0361    0.1256   -0.0370   -0.0178    0.0300   -0.0080
         116   -0.0601   -0.0363    0.0406    0.0748   -0.0439   -0.0261    0.0213   -0.1899
         117    0.0120   -0.0009   -0.0868    0.2053    0.0255   -0.0235   -0.1142    0.1689
         118   -0.1487   -0.1524    0.0342    0.1170   -0.0092   -0.0210    0.0902    0.0044
         119   -0.0877   -0.0652    0.0429    0.0589   -0.0300   -0.0337    0.0627   -0.1746
         120   -0.0940   -0.1040   -0.0476   -0.0100   -0.0050   -0.1538    0.0340    0.3329


   Root No.       9        10        11        12        13        14        15        16

                 9 A      10 A      11 A      12 A      13 A      14 A      15 A      16 A   

                   0.0       0.0       0.0       0.0       0.0       0.0       0.0       0.0
  
           1    0.1014    0.0313    0.0225    0.0050   -0.0443   -0.0210   -0.0022   -0.0225
           2   -0.0704   -0.0230    0.0001   -0.0546   -0.0051   -0.0022   -0.0028    0.0130
           3    0.0161   -0.1449   -0.1828   -0.0628    0.0206    0.0086    0.1197    0.0394
           4    0.1007    0.0315    0.0220    0.0058   -0.0424   -0.0198   -0.0031   -0.0217
           5   -0.0364   -0.0177    0.0333   -0.0696   -0.0397   -0.0246    0.0178    0.0040
           6    0.0103   -0.1127   -0.1308   -0.0801    0.0040    0.0055   -0.0701   -0.0211
           7    0.0723    0.0281   -0.0046    0.0206   -0.0194   -0.0050   -0.0148   -0.0208
           8   -0.0196   -0.0160    0.0497   -0.0790   -0.0544   -0.0341    0.0263    0.0032
           9   -0.0101   -0.0364   -0.0153   -0.0867    0.0095    0.0131   -0.1854    0.0011
          10    0.0434    0.0210   -0.0317    0.0318    0.0058    0.0114   -0.0293   -0.0141
          11   -0.0367   -0.0197    0.0339   -0.0720   -0.0393   -0.0244    0.0180    0.0070
          12   -0.0111    0.0185    0.0452   -0.0532    0.0141    0.0151   -0.1915    0.0086
          13    0.0433    0.0217   -0.0320    0.0326    0.0074    0.0123   -0.0299   -0.0134
          14   -0.0707   -0.0250   -0.0004   -0.0568   -0.0053   -0.0024   -0.0018    0.0150
          15   -0.0055    0.0257    0.0433   -0.0208    0.0121    0.0062   -0.0155    0.0241
          16    0.0719    0.0260   -0.0044    0.0180   -0.0186   -0.0045   -0.0153   -0.0169
          17   -0.0871   -0.0269   -0.0165   -0.0480    0.0102    0.0077   -0.0114    0.0166
          18    0.0035   -0.0714   -0.0882   -0.0333    0.0255    0.0088    0.1681    0.0725
          19    0.1250    0.0351    0.0435   -0.0052   -0.0680   -0.0362    0.0084   -0.0298
          20   -0.0835   -0.0254   -0.0121   -0.0493    0.0082    0.0064   -0.0095    0.0173
          21    0.0284   -0.2050   -0.2713   -0.0628    0.0235    0.0067    0.2399    0.0553
          22    0.1234    0.0301    0.0437   -0.0153   -0.0653   -0.0346    0.0054   -0.0165
          23   -0.0244   -0.0174    0.0461   -0.0790   -0.0513   -0.0322    0.0234    0.0064
          24    0.0208   -0.1344   -0.1748   -0.0752   -0.0143   -0.0046   -0.0999   -0.0918
          25    0.0202    0.0147   -0.0534    0.0426    0.0286    0.0260   -0.0416   -0.0083
          26   -0.0235   -0.0158    0.0460   -0.0782   -0.0519   -0.0326    0.0254    0.0040
          27   -0.0158    0.0629    0.0972   -0.0513    0.0162    0.0215   -0.3307    0.0013
          28    0.0718    0.0263   -0.0043    0.0182   -0.0184   -0.0044   -0.0159   -0.0168
          29   -0.1157   -0.0329   -0.0440   -0.0365    0.0370    0.0249   -0.0281    0.0224
          30    0.0018   -0.0779   -0.1051   -0.0126    0.0339    0.0075    0.3483    0.1251
          31    0.0161    0.0173   -0.0686    0.0484    0.0451    0.0373   -0.0566   -0.0040
          32   -0.0864   -0.0274   -0.0213   -0.0477    0.0166    0.0121   -0.0170    0.0205
          33   -0.0047    0.1392    0.1749    0.0421   -0.0191   -0.0165    0.0303   -0.0324
          34    0.0164    0.0173   -0.0686    0.0483    0.0451    0.0374   -0.0571   -0.0038
          35   -0.1097   -0.0319   -0.0573   -0.0327    0.0536    0.0368   -0.0455    0.0306
          36   -0.0035    0.0558    0.0684    0.0161    0.0005   -0.0008    0.0086    0.0102
          37   -0.0062    0.0171   -0.0973    0.0635    0.0786    0.0598   -0.0817    0.0034
          38   -0.0727   -0.0259   -0.0026   -0.0562   -0.0038   -0.0015   -0.0024    0.0155
          39   -0.0011    0.3157    0.3838    0.1257   -0.0717   -0.0550    0.0925   -0.1434
          40    0.0725    0.0299   -0.0024    0.0207   -0.0208   -0.0059   -0.0123   -0.0221
          41    0.0152   -0.0025    0.0626   -0.0774   -0.0503   -0.0306    0.0136    0.0022
          42   -0.0275    0.0053    0.0326   -0.0919   -0.0114   -0.0026   -0.0890    0.0204
          43    0.0419    0.0443    0.0131    0.0269   -0.0657   -0.0422    0.1987   -0.0076
          44    0.0294   -0.0419   -0.0330   -0.0407   -0.0250   -0.0169   -0.0088   -0.0127
          45   -0.0328   -0.0137   -0.0250   -0.0645   -0.0163   -0.0112    0.0024    0.0185
          46    0.0406    0.0916   -0.0176    0.0239   -0.0569   -0.0373    0.2063    0.0011
          47    0.0348    0.2756   -0.2657   -0.0590    0.0694    0.0438   -0.1060    0.0283
          48   -0.0568    0.2346   -0.1591   -0.0845    0.0001   -0.0081    0.1603    0.0798
          49    0.0361   -0.2926    0.2408    0.0578   -0.1615   -0.1041    0.2973   -0.0663
          50    0.0271   -0.1020    0.0125   -0.0359   -0.0439   -0.0290    0.0113   -0.0237
          51   -0.0196   -0.2557    0.0243   -0.0108   -0.0412   -0.0276   -0.0131   -0.0393
          52    0.0248    0.3510   -0.1795    0.0029   -0.0262   -0.0239    0.3114    0.0584
          53    0.0322   -0.3407    0.0750    0.0211   -0.0784   -0.0529    0.0447   -0.0800
          54   -0.0267   -0.0336    0.0195   -0.0763   -0.0129   -0.0053   -0.0664    0.0153
          55    0.0700   -0.0032   -0.0229    0.0154   -0.0033    0.0099   -0.1666   -0.0434
          56    0.0281    0.0563    0.1628   -0.1226   -0.0715   -0.0393    0.0012    0.0128
          57   -0.0328   -0.0078   -0.0063   -0.0680   -0.0101   -0.0062   -0.0116    0.0235
          58    0.1260   -0.0348   -0.1049    0.0535    0.0227    0.0333   -0.3262   -0.0733
          59    0.0576    0.0841    0.1905   -0.1344   -0.0792   -0.0403   -0.0284    0.0130
          60   -0.0588    0.0513    0.1035   -0.1187   -0.0434   -0.0303    0.1173    0.0541
          61    0.0093    0.0142    0.0586   -0.0382   -0.0215   -0.0042   -0.1376   -0.0299
          62    0.0069    0.0797    0.2195   -0.1549   -0.0866   -0.0495    0.0285    0.0228
          63   -0.0077   -0.0810   -0.1495    0.0062    0.0312    0.0198   -0.0867    0.0004
          64    0.0958    0.0468    0.0021    0.0290   -0.0022    0.0067   -0.0279   -0.0187
          65    0.0233   -0.0001    0.0582   -0.0717   -0.0423   -0.0253    0.0048   -0.0011
          66   -0.0360    0.0564    0.1307   -0.1160   -0.0320   -0.0137   -0.0428    0.0330
          67   -0.0325   -0.0390   -0.0259   -0.0415   -0.0474    0.0688    0.0073    0.0018
          68    0.0293    0.0134   -0.0705    0.0674   -0.1077    0.1347    0.0117   -0.0312
          69    0.0051    0.0320    0.0284    0.0083    0.0812   -0.1124   -0.0214   -0.0173
          70   -0.0377   -0.0288   -0.0062   -0.0510    0.0570   -0.0788   -0.0013   -0.0016
          71    0.0819    0.0142   -0.0359    0.0641    0.0505   -0.0753   -0.0050    0.0091
          72    0.0406    0.0096   -0.0006    0.0312   -0.0817    0.1200   -0.0111    0.0141
          73   -0.0395   -0.0100    0.0114   -0.0635    0.0093    0.0128    0.0036   -0.0553
          74    0.1349    0.0185   -0.0108    0.0775   -0.0079    0.0219   -0.0150    0.0407
          75   -0.0011   -0.0034   -0.0309    0.0280   -0.0182    0.0042   -0.0053    0.0157
          76   -0.1822    0.0068   -0.0306   -0.0338   -0.0250   -0.0522   -0.0037   -0.0720
          77    0.0353    0.0299   -0.0406    0.1002   -0.0389   -0.0201   -0.0221    0.0354
          78    0.1396   -0.0149    0.0093   -0.0473    0.0887    0.0327    0.0284   -0.0856
          79   -0.1636    0.0061   -0.0232   -0.0355   -0.0257   -0.0450   -0.0053   -0.0631
          80   -0.0916    0.0441   -0.0735    0.1086   -0.0385   -0.0495   -0.0155   -0.0159
          81    0.0562    0.0176    0.0301   -0.0374    0.0312    0.0220    0.0022   -0.0597
          82   -0.0452   -0.0268   -0.0293   -0.0410   -0.0001   -0.0400    0.0027   -0.0307
          83    0.0557    0.0182   -0.0776    0.0852   -0.0305   -0.0413   -0.0011   -0.0292
          84   -0.0661    0.0440    0.0349   -0.0224    0.0208    0.0148   -0.0078   -0.0676
          85   -0.0087   -0.0568   -0.0400   -0.0321   -0.1324    0.2114    0.0149    0.0320
          86   -0.0247    0.0092   -0.0965    0.0593   -0.2522    0.3614    0.0322   -0.0673
          87    0.0308    0.0404    0.0488    0.0104    0.1965   -0.2972   -0.0364   -0.0051
          88   -0.0317   -0.0417   -0.0188   -0.0441    0.0471   -0.0708    0.0001    0.0230
          89    0.0381    0.0126   -0.0421    0.0632    0.2140   -0.3264   -0.0119    0.0237
          90    0.0743   -0.0035   -0.0114    0.0414   -0.1897    0.2753   -0.0063    0.0352
          91   -0.0894   -0.0083   -0.0073   -0.0494    0.0036   -0.0299   -0.0014   -0.0447
          92    0.2893    0.0015    0.0355    0.0374    0.0456    0.0971    0.0003    0.0310
          93   -0.1229   -0.0120   -0.0895    0.0682    0.0110   -0.1788   -0.0200    0.0762
          94    0.1517   -0.0123    0.0887   -0.1248    0.0217    0.2049    0.0258   -0.1202
          95    0.1016    0.0307   -0.0103    0.1091   -0.0838    0.0722   -0.0313    0.0778
          96   -0.0107    0.0036   -0.0269    0.0437   -0.0619    0.0416   -0.0140    0.0344
          97   -0.2627    0.0288   -0.0297   -0.0325   -0.0503   -0.0732   -0.0135   -0.0889
          98   -0.0532    0.0454   -0.0505    0.1507   -0.1289   -0.0304   -0.0537    0.1269
          99    0.2222   -0.0317    0.0158   -0.0787    0.1546    0.0474    0.0522   -0.1378
         100   -0.2137   -0.0034   -0.0642   -0.0238   -0.0098   -0.0739    0.0082   -0.1005
         101    0.1679    0.0109   -0.0173    0.0490    0.0499    0.0080    0.0078   -0.0337
         102    0.2317   -0.0316    0.0188   -0.0842    0.1605    0.0477    0.0543   -0.1472
         103   -0.1548    0.0164   -0.0009   -0.0421   -0.0662   -0.0396   -0.0214   -0.0445
         104   -0.2297    0.0671   -0.0822    0.1301   -0.0343   -0.0620   -0.0183   -0.0430
         105   -0.0412    0.0365    0.0296   -0.0238    0.0228    0.0140   -0.0042   -0.0741
         106   -0.1112   -0.0183   -0.0234   -0.0448   -0.0538    0.0636    0.0056   -0.0332
         107    0.1195    0.0164   -0.0857    0.0969    0.0629   -0.2416   -0.0115   -0.0331
         108   -0.2505    0.0833    0.0448   -0.0127   -0.0301    0.0726   -0.0158   -0.0960
         109    0.1329   -0.0553   -0.0440   -0.0349    0.1203   -0.2658   -0.0026   -0.0111
         110    0.1331    0.0032   -0.0806    0.0674   -0.0305   -0.0254    0.0089   -0.0424
         111   -0.0300    0.0353    0.0358   -0.0427   -0.0120    0.0938    0.0042   -0.0856
         112   -0.0654   -0.3339    0.2220    0.1287   -0.0162   -0.0160   -0.0842    0.2459
         113   -0.1609   -0.1179    0.1184    0.2797    0.3674    0.1971    0.1020   -0.4248
         114   -0.0645    0.0210    0.0256    0.4811    0.0220    0.0222    0.0261   -0.0636
         115   -0.1203    0.0193    0.0786    0.0216    0.2293    0.1236    0.0253    0.2983
         116   -0.0401    0.0467    0.0108   -0.0706    0.2170    0.1194    0.0321    0.0794
         117    0.0919   -0.0266    0.0036    0.1922   -0.2729   -0.1379   -0.1088    0.3848
         118   -0.0428   -0.0075    0.1886    0.0381    0.3402    0.2089    0.0304    0.4520
         119   -0.0041    0.0325    0.0721   -0.0400    0.2789    0.1662    0.0369    0.1594
         120   -0.0356    0.0099    0.0188    0.4244   -0.0416   -0.0129   -0.0008    0.0244


   Root No.      17        18        19        20        21        22        23        24

                17 A      18 A      19 A      20 A      21 A      22 A      23 A      24 A   

                   0.1       0.1       0.1       0.1       0.2       0.2       0.2       0.3
  
           1   -0.0164   -0.0036    0.0020   -0.0102   -0.1086    0.0824    0.0245   -0.0065
           2   -0.0576    0.0133    0.0000   -0.0209   -0.0366    0.0242   -0.0062    0.0248
           3    0.0149    0.1044    0.0071   -0.0289    0.0057   -0.0488    0.1550    0.0598
           4   -0.0097   -0.0056    0.0019   -0.0087   -0.1027    0.0769    0.0224   -0.0065
           5   -0.1357    0.0184   -0.0003   -0.0250   -0.0717    0.0469    0.0005    0.0050
           6   -0.0070    0.2374    0.0065   -0.0162    0.0763    0.0577   -0.0438   -0.1447
           7    0.0273   -0.0106    0.0006    0.0022   -0.0597    0.0368    0.0100    0.0134
           8   -0.1648    0.0234    0.0003   -0.0309   -0.0895    0.0646    0.0064   -0.0075
           9   -0.0401    0.0169    0.0029   -0.0158   -0.0190   -0.0386   -0.0295   -0.0648
          10    0.0758   -0.0127    0.0013    0.0014   -0.0555    0.0391    0.0093    0.0345
          11   -0.1368    0.0213    0.0005   -0.0318   -0.0895    0.0637    0.0018    0.0115
          12   -0.0830   -0.1384   -0.0002   -0.0001    0.0594   -0.0083    0.1937   -0.1342
          13    0.0845   -0.0150    0.0013    0.0022   -0.0555    0.0401    0.0085    0.0358
          14   -0.0597    0.0165    0.0006   -0.0260   -0.0500    0.0361   -0.0043    0.0286
          15   -0.0398   -0.1600   -0.0018    0.0153    0.0575    0.0575    0.0149   -0.1248
          16    0.0315   -0.0086    0.0019   -0.0070   -0.0930    0.0692    0.0165    0.0208
          17   -0.0270    0.0139    0.0003   -0.0207   -0.0249    0.0185   -0.0072    0.0363
          18    0.0082   -0.1676    0.0004    0.0020   -0.0822   -0.0722   -0.0381   -0.1335
          19   -0.0659    0.0023    0.0023   -0.0122   -0.1401    0.1104    0.0392   -0.0265
          20   -0.0308    0.0105   -0.0001   -0.0200   -0.0218    0.0114   -0.0149    0.0361
          21    0.0436    0.2175    0.0125   -0.0630    0.0122   -0.1086    0.4723    0.4576
          22   -0.0563    0.0093    0.0055   -0.0266   -0.1484    0.1259    0.0293   -0.0367
          23   -0.1619    0.0239    0.0014   -0.0358   -0.0987    0.0729    0.0057   -0.0092
          24    0.0035    0.5064    0.0068   -0.0024    0.2184    0.2364   -0.2066   -0.4402
          25    0.1278   -0.0173    0.0014    0.0060   -0.0391    0.0285    0.0054    0.0548
          26   -0.1636    0.0240    0.0005   -0.0352   -0.1010    0.0723    0.0040   -0.0001
          27   -0.1627   -0.2516   -0.0015    0.0033    0.1544   -0.0265    0.6026   -0.2519
          28    0.0328   -0.0093    0.0020   -0.0066   -0.0952    0.0708    0.0164    0.0202
          29    0.0271    0.0130    0.0003   -0.0161    0.0083   -0.0031   -0.0117    0.0723
          30    0.0444   -0.3592   -0.0034    0.0164   -0.2791   -0.2043   -0.2487   -0.3399
          31    0.2166   -0.0236    0.0031    0.0184    0.0185    0.0128    0.0221   -0.0315
          32    0.0149    0.0115    0.0015   -0.0183   -0.0080    0.0199    0.0041   -0.0108
          33    0.0062    0.0061   -0.0024    0.0192    0.1205    0.1692   -0.0751    0.0832
          34    0.2177   -0.0249    0.0030    0.0190    0.0215    0.0172    0.0213   -0.0304
          35    0.1528    0.0029    0.0038   -0.0014    0.0708   -0.0143    0.0257   -0.1101
          36   -0.0306   -0.1981   -0.0079    0.0700    0.3656    0.5305   -0.2414    0.3673
          37    0.3491   -0.0268    0.0049    0.0339    0.0906   -0.0168    0.0424   -0.1206
          38   -0.0617    0.0169    0.0006   -0.0276   -0.0520    0.0354   -0.0064    0.0389
          39    0.1214    0.5007    0.0063   -0.0545   -0.1672   -0.2299    0.0598   -0.0147
          40    0.0305   -0.0124    0.0004    0.0024   -0.0583    0.0312    0.0083    0.0177
          41   -0.0340   -0.0000   -0.0000   -0.0045   -0.0362    0.0434    0.0240   -0.0429
          42    0.0054   -0.0107    0.0017   -0.0212   -0.0955   -0.0606   -0.0894    0.0772
          43   -0.1060   -0.0021   -0.0049    0.0184    0.0942   -0.0014    0.0360   -0.0317
          44    0.0834   -0.0079    0.0010    0.0092    0.0462   -0.0188    0.0015   -0.0235
          45    0.0143   -0.0093   -0.0003   -0.0064    0.0204   -0.1088   -0.0897    0.0714
          46   -0.1129   -0.0008   -0.0051    0.0196    0.1155   -0.0114    0.0363   -0.0370
          47    0.1673   -0.0109    0.0038   -0.0101    0.0003   -0.0377   -0.0423    0.0441
          48   -0.1069    0.0063   -0.0028    0.0108    0.2191   -0.1895   -0.0807    0.0183
          49   -0.1688   -0.0034   -0.0089    0.0362    0.1738   -0.0012    0.0733   -0.1071
          50    0.0695   -0.0083    0.0003    0.0112    0.0598   -0.0182    0.0078   -0.0379
          51    0.1313   -0.0301    0.0006    0.0083    0.1351   -0.2243   -0.1369    0.1302
          52   -0.1921    0.0144   -0.0073    0.0381    0.2623   -0.0590    0.0529   -0.0888
          53    0.1538   -0.0271   -0.0008    0.0254    0.2077   -0.1159   -0.0090   -0.0273
          54    0.0251   -0.0107    0.0015   -0.0209   -0.1006   -0.0598   -0.0974    0.1001
          55   -0.1535    0.0042   -0.0025    0.0049    0.0027   -0.1523   -0.1033    0.0650
          56    0.1072   -0.0396    0.0079   -0.0007    0.0713   -0.0540    0.0024   -0.0099
          57    0.0280   -0.0022   -0.0006   -0.0239   -0.1603    0.0555   -0.0331    0.0461
          58   -0.2645    0.0014   -0.0034    0.0091    0.0877   -0.3269   -0.1926    0.1252
          59    0.2080   -0.0672    0.0150    0.0027    0.1756   -0.1400   -0.0121    0.0142
          60    0.2335   -0.0265    0.0069   -0.0240   -0.1494    0.1466    0.0390    0.0128
          61   -0.2221    0.0078   -0.0061    0.0184    0.0454   -0.2738   -0.1843    0.1179
          62    0.1422   -0.0487    0.0097    0.0053    0.1211   -0.1081   -0.0193    0.0082
          63   -0.1555    0.0351   -0.0093   -0.0327   -0.3040    0.1552   -0.0145    0.0185
          64    0.1848   -0.0357   -0.0011    0.0224   -0.0520    0.0464    0.0313    0.0120
          65    0.0309   -0.0094   -0.0012    0.0016   -0.0284    0.0466    0.0324   -0.0471
          66    0.0453   -0.0369    0.0020   -0.0227   -0.1032   -0.0856   -0.1060    0.1441
          67   -0.0010    0.0028   -0.0024    0.0481    0.0004    0.0076   -0.0013    0.0079
          68    0.0043   -0.0095   -0.0263   -0.0537    0.0030   -0.0009   -0.0051    0.0012
          69   -0.0041   -0.0160   -0.0254   -0.0208    0.0036    0.0023    0.0019   -0.0003
          70   -0.0013    0.0053   -0.0025    0.0512   -0.0026    0.0042    0.0014    0.0046
          71   -0.0003   -0.0032   -0.0026   -0.0473    0.0029   -0.0024   -0.0032   -0.0008
          72   -0.0055   -0.0182   -0.0300   -0.0279    0.0112    0.0096   -0.0035    0.0044
          73    0.0008    0.0003    0.0089    0.0301   -0.0059   -0.0009    0.0048   -0.0000
          74   -0.0040   -0.0013    0.0046   -0.0477    0.0035   -0.0029   -0.0006   -0.0029
          75   -0.0030   -0.0176   -0.0537   -0.0215    0.0129    0.0127   -0.0075    0.0080
          76    0.0071   -0.0076    0.0304    0.0177   -0.0075   -0.0006    0.0051    0.0042
          77    0.0003   -0.0061    0.0106   -0.0480    0.0014   -0.0025    0.0003    0.0010
          78   -0.0074   -0.0209    0.0573   -0.0123    0.0078    0.0093   -0.0073    0.0072
          79    0.0075   -0.0055   -0.0051    0.0094   -0.0061   -0.0012    0.0050    0.0021
          80   -0.0031   -0.0146    0.2146   -0.0052   -0.0051   -0.0017    0.0016    0.0052
          81    0.0033   -0.0121   -0.2048   -0.0359    0.0037    0.0002   -0.0005   -0.0023
          82    0.0035   -0.0026   -0.0115    0.0357   -0.0024    0.0052    0.0008    0.0079
          83    0.0068   -0.0136   -0.0212   -0.0565    0.0025   -0.0006   -0.0040    0.0024
          84   -0.0008   -0.0148   -0.0679   -0.0230   -0.0014   -0.0026    0.0039   -0.0026
          85   -0.0034    0.0051   -0.0181    0.0477    0.0056    0.0122   -0.0051    0.0085
          86    0.0086   -0.0128   -0.0918   -0.0762    0.0042   -0.0000   -0.0077    0.0012
          87   -0.0058   -0.0149    0.0165   -0.0080    0.0013    0.0003    0.0047   -0.0004
          88   -0.0022    0.0070   -0.0085    0.0573    0.0004    0.0075   -0.0012    0.0066
          89   -0.0001    0.0002   -0.0361   -0.0460    0.0047   -0.0016   -0.0052   -0.0069
          90   -0.0066   -0.0187   -0.0201   -0.0250    0.0141    0.0131   -0.0054    0.0107
          91    0.0032   -0.0006   -0.0081    0.0291   -0.0056    0.0001    0.0042    0.0025
          92   -0.0128    0.0040    0.0538   -0.0342    0.0048   -0.0033   -0.0013   -0.0085
          93    0.0028   -0.0155   -0.1336   -0.0162    0.0168    0.0181   -0.0118    0.0161
          94   -0.0087    0.0011    0.1031    0.0379   -0.0097   -0.0062    0.0087   -0.0104
          95   -0.0034   -0.0007   -0.0218   -0.0610    0.0050   -0.0035    0.0014   -0.0045
          96   -0.0029   -0.0173   -0.0664   -0.0301    0.0137    0.0120   -0.0062    0.0068
          97    0.0131   -0.0074   -0.0583    0.0179   -0.0134   -0.0060    0.0098    0.0023
          98    0.0086    0.0029   -0.2294   -0.0782    0.0067   -0.0029    0.0018   -0.0072
          99   -0.0145   -0.0268    0.2503    0.0057    0.0064    0.0119   -0.0097    0.0128
         100    0.0021   -0.0182    0.2528    0.0411   -0.0086    0.0053    0.0024    0.0142
         101   -0.0072   -0.0114    0.1888   -0.0390    0.0001   -0.0016   -0.0021    0.0060
         102   -0.0141   -0.0278    0.2490    0.0019    0.0058    0.0115   -0.0094    0.0139
         103    0.0185    0.0006   -0.2980   -0.0073   -0.0108   -0.0065    0.0109    0.0005
         104   -0.0115   -0.0272    0.5273   -0.0114   -0.0066   -0.0014    0.0027    0.0094
         105    0.0003   -0.0192   -0.0686   -0.0424    0.0010   -0.0010    0.0020    0.0001
         106   -0.0002    0.0002    0.0565    0.0593   -0.0061    0.0036    0.0028    0.0079
         107    0.0135   -0.0202   -0.1085   -0.0978    0.0063    0.0003   -0.0051    0.0022
         108   -0.0047   -0.0178    0.1076   -0.0051   -0.0107   -0.0085    0.0108   -0.0031
         109    0.0112   -0.0061   -0.1891    0.0044    0.0049    0.0104   -0.0035    0.0108
         110    0.0130   -0.0135   -0.1773   -0.0866    0.0067   -0.0001   -0.0070    0.0010
         111    0.0035   -0.0131   -0.1857   -0.0414    0.0007   -0.0034    0.0020   -0.0048
         112    0.0265    0.0321    0.0779   -0.0494    0.0112    0.0105   -0.0138   -0.0009
         113   -0.0410   -0.0525   -0.1670    0.1173   -0.0268   -0.0057    0.0169    0.0110
         114   -0.0281   -0.0309    0.0167   -0.0519   -0.0024   -0.0097    0.0050   -0.0055
         115   -0.0474    0.0813    0.0961   -0.3371    0.1096    0.0056   -0.0443   -0.1090
         116   -0.0499    0.0970   -0.0593    0.4774   -0.0159   -0.0077    0.0086   -0.0463
         117    0.0094    0.0792    0.0966    0.4796   -0.0568   -0.0098    0.0171    0.0077
         118   -0.0396    0.0850   -0.0164   -0.2743    0.0422    0.0044   -0.0121    0.0465
         119   -0.0454    0.0924   -0.1037    0.4638   -0.0498   -0.0073    0.0253    0.0428
         120   -0.0216   -0.0069    0.0371    0.0616   -0.0121   -0.0089    0.0076   -0.0066


   Root No.      25        26        27        28        29        30        31        32

                25 A      26 A      27 A      28 A      29 A      30 A      31 A      32 A   

                   0.3       0.3       0.3       0.4       0.4       0.5       0.5       0.6
  
           1   -0.0007    0.0147    0.0215   -0.0032    0.1117   -0.0002    0.0184   -0.0005
           2   -0.0059   -0.0693   -0.0282    0.0000    0.0080   -0.0002   -0.0066    0.0007
           3    0.0002    0.0068    0.0034    0.0021   -0.0255   -0.0003    0.2163    0.0003
           4   -0.0009    0.0102    0.0179   -0.0025    0.0876   -0.0001    0.0158   -0.0004
           5    0.0008    0.0299    0.0249   -0.0019    0.0850    0.0006    0.0023    0.0006
           6    0.0048   -0.0174   -0.0491    0.0020   -0.0271   -0.0009    0.1833    0.0004
           7   -0.0062   -0.0609   -0.0132   -0.0003   -0.0057    0.0004   -0.0018    0.0005
           8    0.0044    0.0753    0.0430   -0.0028    0.1229    0.0004    0.0078    0.0002
           9    0.0023    0.0075   -0.0099    0.0026   -0.0509    0.0002    0.2293    0.0004
          10   -0.0135   -0.1570   -0.0583   -0.0009    0.0112   -0.0010    0.0116   -0.0004
          11   -0.0018   -0.0048    0.0065   -0.0029    0.1227   -0.0003    0.0130   -0.0001
          12    0.0006   -0.0290   -0.0274    0.0010   -0.0190    0.0003    0.2391    0.0009
          13   -0.0143   -0.1668   -0.0633   -0.0007    0.0034   -0.0011    0.0134   -0.0005
          14   -0.0074   -0.0882   -0.0381   -0.0009    0.0459   -0.0009    0.0022    0.0000
          15    0.0025   -0.0191   -0.0281    0.0021   -0.0331    0.0004    0.4804    0.0018
          16   -0.0098   -0.1051   -0.0343   -0.0025    0.0780   -0.0011    0.0208   -0.0010
          17   -0.0094   -0.1190   -0.0532    0.0002   -0.0019   -0.0008   -0.0054    0.0003
          18    0.0023   -0.0150   -0.0221    0.0016   -0.0185   -0.0001    0.2630    0.0005
          19    0.0070    0.1349    0.0876   -0.0064    0.2345    0.0007    0.0525   -0.0002
          20   -0.0106   -0.1420   -0.0676    0.0017   -0.0534   -0.0007   -0.0217    0.0004
          21   -0.0073    0.0492    0.0849    0.0002    0.0049   -0.0002   -0.1536   -0.0013
          22    0.0070    0.1070    0.0549   -0.0073    0.2664   -0.0010    0.0371   -0.0014
          23    0.0049    0.0842    0.0494   -0.0047    0.1857    0.0004    0.0157    0.0000
          24    0.0103   -0.0797   -0.1423   -0.0018    0.0470   -0.0034   -0.2606   -0.0003
          25   -0.0220   -0.2707   -0.1159    0.0010   -0.0628   -0.0020    0.0226   -0.0015
          26    0.0029    0.0593    0.0393   -0.0043    0.1752    0.0002    0.0105    0.0004
          27   -0.0034   -0.0918   -0.0570   -0.0039    0.0745   -0.0004   -0.3851   -0.0008
          28   -0.0099   -0.1048   -0.0339   -0.0027    0.0863   -0.0012    0.0205   -0.0011
          29   -0.0201   -0.2626   -0.1227    0.0027   -0.0987   -0.0014    0.0197    0.0003
          30    0.0037   -0.0395   -0.0450   -0.0020    0.0484   -0.0009   -0.3912   -0.0023
          31    0.0068    0.0768    0.0358   -0.0012    0.0101   -0.0007    0.0051   -0.0003
          32    0.0051    0.0538    0.0196   -0.0014    0.0555   -0.0007   -0.0020    0.0002
          33    0.0006    0.0116    0.0086    0.0003   -0.0063    0.0004    0.0847   -0.0001
          34    0.0075    0.0854    0.0398   -0.0013    0.0129   -0.0008    0.0013   -0.0003
          35    0.0351    0.4045    0.1642   -0.0028    0.0936   -0.0001   -0.0060    0.0008
          36   -0.0006    0.0594    0.0562   -0.0005    0.0095    0.0004   -0.2195   -0.0019
          37    0.0344    0.3975    0.1687   -0.0024    0.0383   -0.0003   -0.0013    0.0001
          38   -0.0104   -0.1251   -0.0545   -0.0008    0.0434   -0.0010   -0.0002    0.0000
          39    0.0001    0.0033    0.0035   -0.0005    0.0013    0.0005   -0.0723   -0.0005
          40   -0.0071   -0.0696   -0.0146    0.0005   -0.0351    0.0009   -0.0154    0.0010
          41    0.0094    0.1157    0.0425    0.0067   -0.2099    0.0014   -0.0175   -0.0000
          42   -0.0006    0.0349    0.0309    0.0012   -0.0430    0.0005   -0.0167    0.0003
          43    0.0005   -0.0136   -0.0118    0.0002   -0.0407    0.0002   -0.0202    0.0013
          44    0.0014    0.0243    0.0039    0.0045   -0.1227    0.0015   -0.0039   -0.0000
          45   -0.0021    0.0061    0.0105   -0.0010    0.0402    0.0000   -0.0078    0.0003
          46    0.0012   -0.0148   -0.0181    0.0003   -0.0399   -0.0000   -0.0141    0.0013
          47   -0.0076   -0.0663   -0.0189    0.0002   -0.0016    0.0023   -0.0406    0.0022
          48    0.0091    0.0678   -0.0187   -0.0008    0.0563   -0.0037    0.0595   -0.0025
          49    0.0075    0.0521    0.0139    0.0054   -0.2435    0.0015    0.0100    0.0013
          50    0.0031    0.0414    0.0110    0.0057   -0.1743    0.0017    0.0005   -0.0000
          51   -0.0155   -0.1265   -0.0208   -0.0111    0.3925    0.0003   -0.0111    0.0016
          52    0.0055   -0.0016   -0.0471    0.0006   -0.0069   -0.0011    0.0339    0.0012
          53   -0.0043   -0.0534   -0.0235   -0.0015    0.0687    0.0003    0.0305   -0.0002
          54   -0.0019    0.0293    0.0329    0.0009   -0.0405    0.0009   -0.0436    0.0004
          55    0.0006    0.0134    0.0137    0.0012   -0.0411    0.0006   -0.0068   -0.0001
          56    0.0013    0.0286    0.0129    0.0042   -0.1088    0.0008   -0.0147   -0.0002
          57   -0.0006    0.0350    0.0318    0.0026   -0.1116    0.0010   -0.0265    0.0010
          58    0.0016    0.0241    0.0181    0.0009   -0.0021    0.0005   -0.0288   -0.0010
          59   -0.0092   -0.0856   -0.0279   -0.0001    0.0816    0.0009    0.0266   -0.0005
          60   -0.0112   -0.0814   -0.0099   -0.0007    0.0194    0.0011    0.0289    0.0016
          61    0.0102    0.1286    0.0569    0.0043   -0.1748    0.0000   -0.0872   -0.0005
          62    0.0002    0.0210    0.0108    0.0032   -0.0731    0.0006   -0.0196   -0.0003
          63    0.0108    0.1537    0.0727    0.0086   -0.3468    0.0015   -0.0715    0.0012
          64   -0.0102   -0.1233   -0.0512    0.0082   -0.2883    0.0021   -0.0488    0.0014
          65    0.0079    0.0913    0.0257    0.0095   -0.3010    0.0016   -0.0220   -0.0000
          66   -0.0017    0.0360    0.0453   -0.0014    0.0001   -0.0003   -0.1292    0.0018
          67    0.0199   -0.0003    0.0029   -0.0936   -0.0008   -0.0756   -0.0052    0.0810
          68    0.0588   -0.0067    0.0065   -0.0286   -0.0016   -0.2696    0.0004    0.0979
          69   -0.1321    0.0189   -0.0169    0.0613    0.0015    0.0992    0.0002   -0.1172
          70    0.0185   -0.0001    0.0013   -0.1466   -0.0026   -0.0194   -0.0021   -0.0668
          71    0.1765   -0.0235    0.0218   -0.1478   -0.0056   -0.1395    0.0025   -0.2178
          72   -0.1464    0.0176   -0.0090    0.2251    0.0063    0.0079   -0.0061    0.1218
          73   -0.0189    0.0063   -0.0069   -0.0152   -0.0004   -0.0871    0.0011   -0.0589
          74    0.1097   -0.0147    0.0125   -0.0247   -0.0014    0.0294    0.0019   -0.0292
          75   -0.0981    0.0100    0.0009    0.0998    0.0027   -0.0979   -0.0074   -0.0181
          76    0.0597    0.0057   -0.0183    0.0709    0.0022   -0.0192    0.0004   -0.0034
          77    0.1545   -0.0120   -0.0008    0.0258    0.0007    0.0793    0.0012    0.0031
          78   -0.0279    0.0037    0.0014   -0.0280   -0.0007   -0.0514   -0.0037   -0.0264
          79    0.0776   -0.0003   -0.0087    0.0555    0.0012    0.0097    0.0009   -0.0104
          80   -0.0130    0.0176   -0.0359   -0.0102    0.0006   -0.0265    0.0009   -0.0030
          81   -0.0416    0.0009    0.0065   -0.1183   -0.0029    0.0417    0.0023    0.0332
          82    0.0299    0.0048   -0.0108   -0.0870   -0.0004    0.0311   -0.0034    0.0817
          83    0.0330   -0.0000   -0.0038    0.0200    0.0001   -0.1707    0.0001    0.0425
          84   -0.0594    0.0118   -0.0154   -0.0828   -0.0024    0.1126    0.0042   -0.0359
          85   -0.1359    0.0167   -0.0084    0.0678    0.0047    0.1363   -0.0085   -0.0569
          86   -0.2192    0.0376   -0.0453    0.0300    0.0018    0.2219    0.0005   -0.1700
          87    0.0945   -0.0143    0.0189   -0.0334   -0.0026   -0.2813    0.0012    0.0897
          88   -0.0195    0.0026    0.0023   -0.0947   -0.0005   -0.0144   -0.0051    0.0537
          89   -0.3311    0.0367   -0.0249    0.3762    0.0101   -0.0159   -0.0003    0.2021
          90    0.1599   -0.0213    0.0257   -0.0720   -0.0023   -0.0746   -0.0076   -0.0519
          91    0.0447    0.0007   -0.0049   -0.0130    0.0000   -0.0837    0.0001   -0.0528
          92   -0.0613   -0.0037    0.0172   -0.2006   -0.0075   -0.0848    0.0041   -0.3020
          93    0.1345   -0.0190    0.0268   -0.0948   -0.0021   -0.1216   -0.0107   -0.2417
          94   -0.3735    0.0451   -0.0332    0.1491    0.0031   -0.2860    0.0051   -0.1010
          95    0.0717   -0.0081    0.0037    0.2154    0.0058    0.2178   -0.0001    0.3356
          96   -0.1182    0.0132   -0.0033    0.2446    0.0069    0.0049   -0.0083    0.1949
          97    0.0047    0.0190   -0.0397   -0.1112   -0.0012    0.0785    0.0038    0.2027
          98   -0.0254   -0.0020    0.0064   -0.0202   -0.0021   -0.0969    0.0028   -0.1355
          99    0.1185   -0.0088    0.0050    0.0771    0.0026    0.0362   -0.0055   -0.0132
         100    0.0780    0.0174   -0.0437    0.3226    0.0085   -0.1628   -0.0036   -0.1761
         101    0.3908   -0.0358    0.0101    0.0603    0.0027    0.3221    0.0002    0.1264
         102    0.1766   -0.0130    0.0031    0.0779    0.0029    0.1132   -0.0054    0.0321
         103    0.3046   -0.0251    0.0054    0.2689    0.0091    0.1198    0.0046   -0.1084
         104   -0.2498    0.0720   -0.1150   -0.3134   -0.0096    0.0755    0.0004    0.0984
         105   -0.1324    0.0296   -0.0412   -0.2505   -0.0072    0.1474    0.0030    0.0598
         106    0.1147   -0.0067   -0.0004   -0.1146   -0.0010   -0.0766   -0.0022    0.2244
         107   -0.1032    0.0238   -0.0328    0.1055    0.0021    0.0892   -0.0006   -0.3288
         108    0.0830    0.0041   -0.0240    0.0793    0.0014    0.1442    0.0082   -0.2572
         109   -0.1856    0.0364   -0.0441   -0.2415   -0.0024    0.4288   -0.0066   -0.0085
         110    0.0319   -0.0049    0.0077   -0.1203   -0.0042   -0.2732   -0.0001    0.2784
         111    0.0126   -0.0052    0.0105   -0.1815   -0.0060   -0.0950    0.0049    0.2287
         112   -0.0046    0.0012    0.0008   -0.0006   -0.0108    0.0036   -0.0104   -0.0019
[...]
 FREQUENCY          1379.66         C 26 -- H 33         +14.1% ( 45.0%)      0.3%
 TRANSITION DIPOLE   0.5794         C 25 -- H 31         +10.1% ( 38.0%)      1.1%
 TRAVEL (Ang.)       0.3228         N 24 -- C 25          +9.5% ( 36.8%)     96.1%
 REDUCED MASS        0.4692         C 26 -- H 34          +9.2% ( 36.3%)      0.4%
 EFFECTIVE MASS      4.4501
 FORCE CONSTANT      0.5262

 VIBRATION         83   83A           ATOM PAIR      ENERGY CONTRIBUTION    RADIAL
 FREQUENCY          1399.88         C  1 -- C  2         +13.3% ( 53.4%)     97.4%
 TRANSITION DIPOLE   0.1698         C  1 -- C  6         +11.8% ( 50.3%)     92.6%
 TRAVEL (Ang.)       0.2043         C  2 -- C  3         +10.2% ( 46.8%)     97.9%
 REDUCED MASS        1.1545         C  3 -- C  4         +10.2% ( 46.8%)     99.4%
 EFFECTIVE MASS      7.9287
 FORCE CONSTANT      1.3330

 VIBRATION         84   84A           ATOM PAIR      ENERGY CONTRIBUTION    RADIAL
 FREQUENCY          1408.16         H 39 -- O 40         +54.0% ( 59.0%)      6.7%
 TRANSITION DIPOLE   1.0337         H 38 -- O 40         +40.5% ( 51.1%)      9.3%
 TRAVEL (Ang.)       0.3111         N 27 -- H 35          +2.4% ( 12.5%)      1.1%
 REDUCED MASS        0.4948         C 26 -- H 34          +0.9% (  7.4%)      6.1%
 EFFECTIVE MASS      1.6330
 FORCE CONSTANT      0.5781

 VIBRATION         85   85A           ATOM PAIR      ENERGY CONTRIBUTION    RADIAL
 FREQUENCY          1479.11         N 24 -- H 30         +51.6% ( 77.0%)      0.3%
 TRANSITION DIPOLE   0.3982         N 27 -- H 35         +10.8% ( 35.2%)      0.1%
 TRAVEL (Ang.)       0.2802         C 23 -- H 29          +9.9% ( 33.7%)      3.1%
 REDUCED MASS        0.5806         C 23 -- C 28          +8.4% ( 31.1%)     97.3%
 EFFECTIVE MASS      2.9635
 FORCE CONSTANT      0.7485

 VIBRATION         86   86A           ATOM PAIR      ENERGY CONTRIBUTION    RADIAL
 FREQUENCY          1488.47         N 27 -- H 35         +69.5% ( 85.4%)      0.0%
 TRANSITION DIPOLE   0.5884         N 24 -- H 30          +8.9% ( 30.6%)      0.3%
 TRAVEL (Ang.)       0.2776         C 26 -- N 27          +3.4% ( 18.9%)     28.3%
 REDUCED MASS        0.5878         N 27 -- C 28          +3.2% ( 18.3%)     17.6%
 EFFECTIVE MASS      2.2147
 FORCE CONSTANT      0.7673

 VIBRATION         87   87A           ATOM PAIR      ENERGY CONTRIBUTION    RADIAL
 FREQUENCY          1489.79         N 11 -- O 12         +29.1% ( 75.2%)     64.1%
 TRANSITION DIPOLE   7.9278         N 11 -- O 13         +29.0% ( 75.1%)     64.1%
 TRAVEL (Ang.)       0.0999         C  5 -- N 11         +17.8% ( 58.8%)    100.0%
 REDUCED MASS        4.5387         O 12 -- O 13         +15.4% ( 54.7%)    100.0%
 EFFECTIVE MASS     14.8259
 FORCE CONSTANT      5.9352

 VIBRATION         88   88A           ATOM PAIR      ENERGY CONTRIBUTION    RADIAL
 FREQUENCY          1497.93         N 19 -- O 20         +31.0% ( 75.4%)     70.9%
 TRANSITION DIPOLE   3.9385         N 19 -- O 21         +27.9% ( 71.5%)     64.1%
 TRAVEL (Ang.)       0.1017         O 20 -- O 21         +19.1% ( 59.2%)     99.9%
 REDUCED MASS        4.3533         C 14 -- N 19         +12.9% ( 48.5%)     99.9%
 EFFECTIVE MASS     14.8727
 FORCE CONSTANT      5.7551

 VIBRATION         89   89A           ATOM PAIR      ENERGY CONTRIBUTION    RADIAL
 FREQUENCY          1517.74         C  5 -- C  6         +13.9% ( 52.3%)     27.6%
 TRANSITION DIPOLE   0.2994         C  4 -- C  5         +13.3% ( 51.3%)     95.7%
 TRAVEL (Ang.)       0.1756         C  1 -- C  6         +10.5% ( 45.7%)     25.7%
 REDUCED MASS        1.4403         C  6 -- H 10         +10.3% ( 45.2%)      0.0%
 EFFECTIVE MASS     10.0008
 FORCE CONSTANT      1.9548

 VIBRATION         90   90A           ATOM PAIR      ENERGY CONTRIBUTION    RADIAL
 FREQUENCY          1553.52         C  2 -- C  3         +15.1% ( 54.3%)     65.2%
 TRANSITION DIPOLE   0.5722         C  3 -- C  4         +12.6% ( 49.6%)     65.9%
 TRAVEL (Ang.)       0.1758         C  5 -- C  6          +9.8% ( 43.9%)     74.4%
 REDUCED MASS        1.4050         C  1 -- C  2          +8.4% ( 40.6%)      0.4%
 EFFECTIVE MASS     10.0478
 FORCE CONSTANT      1.9978

 VIBRATION         91   91A           ATOM PAIR      ENERGY CONTRIBUTION    RADIAL
 FREQUENCY          1582.82         C 23 -- N 24         +41.6% ( 91.9%)     99.6%
 TRANSITION DIPOLE   2.1513         C 23 -- C 28         +16.1% ( 57.1%)     53.8%
 TRAVEL (Ang.)       0.0916         C 23 -- H 29         +14.4% ( 54.1%)      6.3%
 REDUCED MASS        5.0817         N 24 -- C 25         +12.4% ( 50.1%)     36.6%
 EFFECTIVE MASS     11.5736         N 24 -- H 30         +12.2% ( 49.7%)      8.8%
 FORCE CONSTANT      7.5011

 VIBRATION         92   92A           ATOM PAIR      ENERGY CONTRIBUTION    RADIAL
 FREQUENCY          1656.13         N 11 -- O 13         +35.4% ( 84.7%)     89.4%
 TRANSITION DIPOLE  11.1655         N 11 -- O 12         +34.9% ( 84.1%)     88.5%
 TRAVEL (Ang.)       0.0785         C  5 -- N 11         +21.0% ( 65.3%)      0.0%
 REDUCED MASS        6.6095         O 12 -- O 13          +6.2% ( 35.6%)      0.0%
 EFFECTIVE MASS     14.5912
 FORCE CONSTANT     10.6809

 VIBRATION         93   93A           ATOM PAIR      ENERGY CONTRIBUTION    RADIAL
 FREQUENCY          1675.66         N 19 -- O 21         +33.2% ( 81.7%)     91.1%
 TRANSITION DIPOLE  11.1826         N 19 -- O 20         +31.3% ( 79.3%)     87.5%
 TRAVEL (Ang.)       0.0854         C 14 -- N 19         +19.2% ( 62.2%)      0.3%
 REDUCED MASS        5.5135         O 20 -- O 21          +5.8% ( 34.2%)      0.5%
 EFFECTIVE MASS     14.3046
 FORCE CONSTANT      9.1212

 VIBRATION         94   94A           ATOM PAIR      ENERGY CONTRIBUTION    RADIAL
 FREQUENCY          1682.13         C  2 -- C  3         +14.7% ( 54.2%)     91.4%
 TRANSITION DIPOLE   2.6228         C  3 -- C  4         +13.2% ( 51.4%)     80.1%
 TRAVEL (Ang.)       0.1409         C  5 -- C  6         +13.2% ( 51.4%)     95.9%
 REDUCED MASS        2.0206         C  1 -- C  6         +11.3% ( 47.6%)     81.8%
 EFFECTIVE MASS     12.2890
 FORCE CONSTANT      3.3686

 VIBRATION         95   95A           ATOM PAIR      ENERGY CONTRIBUTION    RADIAL
 FREQUENCY          1695.18         C  4 -- C  5         +18.3% ( 60.6%)     99.7%
 TRANSITION DIPOLE   2.1719         C  1 -- C  2         +15.4% ( 55.6%)     98.7%
 TRAVEL (Ang.)       0.1294         C  3 -- C  4         +11.4% ( 47.7%)     61.9%
 REDUCED MASS        2.3752         C  1 -- C  6          +9.8% ( 44.3%)     58.0%
 EFFECTIVE MASS     11.9829
 FORCE CONSTANT      4.0215

 VIBRATION         96   96A           ATOM PAIR      ENERGY CONTRIBUTION    RADIAL
 FREQUENCY          1896.69         C 14 -- H 22         +89.1% ( 99.1%)    100.0%
 TRANSITION DIPOLE   1.2682         C 14 -- N 19          +3.3% ( 19.0%)      0.4%
 TRAVEL (Ang.)       0.1453         C 14 -- C 15          +3.2% ( 18.8%)      8.0%
 REDUCED MASS        1.6833         C  3 -- C 14          +3.2% ( 18.6%)      7.6%
 EFFECTIVE MASS      2.9857
 FORCE CONSTANT      3.5678

 VIBRATION         97   97A           ATOM PAIR      ENERGY CONTRIBUTION    RADIAL
 FREQUENCY          2569.80         H 39 -- O 40         +83.8% ( 93.7%)     98.3%
 TRANSITION DIPOLE   2.7806         H 38 -- O 40         +15.4% ( 40.1%)     90.4%
 TRAVEL (Ang.)       0.1884         N 27 -- H 35          +0.3% (  5.9%)     99.9%
 REDUCED MASS        0.7395         C 15 -- H 18          +0.1% (  3.6%)     99.4%
 EFFECTIVE MASS      1.4738
 FORCE CONSTANT      2.8775

 VIBRATION         98   98A           ATOM PAIR      ENERGY CONTRIBUTION    RADIAL
 FREQUENCY          2621.70         C 25 -- H 32         +48.8% ( 72.4%)     98.8%
 TRANSITION DIPOLE   0.5952         C 25 -- H 31         +33.2% ( 59.7%)     97.4%
 TRAVEL (Ang.)       0.2627         C 26 -- H 34          +9.2% ( 31.5%)     98.4%
 REDUCED MASS        0.3727         C 26 -- H 33          +6.8% ( 27.0%)     98.3%
 EFFECTIVE MASS      1.4222
 FORCE CONSTANT      1.5093

 VIBRATION         99   99A           ATOM PAIR      ENERGY CONTRIBUTION    RADIAL
 FREQUENCY          2625.28         C 28 -- H 37         +52.8% ( 75.1%)     98.6%
 TRANSITION DIPOLE   0.6830         C 28 -- H 36         +44.3% ( 68.8%)     98.0%
 TRAVEL (Ang.)       0.2296         N 27 -- H 35          +1.0% ( 10.6%)     99.4%
 REDUCED MASS        0.4874         N 27 -- C 28          +0.8% (  9.5%)      0.0%
 EFFECTIVE MASS      1.4113
 FORCE CONSTANT      1.9791

 VIBRATION        100  100A           ATOM PAIR      ENERGY CONTRIBUTION    RADIAL
 FREQUENCY          2636.55         C 15 -- H 18         +66.3% ( 84.2%)     99.6%
 TRANSITION DIPOLE   1.1034         C 15 -- H 17         +20.4% ( 46.7%)     89.2%
 TRAVEL (Ang.)       0.2235         C 15 -- H 16         +12.2% ( 36.1%)     80.4%
 REDUCED MASS        0.5120         C 14 -- C 15          +0.9% (  9.7%)      0.1%
 EFFECTIVE MASS      1.4480
 FORCE CONSTANT      2.0971

 VIBRATION        101  101A           ATOM PAIR      ENERGY CONTRIBUTION    RADIAL
 FREQUENCY          2640.89         C 26 -- H 33         +44.9% ( 69.3%)     98.5%
 TRANSITION DIPOLE   0.9456         C 26 -- H 34         +36.2% ( 62.2%)     97.8%
 TRAVEL (Ang.)       0.2668         C 25 -- H 31          +8.8% ( 30.6%)     97.9%
 REDUCED MASS        0.3587         C 25 -- H 32          +7.1% ( 27.5%)     98.1%
 EFFECTIVE MASS      1.4491
 FORCE CONSTANT      1.4738

 VIBRATION        102  102A           ATOM PAIR      ENERGY CONTRIBUTION    RADIAL
 FREQUENCY          2644.30         C 15 -- H 16         +52.4% ( 74.8%)     98.3%
 TRANSITION DIPOLE   1.0426         C 15 -- H 17         +45.2% ( 69.5%)     97.4%
 TRAVEL (Ang.)       0.2265         C 15 -- H 18          +1.3% ( 11.8%)     11.3%
 REDUCED MASS        0.4969         C 14 -- C 15          +0.9% (  9.9%)      0.0%
 EFFECTIVE MASS      1.4563
 FORCE CONSTANT      2.0471

 VIBRATION        103  103A           ATOM PAIR      ENERGY CONTRIBUTION    RADIAL
 FREQUENCY          2696.69         C  4 -- H  9         +86.7% ( 94.1%)    100.0%
 TRANSITION DIPOLE   1.6202         C  6 -- H 10          +6.1% ( 24.9%)    100.0%
 TRAVEL (Ang.)       0.1842         C  2 -- H  8          +4.9% ( 22.3%)    100.0%
 REDUCED MASS        0.7372         C  3 -- C  4          +1.0% ( 10.0%)     23.4%
 EFFECTIVE MASS      1.3818
 FORCE CONSTANT      3.1586

 VIBRATION        104  104A           ATOM PAIR      ENERGY CONTRIBUTION    RADIAL
 FREQUENCY          2701.51         C  6 -- H 10         +51.7% ( 72.7%)    100.0%
 TRANSITION DIPOLE   1.6987         C  2 -- H  8         +45.8% ( 68.4%)    100.0%
 TRAVEL (Ang.)       0.2321         C  5 -- C  6          +0.6% (  7.7%)     23.5%
 REDUCED MASS        0.4632         C  1 -- C  6          +0.6% (  7.6%)     22.5%
 EFFECTIVE MASS      1.3762
 FORCE CONSTANT      1.9915

 VIBRATION        105  105A           ATOM PAIR      ENERGY CONTRIBUTION    RADIAL
 FREQUENCY          2706.04         C  2 -- H  8         +43.0% ( 66.3%)    100.0%
 TRANSITION DIPOLE   0.1806         C  6 -- H 10         +38.1% ( 62.4%)    100.0%
 TRAVEL (Ang.)       0.2723         C  4 -- H  9          +9.9% ( 31.8%)    100.0%
 REDUCED MASS        0.3360         C  1 -- H  7          +6.6% ( 25.9%)    100.0%
 EFFECTIVE MASS      1.4227
 FORCE CONSTANT      1.4494

 VIBRATION        106  106A           ATOM PAIR      ENERGY CONTRIBUTION    RADIAL
 FREQUENCY          2711.07         C 28 -- H 36         +46.2% ( 66.8%)     97.4%
 TRANSITION DIPOLE   1.1391         C 28 -- H 37         +36.8% ( 59.6%)     95.8%
 TRAVEL (Ang.)       0.2659         C 25 -- H 31          +7.3% ( 26.6%)     97.8%
 REDUCED MASS        0.3518         C 25 -- H 32          +5.1% ( 22.2%)     95.5%
 EFFECTIVE MASS      1.2290
 FORCE CONSTANT      1.5234

 VIBRATION        107  107A           ATOM PAIR      ENERGY CONTRIBUTION    RADIAL
 FREQUENCY          2716.79         C 25 -- H 31         +48.8% ( 68.6%)     97.6%
 TRANSITION DIPOLE   0.7063         C 25 -- H 32         +35.9% ( 58.8%)     95.5%
 TRAVEL (Ang.)       0.2597         C 28 -- H 36          +6.5% ( 25.0%)     96.9%
 REDUCED MASS        0.3679         C 28 -- H 37          +5.8% ( 23.7%)     96.0%
 EFFECTIVE MASS      1.2426
 FORCE CONSTANT      1.5999

 VIBRATION        108  108A           ATOM PAIR      ENERGY CONTRIBUTION    RADIAL
 FREQUENCY          2720.68         N 24 -- H 30         +37.2% ( 60.5%)     99.6%
 TRANSITION DIPOLE   1.1089         C 26 -- H 34         +28.8% ( 53.2%)     96.7%
 TRAVEL (Ang.)       0.2912         C 26 -- H 33         +28.0% ( 52.5%)     96.5%
 REDUCED MASS        0.2923         N 27 -- H 35          +3.0% ( 17.1%)     97.7%
 EFFECTIVE MASS      1.2699
 FORCE CONSTANT      1.2747

 VIBRATION        109  109A           ATOM PAIR      ENERGY CONTRIBUTION    RADIAL
 FREQUENCY          2724.12         N 24 -- H 30         +60.3% ( 77.4%)     99.7%
 TRANSITION DIPOLE   0.9168         C 26 -- H 34         +18.1% ( 42.4%)     96.3%
 TRAVEL (Ang.)       0.2473         C 26 -- H 33         +16.9% ( 40.9%)     96.4%
 REDUCED MASS        0.4046         C 28 -- H 36          +1.2% ( 11.1%)     97.7%
 EFFECTIVE MASS      1.3214
 FORCE CONSTANT      1.7691

 VIBRATION        110  110A           ATOM PAIR      ENERGY CONTRIBUTION    RADIAL
 FREQUENCY          2736.17         C  1 -- H  7         +91.1% ( 96.3%)    100.0%
 TRANSITION DIPOLE   1.3975         C  2 -- H  8          +3.8% ( 19.6%)     99.3%
 TRAVEL (Ang.)       0.1745         C  6 -- H 10          +1.8% ( 13.6%)     98.2%
 REDUCED MASS        0.8092         C  1 -- C  2          +1.1% ( 10.6%)     40.4%
 EFFECTIVE MASS      1.4055
 FORCE CONSTANT      3.5692

 VIBRATION        111  111A           ATOM PAIR      ENERGY CONTRIBUTION    RADIAL
 FREQUENCY          2743.65         N 27 -- H 35         +91.0% ( 95.6%)     99.5%
 TRANSITION DIPOLE   1.0946         C 26 -- H 34          +4.7% ( 21.8%)     98.1%
 TRAVEL (Ang.)       0.1758         C 28 -- H 37          +1.1% ( 10.5%)     97.6%
 REDUCED MASS        0.7952         C 23 -- H 29          +0.6% (  8.1%)     99.9%
 EFFECTIVE MASS      1.3608
 FORCE CONSTANT      3.5268

 VIBRATION        112  112A           ATOM PAIR      ENERGY CONTRIBUTION    RADIAL
 FREQUENCY          2751.84         C 23 -- H 29         +96.3% ( 98.9%)     99.9%
 TRANSITION DIPOLE   0.8826         C 23 -- C 28          +0.9% (  9.6%)     15.8%
 TRAVEL (Ang.)       0.1653         C 23 -- N 24          +0.9% (  9.5%)     22.0%
 REDUCED MASS        0.8964         N 27 -- H 35          +0.7% (  8.5%)     98.6%
 EFFECTIVE MASS      1.3693
 FORCE CONSTANT      3.9994

 VIBRATION        113  113A           ATOM PAIR      ENERGY CONTRIBUTION    RADIAL
 FREQUENCY          2764.90         C 15 -- H 16         +34.8% ( 56.5%)     95.8%
 TRANSITION DIPOLE   0.7205         C 15 -- H 17         +33.6% ( 55.4%)     95.4%
 TRAVEL (Ang.)       0.2736         C 15 -- H 18         +31.1% ( 53.3%)     94.9%
 REDUCED MASS        0.3259         C 14 -- C 15          +0.3% (  4.9%)     99.9%
 EFFECTIVE MASS      1.1404
 FORCE CONSTANT      1.4678

 VIBRATION        114  114A           ATOM PAIR      ENERGY CONTRIBUTION    RADIAL
 FREQUENCY          2799.41         H 38 -- O 40         +87.8% ( 90.8%)     99.6%
 TRANSITION DIPOLE   1.1713         H 39 -- O 40         +11.7% ( 33.1%)     97.0%
 TRAVEL (Ang.)       0.1832         C  2 -- H  8          +0.2% (  4.8%)     99.5%
 REDUCED MASS        0.7177         N 27 -- H 35          +0.1% (  3.1%)     97.5%
 EFFECTIVE MASS      1.2223
 FORCE CONSTANT      3.3139

      SYMMETRY NUMBER FOR POINT-GROUP C1  =  1


          SYSTEM IS A GROUND STATE



 Title: ASE calculation


          MOLECULE IS NOT LINEAR

          THERE ARE  114 GENUINE VIBRATIONS IN THIS SYSTEM
          THIS THERMODYNAMICS CALCULATION IS LIMITED TO
          MOLECULES WHICH HAVE NO INTERNAL ROTATIONS




                    CALCULATED THERMODYNAMIC PROPERTIES
                                          *
   TEMP. (K)   PARTITION FUNCTION   H.O.F.    ENTHALPY  HEAT CAPACITY ENTROPY
                                   KCAL/MOL   CAL/MOLE    CAL/K/MOL  CAL/K/MOL


 298.00  VIB.     0.2852D+13                 13536.9979    78.0125   102.4170
         ROT.     0.1353D+08                   888.2803     2.9808    35.6121
         INT.     0.3859D+20                 14425.2782    80.9933   138.0291
         TRA.     0.5031D+28                  1480.4672     4.9680    42.9936
         TOT.                      -67.874   15905.7454    85.9613   181.0228

   *: NOTE: HEATS OF FORMATION ARE RELATIVE TO THE
            ELEMENTS IN THEIR STANDARD STATE AT 298K
              (=  Standard Enthalpy of Formation).

            Hvib:  Zero-point energy is not included.
                   frequencies of less than zero cm-1 are not included.
            Hrot = (3/2)RT
            Htra = (3/2)RT + pV = (5/2)RT

            Heat capacity is Cp, not Cv

          For more information, see: HTTP://OpenMOPAC.net/Manual/thermochemistry.html


           FORCE CONSTANT IN CARTESIAN COORDINATES (Millidynes/A)

    ATOM   CHEMICAL       X               Y               Z
   NUMBER   SYMBOL  FORCE CONSTANT  FORCE CONSTANT  FORCE CONSTANT

      1       C       10.879749       10.123165        2.314330
      2       C       10.943723        9.871314        2.433329
      3       C       10.532122       11.702102        2.733967
      4       C       11.013159       10.139876        2.490426
      5       C       11.838957       10.710568        2.315322
      6       C        9.680722       11.359784        2.333888
      7       H        1.727973        3.381892        0.401189
      8       H        1.702259        3.325305        0.404691
      9       H        1.738753        3.291113        0.390236
     10       H        4.086583        0.896005        0.371354
     11       N       14.172161       12.153334        2.954657
     12       O       11.889181        1.648177        0.472651
     13       O        4.505636        9.010379        0.305935
     14       C        7.468496        7.222559        6.217278
     15       C        6.289414        6.359691        6.348677
     16       H        3.978954        0.610991        0.691716
     17       H        0.706151        3.898631        0.680911
     18       H        1.032605        0.943283        3.259651
     19       N        6.752574       13.429963        8.804604
     20       O        4.316535        5.136598        4.560381
     21       O        1.338063       10.952168        1.738218
     22       H        1.199300        3.477553        0.868821
     23       C       10.015317        4.870033        5.989198
     24       N       10.635142        3.822161        6.909170
     25       C        7.123815        6.698440        6.866135
     26       C        7.224354        6.726925        6.923561
     27       N        7.398139        4.873158        7.632700
     28       C        7.317062        6.683099        7.276751
     29       H        1.101290        1.369820        2.897242
     30       H        2.580816        0.982714        1.946932
     31       H        3.844091        0.892900        0.771362
     32       H        0.624444        1.630207        3.232692
     33       H        1.137113        1.586088        2.785897
     34       H        1.022611        1.968947        2.603665
     35       H        1.179593        1.559448        3.198815
     36       H        3.370746        1.267299        0.857370
     37       H        0.745248        2.390600        2.340651
     38       H        0.253927        0.672319        3.917561
     39       H        1.090802        2.846829        0.698798
     40       O        1.178657        3.310013        4.132366

 **********************
 *                    *
 * JOB ENDED NORMALLY *
 *                    *
 **********************



 TOTAL JOB TIME:            22.81 SECONDS

 == MOPAC DONE ==
