 *******************************************************************************
 **                                                                           **
 **                              MOPAC v22.0.6                                **
 **                                                                           **
 *******************************************************************************
 **          Digital Object Identifier (DOI): 10.5281/zenodo.6511958          **
 **    Visit the DOI location for information on how to cite this program.    **
 *******************************************************************************

                              PM7 CALCULATION RESULTS

 *******************************************************************************
 *  CALCULATION DONE:                                Sun Mar 24 13:35:26 2024  *
 *  PM7        - The PM7 Hamiltonian to be used
 *  SINGLET    - SPIN STATE DEFINED AS A SINGLET
 *
 *
 *
 *                 CHARGE ON SYSTEM = 0
 *
 *
 *
 *  EPS=78.4   - USE ANDREAS KLAMT'S COSMO IMPLICIT SOLVATION MODEL
 *  THREADS    - USE A MAXIMUM OF 30 THREADS
 *  T=         - A TIME OF 14.0 DAYS REQUESTED
 *  DUMP=N     - RESTART FILE WRITTEN EVERY 30.0 MINUTES REQUESTED
 *  RELSCF     - DEFAULT SCF CRITERION MULTIPLIED BY 1.0000
 *              (DEFAULT SCF CRITERION = 0.00010)
 *  ITRY=      - DO A MAXIMUM OF 15000 ITERATIONS FOR SCF
 *  AUX        - OUTPUT AUXILIARY INFORMATION
 *  BONDS      - FINAL BOND-ORDER MATRIX TO BE PRINTED
 *******************************************************************************
PM7 BONDS AUX DUMP=30M ITRY=15000 T=14D THREADS=30 CHARGE=0 SINGLET eps=78.4 RELSCF=1
 Title: ASE calculation

   ATOM   CHEMICAL          X               Y               Z
  NUMBER   SYMBOL      (ANGSTROMS)     (ANGSTROMS)     (ANGSTROMS)

     1       C          0.69338934  *   0.06229265  *   0.45902909  *
     2       H          0.29711745  *  -0.19798881  *   1.44714821  *
     3       N          0.54091529  *  -2.28005333  *  -0.16597422  *
     4       O          0.16400436  *  -2.61877870  *   0.98619072  *
     5       O          0.68364367  *  -3.20204781  *  -1.01615117  *
     6       H          1.48397596  *   1.62507659  *  -0.76675896  *
     7       C          0.78142577     -1.01278009     -0.49742507   
     8       H          1.09416970  *  -0.79419062  *  -1.51378027  *
     9       H          3.50156496     -0.64963322  *  -0.48057684  *
    10       C          1.07559186  *   1.31465163  *   0.17946858  *
    11       H          1.01958062  *   2.12322564  *   0.88761691  *
    12       C          7.16705282  *   0.00235945  *   1.42339142  *
    13       C          8.29530651  *   0.61520866  *   1.97901770  *
    14       C          8.27869643  *   2.00093387  *   2.17524909  *
    15       C          7.15135112  *   2.73412083  *   1.81527896  *
    16       C          6.05277101  *   2.08300400  *   1.25733039  *
    17       N          6.07913993  *   0.73719707  *   1.07447376  *
    18       H          7.12302286  *  -1.08899002  *   1.25328573  *
    19       H          7.11970690  *   3.81927225  *   1.96410209  *
    20       H          5.14354521  *   2.62697104  *   0.94869301  *
    21       C          9.47499219  *  -0.20676523  *   2.33271721  *
    22       H         10.27913733  *   0.37448972  *   2.81071906  *
    23       H          9.92164900  *  -0.68535026  *   1.44255406  *
    24       H          9.22299662  *  -1.02425636  *   3.03104397  *
    25       H          9.14922113  *   2.50601186  *   2.60899619  *
    26       H          4.67287401  *  -1.61488609  *  -0.30915121  *
    27       O          4.48707341     -0.68186494     -0.51915829   
    28       H          5.25223680  *   0.24955982  *   0.62827457  *



          CARTESIAN COORDINATES 

    NO.       ATOM           X           Y           Z

     1         C          0.6934      0.0623      0.4590
     2         H          0.2971     -0.1980      1.4471
     3         N          0.5409     -2.2801     -0.1660
     4         O          0.1640     -2.6188      0.9862
     5         O          0.6836     -3.2020     -1.0162
     6         H          1.4840      1.6251     -0.7668
     7         C          0.7814     -1.0128     -0.4974
     8         H          1.0942     -0.7942     -1.5138
     9         H          3.5016     -0.6496     -0.4806
    10         C          1.0756      1.3147      0.1795
    11         H          1.0196      2.1232      0.8876
    12         C          7.1671      0.0024      1.4234
    13         C          8.2953      0.6152      1.9790
    14         C          8.2787      2.0009      2.1752
    15         C          7.1514      2.7341      1.8153
    16         C          6.0528      2.0830      1.2573
    17         N          6.0791      0.7372      1.0745
    18         H          7.1230     -1.0890      1.2533
    19         H          7.1197      3.8193      1.9641
    20         H          5.1435      2.6270      0.9487
    21         C          9.4750     -0.2068      2.3327
    22         H         10.2791      0.3745      2.8107
    23         H          9.9216     -0.6854      1.4426
    24         H          9.2230     -1.0243      3.0310
    25         H          9.1492      2.5060      2.6090
    26         H          4.6729     -1.6149     -0.3092
    27         O          4.4871     -0.6819     -0.5192
    28         H          5.2522      0.2496      0.6283

 General Reference for PM7:
 "Optimization of Parameters for Semiempirical Methods VI: More Modifications to the 
 NDDO Approximations and Re-optimization of Parameters", J. J. P. Stewart, J. Mol. Mod., 1:32, 19 (2013)
 https://link.springer.com/article/10.1007/s00894-012-1667-x

           Empirical Formula: C9 H14 N2 O3  =    28 atoms



      MOLECULAR POINT GROUP   :   C1  


 SINGLET STATE CALCULATION


      RHF CALCULATION, NO. OF DOUBLY OCCUPIED LEVELS = 39


          Geometry optimization using EF
  SCF CRITERION =    0.1000E-03

          DIAGONAL MATRIX USED AS START HESSIAN

 CYCLE:     1 TIME:   0.094 TIME LEFT:  2.00W  GRAD.:     2.665 HEAT: -58.57408

     TRUST RADIUS NOW LESS THAN  0.00010 OPTIMIZATION TERMINATING
      THE GEOMETRY MAY NOT BE COMPLETELY OPTIMIZED
      (TO CONTINUE, ADD 'LET DDMIN=0.0' TO THE KEYWORD LINE)

 -------------------------------------------------------------------------------
 PM7 BONDS AUX DUMP=30M ITRY=15000 T=14D THREADS=30 CHARGE=0 SINGLET eps=78.4 RELSCF=1
 Title: ASE calculation



     GEOMETRY OPTIMISED USING EIGENVECTOR FOLLOWING (EF).     
     SCF FIELD WAS ACHIEVED                                   


                              PM7 CALCULATION
                                                       MOPAC v22.0.6 Linux
                                                       Sun Mar 24 13:35:26 2024




          FINAL HEAT OF FORMATION =        -58.57412 KCAL/MOL =    -245.07411 KJ/MOL
          VAN DER WAALS AREA      =        266.44 SQUARE ANGSTROMS



          DIELECTRIC ENERGY       =         -2.92128 EV
          COSMO AREA              =        266.44 SQUARE ANGSTROMS
          COSMO VOLUME            =        265.39 CUBIC ANGSTROMS

          GRADIENT NORM           =          2.66517          =       0.50367 PER ATOM
          IONIZATION POTENTIAL    =          8.547794 EV
          HOMO LUMO ENERGIES (EV) =         -8.548 -1.287
          NO. OF FILLED LEVELS    =         39
          MOLECULAR WEIGHT        =        198.2212         POINT GROUP:  C1  

          MOLECULAR DIMENSIONS (Angstroms)

            Atom       Atom       Distance
            H    22    O     5    10.93207
            H    23    H    11     6.09817
            O     4    H     6     3.62762


          SCF CALCULATIONS        =         10

          WALL-CLOCK TIME         =      0.309 SECONDS
          COMPUTATION TIME        =     21.069 SECONDS



       FINAL  POINT  AND  DERIVATIVES

   PARAMETER     ATOM    TYPE            VALUE        GRADIENT
      1          1  C    CARTESIAN X     0.693389     -0.070528  KCAL/ANGSTROM
      2          1  C    CARTESIAN Y     0.062293      0.117104  KCAL/ANGSTROM
      3          1  C    CARTESIAN Z     0.459029      0.064200  KCAL/ANGSTROM
      4          2  H    CARTESIAN X     0.297117     -0.099564  KCAL/ANGSTROM
      5          2  H    CARTESIAN Y    -0.197989      0.062178  KCAL/ANGSTROM
      6          2  H    CARTESIAN Z     1.447148      0.002786  KCAL/ANGSTROM
      7          3  N    CARTESIAN X     0.540915     -0.298398  KCAL/ANGSTROM
      8          3  N    CARTESIAN Y    -2.280053     -0.290944  KCAL/ANGSTROM
      9          3  N    CARTESIAN Z    -0.165974     -0.076393  KCAL/ANGSTROM
     10          4  O    CARTESIAN X     0.164004     -0.887679  KCAL/ANGSTROM
     11          4  O    CARTESIAN Y    -2.618779      0.162398  KCAL/ANGSTROM
     12          4  O    CARTESIAN Z     0.986191     -0.319480  KCAL/ANGSTROM
     13          5  O    CARTESIAN X     0.683644      0.824689  KCAL/ANGSTROM
     14          5  O    CARTESIAN Y    -3.202048      0.465122  KCAL/ANGSTROM
     15          5  O    CARTESIAN Z    -1.016151      0.461848  KCAL/ANGSTROM
     16          6  H    CARTESIAN X     1.483976      0.071971  KCAL/ANGSTROM
     17          6  H    CARTESIAN Y     1.625077      0.140995  KCAL/ANGSTROM
     18          6  H    CARTESIAN Z    -0.766759      0.011800  KCAL/ANGSTROM
     19          8  H    CARTESIAN X     1.094170     -0.299568  KCAL/ANGSTROM
     20          8  H    CARTESIAN Y    -0.794191     -0.088011  KCAL/ANGSTROM
     21          8  H    CARTESIAN Z    -1.513780      0.089661  KCAL/ANGSTROM
     22          9  H    CARTESIAN Y    -0.649633     -0.034735  KCAL/ANGSTROM
     23          9  H    CARTESIAN Z    -0.480577     -0.746087  KCAL/ANGSTROM
     24         10  C    CARTESIAN X     1.075592     -0.039394  KCAL/ANGSTROM
     25         10  C    CARTESIAN Y     1.314652      0.042943  KCAL/ANGSTROM
     26         10  C    CARTESIAN Z     0.179469     -0.042284  KCAL/ANGSTROM
     27         11  H    CARTESIAN X     1.019581     -0.088868  KCAL/ANGSTROM
     28         11  H    CARTESIAN Y     2.123226      0.022419  KCAL/ANGSTROM
     29         11  H    CARTESIAN Z     0.887617      0.088015  KCAL/ANGSTROM
     30         12  C    CARTESIAN X     7.167053     -0.262462  KCAL/ANGSTROM
     31         12  C    CARTESIAN Y     0.002359     -0.164087  KCAL/ANGSTROM
     32         12  C    CARTESIAN Z     1.423391     -0.139715  KCAL/ANGSTROM
     33         13  C    CARTESIAN X     8.295307     -0.284014  KCAL/ANGSTROM
     34         13  C    CARTESIAN Y     0.615209     -0.215453  KCAL/ANGSTROM
     35         13  C    CARTESIAN Z     1.979018     -0.075608  KCAL/ANGSTROM
     36         14  C    CARTESIAN X     8.278696     -0.107543  KCAL/ANGSTROM
     37         14  C    CARTESIAN Y     2.000934     -0.163015  KCAL/ANGSTROM
     38         14  C    CARTESIAN Z     2.175249     -0.109830  KCAL/ANGSTROM
     39         15  C    CARTESIAN X     7.151351     -0.122175  KCAL/ANGSTROM
     40         15  C    CARTESIAN Y     2.734121     -0.198857  KCAL/ANGSTROM
     41         15  C    CARTESIAN Z     1.815279     -0.116623  KCAL/ANGSTROM
     42         16  C    CARTESIAN X     6.052771     -0.044136  KCAL/ANGSTROM
     43         16  C    CARTESIAN Y     2.083004     -0.067942  KCAL/ANGSTROM
     44         16  C    CARTESIAN Z     1.257330     -0.131172  KCAL/ANGSTROM
     45         17  N    CARTESIAN X     6.079140      0.050368  KCAL/ANGSTROM
     46         17  N    CARTESIAN Y     0.737197      0.064783  KCAL/ANGSTROM
     47         17  N    CARTESIAN Z     1.074474      0.003156  KCAL/ANGSTROM
     48         18  H    CARTESIAN X     7.123023     -0.099850  KCAL/ANGSTROM
     49         18  H    CARTESIAN Y    -1.088990     -0.256972  KCAL/ANGSTROM
     50         18  H    CARTESIAN Z     1.253286      0.009115  KCAL/ANGSTROM
     51         19  H    CARTESIAN X     7.119707     -0.100695  KCAL/ANGSTROM
     52         19  H    CARTESIAN Y     3.819272     -0.258142  KCAL/ANGSTROM
     53         19  H    CARTESIAN Z     1.964102     -0.044151  KCAL/ANGSTROM
     54         20  H    CARTESIAN X     5.143545      0.213466  KCAL/ANGSTROM
     55         20  H    CARTESIAN Y     2.626971     -0.093105  KCAL/ANGSTROM
     56         20  H    CARTESIAN Z     0.948693     -0.219914  KCAL/ANGSTROM
     57         21  C    CARTESIAN X     9.474992     -0.108361  KCAL/ANGSTROM
     58         21  C    CARTESIAN Y    -0.206765      0.017606  KCAL/ANGSTROM
     59         21  C    CARTESIAN Z     2.332717     -0.037648  KCAL/ANGSTROM
     60         22  H    CARTESIAN X    10.279137     -0.203382  KCAL/ANGSTROM
     61         22  H    CARTESIAN Y     0.374490      0.086146  KCAL/ANGSTROM
     62         22  H    CARTESIAN Z     2.810719     -0.092841  KCAL/ANGSTROM
     63         23  H    CARTESIAN X     9.921649     -0.093612  KCAL/ANGSTROM
     64         23  H    CARTESIAN Y    -0.685350      0.134236  KCAL/ANGSTROM
     65         23  H    CARTESIAN Z     1.442554     -0.019471  KCAL/ANGSTROM
     66         24  H    CARTESIAN X     9.222997      0.266851  KCAL/ANGSTROM
     67         24  H    CARTESIAN Y    -1.024256     -0.007462  KCAL/ANGSTROM
     68         24  H    CARTESIAN Z     3.031044     -0.010389  KCAL/ANGSTROM
     69         25  H    CARTESIAN X     9.149221     -0.021627  KCAL/ANGSTROM
     70         25  H    CARTESIAN Y     2.506012     -0.177590  KCAL/ANGSTROM
     71         25  H    CARTESIAN Z     2.608996     -0.079620  KCAL/ANGSTROM
     72         26  H    CARTESIAN X     4.672874     -1.655764  KCAL/ANGSTROM
     73         26  H    CARTESIAN Y    -1.614886      0.154841  KCAL/ANGSTROM
     74         26  H    CARTESIAN Z    -0.309151      0.477916  KCAL/ANGSTROM
     75         28  H    CARTESIAN X     5.252237      0.023850  KCAL/ANGSTROM
     76         28  H    CARTESIAN Y     0.249560      0.410859  KCAL/ANGSTROM
     77         28  H    CARTESIAN Z     0.628275      0.354330  KCAL/ANGSTROM




   ATOM   CHEMICAL          X               Y               Z
  NUMBER   SYMBOL      (ANGSTROMS)     (ANGSTROMS)     (ANGSTROMS)

     1       C          0.69338934  *   0.06229265  *   0.45902909  *
     2       H          0.29711745  *  -0.19798881  *   1.44714821  *
     3       N          0.54091529  *  -2.28005333  *  -0.16597422  *
     4       O          0.16400436  *  -2.61877870  *   0.98619072  *
     5       O          0.68364367  *  -3.20204781  *  -1.01615117  *
     6       H          1.48397596  *   1.62507659  *  -0.76675896  *
     7       C          0.78142577     -1.01278009     -0.49742507   
     8       H          1.09416970  *  -0.79419062  *  -1.51378027  *
     9       H          3.50156496     -0.64963322  *  -0.48057684  *
    10       C          1.07559186  *   1.31465163  *   0.17946858  *
    11       H          1.01958062  *   2.12322564  *   0.88761691  *
    12       C          7.16705282  *   0.00235945  *   1.42339142  *
    13       C          8.29530651  *   0.61520866  *   1.97901770  *
    14       C          8.27869643  *   2.00093387  *   2.17524909  *
    15       C          7.15135112  *   2.73412083  *   1.81527896  *
    16       C          6.05277101  *   2.08300400  *   1.25733039  *
    17       N          6.07913993  *   0.73719707  *   1.07447376  *
    18       H          7.12302286  *  -1.08899002  *   1.25328573  *
    19       H          7.11970690  *   3.81927225  *   1.96410209  *
    20       H          5.14354521  *   2.62697104  *   0.94869301  *
    21       C          9.47499219  *  -0.20676523  *   2.33271721  *
    22       H         10.27913733  *   0.37448972  *   2.81071906  *
    23       H          9.92164900  *  -0.68535026  *   1.44255406  *
    24       H          9.22299662  *  -1.02425636  *   3.03104397  *
    25       H          9.14922113  *   2.50601186  *   2.60899619  *
    26       H          4.67287401  *  -1.61488609  *  -0.30915121  *
    27       O          4.48707341     -0.68186494     -0.51915829   
    28       H          5.25223680  *   0.24955982  *   0.62827457  *

                             CARTESIAN COORDINATES

   1    C        0.693389340     0.062292650     0.459029090
   2    H        0.297117450    -0.197988810     1.447148210
   3    N        0.540915290    -2.280053330    -0.165974220
   4    O        0.164004360    -2.618778700     0.986190720
   5    O        0.683643670    -3.202047810    -1.016151170
   6    H        1.483975960     1.625076590    -0.766758960
   7    C        0.781425770    -1.012780090    -0.497425070
   8    H        1.094169700    -0.794190620    -1.513780270
   9    H        3.501564960    -0.649633220    -0.480576840
  10    C        1.075591860     1.314651630     0.179468580
  11    H        1.019580620     2.123225640     0.887616910
  12    C        7.167052820     0.002359450     1.423391420
  13    C        8.295306510     0.615208660     1.979017700
  14    C        8.278696430     2.000933870     2.175249090
  15    C        7.151351120     2.734120830     1.815278960
  16    C        6.052771010     2.083004000     1.257330390
  17    N        6.079139930     0.737197070     1.074473760
  18    H        7.123022860    -1.088990020     1.253285730
  19    H        7.119706900     3.819272250     1.964102090
  20    H        5.143545210     2.626971040     0.948693010
  21    C        9.474992190    -0.206765230     2.332717210
  22    H       10.279137330     0.374489720     2.810719060
  23    H        9.921649000    -0.685350260     1.442554060
  24    H        9.222996620    -1.024256360     3.031043970
  25    H        9.149221130     2.506011860     2.608996190
  26    H        4.672874010    -1.614886090    -0.309151210
  27    O        4.487073410    -0.681864940    -0.519158290
  28    H        5.252236800     0.249559820     0.628274570


           Empirical Formula: C9 H14 N2 O3  =    28 atoms



      MOLECULAR POINT GROUP   :   C1  


                  EIGENVALUES  
 -38.65480 -35.93574 -30.19003 -29.62502 -28.28209 -28.01166 -27.65475 -25.58559
 -25.18581 -23.54335 -22.09743 -21.23396 -19.68980 -19.35209 -17.95549 -17.80149
 -17.64111 -17.04777 -17.03940 -16.16939 -16.07720 -15.96163 -15.20704 -15.01982
 -14.34024 -14.25934 -14.12561 -13.90762 -13.42851 -13.04781 -12.61512 -12.02650
 -11.65972 -11.43563 -11.11796 -10.92888 -10.80994 -10.67005  -8.54779  -1.28726
  -0.92958   0.43240   1.23503   1.36589   1.86352   2.05473   3.07336   3.20032
   3.54725   3.65564   4.04481   4.10733   4.24310   4.31858   4.67960   4.85934
   5.33591   5.35074   5.37201   5.40986   5.49204   5.58098   5.65478   5.93351
   6.13246   6.16710   6.38995   6.57717   6.61933   6.88686


              NET ATOMIC CHARGES AND DIPOLE CONTRIBUTIONS

  ATOM NO.   TYPE          CHARGE      No. of ELECS.   s-Pop       p-Pop       
    1          C          -0.046929        4.0469     1.07847     2.96846
    2          H           0.153737        0.8463     0.84626
    3          N           0.717144        4.2829     1.41468     2.86818
    4          O          -0.699673        6.6997     1.94463     4.75504
    5          O          -0.712529        6.7125     1.94551     4.76702
    6          H           0.147928        0.8521     0.85207
    7          C          -0.469166        4.4692     1.05618     3.41299
    8          H           0.188725        0.8113     0.81128
    9          H           0.375155        0.6248     0.62485
   10          C          -0.422479        4.4225     1.08737     3.33511
   11          H           0.145324        0.8547     0.85468
   12          C           0.001311        3.9987     1.10734     2.89135
   13          C           0.013472        3.9865     1.07346     2.91307
   14          C          -0.078882        4.0789     1.10236     2.97652
   15          C          -0.170003        4.1700     1.09300     3.07700
   16          C           0.026319        3.9737     1.10439     2.86929
   17          N          -0.149309        5.1493     1.51290     3.63641
   18          H           0.229319        0.7707     0.77068
   19          H           0.204627        0.7954     0.79537
   20          H           0.224326        0.7757     0.77567
   21          C          -0.468173        4.4682     1.04875     3.41942
   22          H           0.177369        0.8226     0.82263
   23          H           0.187705        0.8123     0.81229
   24          H           0.188200        0.8118     0.81180
   25          H           0.193868        0.8061     0.80613
   26          H           0.387546        0.6125     0.61245
   27          O          -0.725996        6.7260     1.82214     4.90386
   28          H           0.381062        0.6189     0.61894
 DIPOLE           X         Y         Z       TOTAL
 POINT-CHG.    28.474    15.677     6.706    33.189
 HYBRID        -0.400    -0.847     0.047     0.938
 SUM           28.073    14.830     6.753    32.460


          ATOMIC ORBITAL ELECTRON POPULATIONS

     Atom    s        px        py        pz   
    1  C   1.07847   0.95673   0.96730   1.04444
    2  H   0.84626
    3  N   1.41468   0.95497   0.98966   0.92354
    4  O   1.94463   1.69870   1.89084   1.16550
    5  O   1.94551   1.77321   1.49023   1.50358
    6  H   0.85207
    7  C   1.05618   1.41114   0.87813   1.12371
    8  H   0.81128
    9  H   0.62485
   10  C   1.08737   1.12269   1.05773   1.15470
   11  H   0.85468
   12  C   1.10734   0.88329   1.05798   0.95008
   13  C   1.07346   0.97808   0.98089   0.95410
   14  C   1.10236   1.04992   0.99800   0.92860
   15  C   1.09300   0.97311   1.11633   0.98757
   16  C   1.10439   1.06998   0.84707   0.95224
   17  N   1.51290   1.21165   1.12818   1.29658
   18  H   0.77068
   19  H   0.79537
   20  H   0.77567
   21  C   1.04875   1.07430   1.14911   1.19602
   22  H   0.82263
   23  H   0.81229
   24  H   0.81180
   25  H   0.80613
   26  H   0.61245
   27  O   1.82214   1.45265   1.50480   1.94640
   28  H   0.61894

          BONDING CONTRIBUTION OF EACH M.O.

  1.4516  1.4180  1.8263  1.1593  1.1053  1.9174  1.6204  1.3292  1.9888  1.8799
  1.9675  1.2932  1.9310  1.5864  1.6358  2.0348  1.5651  1.7926  1.4765  1.2664
  1.9074  1.8579  1.9621  0.8807  1.8368  1.9110  1.8949  1.9160  1.6555  1.5437
  0.9508  1.9673  1.9669  1.6272  0.4717  0.4674  0.2453  2.0818  1.2427 -2.0502
 -1.9102 -2.2951 -1.8982 -1.9428 -2.2867 -2.1691 -1.8857 -1.8998 -1.9599 -1.8652
 -1.9898 -1.8714 -1.9870 -1.9562 -1.8795 -1.9358 -1.9286 -1.9244 -1.9384 -1.9566
 -1.9228 -1.9370 -1.8260 -1.7019 -1.9682 -1.9671 -1.9594 -1.8837 -1.9804 -1.9552





            (VALENCIES)   BOND ORDERS

     1  C     (3.969)    10  C 1.907     7  C 1.081     2  H 0.961     5  O 0.012

     2  H     (0.976)     1  C 0.961

     3  N     (3.815)     7  C 1.375     4  O 1.205     5  O 1.193    10  C 0.037

     4  O     (1.534)     3  N 1.205     5  O 0.154     7  C 0.147    10  C 0.014     8  H 0.010

     5  O     (1.516)     3  N 1.193     4  O 0.154     7  C 0.141    10  C 0.014     1  C 0.012

     6  H     (0.978)    10  C 0.969

     7  C     (3.733)     3  N 1.375     1  C 1.081     8  H 0.946     4  O 0.147     5  O 0.141    10  C 0.029

     8  H     (0.964)     7  C 0.946     4  O 0.010

     9  H     (0.859)    27  O 0.852

    10  C     (3.940)     1  C 1.907    11  H 0.969     6  H 0.969     3  N 0.037     7  C 0.029     5  O 0.014
                          4  O 0.014

    11  H     (0.979)    10  C 0.969

    12  C     (3.902)    13  C 1.429    17  N 1.326    18  H 0.930    15  C 0.102    16  C 0.046    14  C 0.020

    13  C     (3.989)    12  C 1.429    14  C 1.405    21  C 1.021    16  C 0.105

    14  C     (3.950)    15  C 1.441    13  C 1.405    25  H 0.949    17  N 0.096    12  C 0.020    16  C 0.010

    15  C     (3.959)    16  C 1.444    14  C 1.441    19  H 0.944    12  C 0.102

    16  C     (3.901)    15  C 1.444    17  N 1.327    20  H 0.932    13  C 0.105    12  C 0.046    28  H 0.010
                         14  C 0.010

    17  N     (3.563)    16  C 1.327    12  C 1.326    28  H 0.761    14  C 0.096    27  O 0.021

    18  H     (0.947)    12  C 0.930

    19  H     (0.958)    15  C 0.944

    20  H     (0.950)    16  C 0.932

    21  C     (3.899)    13  C 1.021    22  H 0.958    24  H 0.945    23  H 0.944

    22  H     (0.969)    21  C 0.958

    23  H     (0.965)    21  C 0.944

    24  H     (0.965)    21  C 0.945

    25  H     (0.962)    14  C 0.949

    26  H     (0.850)    27  O 0.846

    27  O     (1.784)     9  H 0.852    26  H 0.846    28  H 0.057    17  N 0.021

    28  H     (0.855)    17  N 0.761    27  O 0.057    16  C 0.010


 **********************
 *                    *
 * JOB ENDED NORMALLY *
 *                    *
 **********************



 TOTAL JOB TIME:             0.31 SECONDS

 == MOPAC DONE ==
