 *******************************************************************************
 **                                                                           **
 **                              MOPAC v22.0.6                                **
 **                                                                           **
 *******************************************************************************
 **          Digital Object Identifier (DOI): 10.5281/zenodo.6511958          **
 **    Visit the DOI location for information on how to cite this program.    **
 *******************************************************************************

                              PM7 CALCULATION RESULTS

 *******************************************************************************
 *  CALCULATION DONE:                                Sat Mar 23 15:09:19 2024  *
 *  PM7        - The PM7 Hamiltonian to be used
 *  SINGLET    - SPIN STATE DEFINED AS A SINGLET
 *
 *
 *
 *                 CHARGE ON SYSTEM = 0
 *
 *
 *
 *  EPS=78.4   - USE ANDREAS KLAMT'S COSMO IMPLICIT SOLVATION MODEL
 *  T=         - A TIME OF 14.0 DAYS REQUESTED
 *  DUMP=N     - RESTART FILE WRITTEN EVERY 30.0 MINUTES REQUESTED
 *  RELSCF     - DEFAULT SCF CRITERION MULTIPLIED BY 1.0000
 *              (DEFAULT SCF CRITERION = 0.00010)
 *  ITRY=      - DO A MAXIMUM OF 15000 ITERATIONS FOR SCF
 *  AUX        - OUTPUT AUXILIARY INFORMATION
 *  BONDS      - FINAL BOND-ORDER MATRIX TO BE PRINTED
 *******************************************************************************
PM7 BONDS AUX DUMP=30M ITRY=15000 T=14D CHARGE=0 SINGLET eps=78.4 RELSCF=1
 Title: ASE calculation

   ATOM   CHEMICAL          X               Y               Z
  NUMBER   SYMBOL      (ANGSTROMS)     (ANGSTROMS)     (ANGSTROMS)

     1       C          0.36814599  *  -0.43371960  *   0.20769292  *
     2       H          0.54421747  *  -1.06865598  *  -0.66750376  *
     3       N          0.62660491  *  -2.39660691  *   1.61487867  *
     4       O          0.74433417  *  -3.15281408  *   0.61986300  *
     5       O          0.66380518  *  -2.93585093  *   2.75481754  *
     6       H         -0.12804347  *   1.52669764  *   0.89443867  *
     7       C          0.47833929     -1.07441162      1.49426481   
     8       H          2.48612850     -0.52686591  *   1.93671382  *
     9       H          0.35797267  *  -0.48032598  *   2.39739499  *
    10       C          0.05267670  *   0.86129773  *   0.06813642  *
    11       H         -0.04045806  *   1.34978332  *  -0.88515089  *
    12       C          5.92694711  *   0.72568329  *   3.84268420  *
    13       C          6.97641767  *   1.51170097  *   4.31134261  *
    14       C          6.93082467  *   2.89419545  *   4.13599201  *
    15       C          5.82848218  *   3.46638193  *   3.49911207  *
    16       C          4.79753484  *   2.64844270  *   3.04429483  *
    17       N          4.86243706  *   1.30105662  *   3.21997470  *
    18       H          5.91692446  *  -0.37365630  *   3.95723401  *
    19       H          7.82829388  *   1.03716036  *   4.81032277  *
    20       H          5.76655015  *   4.54910416  *   3.35270231  *
    21       H          3.90431967  *   3.05234184  *   2.53402993  *
    22       H          7.75315651  *   3.52444849  *   4.49252474  *
    23       H          3.70001137  *  -1.34910269  *   2.41050153  *
    24       H          4.08749762  *   0.67620011  *   2.83039152  *
    25       O          3.48180969     -0.52527627      1.95024397   



          CARTESIAN COORDINATES 

    NO.       ATOM           X           Y           Z

     1         C          0.3681     -0.4337      0.2077
     2         H          0.5442     -1.0687     -0.6675
     3         N          0.6266     -2.3966      1.6149
     4         O          0.7443     -3.1528      0.6199
     5         O          0.6638     -2.9359      2.7548
     6         H         -0.1280      1.5267      0.8944
     7         C          0.4783     -1.0744      1.4943
     8         H          2.4861     -0.5269      1.9367
     9         H          0.3580     -0.4803      2.3974
    10         C          0.0527      0.8613      0.0681
    11         H         -0.0405      1.3498     -0.8852
    12         C          5.9269      0.7257      3.8427
    13         C          6.9764      1.5117      4.3113
    14         C          6.9308      2.8942      4.1360
    15         C          5.8285      3.4664      3.4991
    16         C          4.7975      2.6484      3.0443
    17         N          4.8624      1.3011      3.2200
    18         H          5.9169     -0.3737      3.9572
    19         H          7.8283      1.0372      4.8103
    20         H          5.7666      4.5491      3.3527
    21         H          3.9043      3.0523      2.5340
    22         H          7.7532      3.5244      4.4925
    23         H          3.7000     -1.3491      2.4105
    24         H          4.0875      0.6762      2.8304
    25         O          3.4818     -0.5253      1.9502

 General Reference for PM7:
 "Optimization of Parameters for Semiempirical Methods VI: More Modifications to the 
 NDDO Approximations and Re-optimization of Parameters", J. J. P. Stewart, J. Mol. Mod., 1:32, 19 (2013)
 https://link.springer.com/article/10.1007/s00894-012-1667-x

           Empirical Formula: C8 H12 N2 O3  =    25 atoms



      MOLECULAR POINT GROUP   :   C1  


 SINGLET STATE CALCULATION


      RHF CALCULATION, NO. OF DOUBLY OCCUPIED LEVELS = 36


          Geometry optimization using EF
  SCF CRITERION =    0.1000E-03

          DIAGONAL MATRIX USED AS START HESSIAN

 CYCLE:     1 TIME:   0.102 TIME LEFT:  2.00W  GRAD.:     6.273 HEAT: -49.02749
 CYCLE:     2 TIME:   0.078 TIME LEFT:  2.00W  GRAD.:     8.610 HEAT: -49.04311
 CYCLE:     3 TIME:   0.020 TIME LEFT:  2.00W  GRAD.:     6.089 HEAT: -49.05539
 CYCLE:     4 TIME:   0.020 TIME LEFT:  2.00W  GRAD.:    19.844 HEAT: -49.08622
 CYCLE:     5 TIME:   0.016 TIME LEFT:  2.00W  GRAD.:     8.239 HEAT: -49.15066
 CYCLE:     6 TIME:   0.039 TIME LEFT:  2.00W  GRAD.:     7.312 HEAT: -49.15642
 CYCLE:     7 TIME:   0.035 TIME LEFT:  2.00W  GRAD.:     3.813 HEAT: -49.16061
 CYCLE:     8 TIME:   0.020 TIME LEFT:  2.00W  GRAD.:     3.214 HEAT: -49.17581
 CYCLE:     9 TIME:   0.055 TIME LEFT:  2.00W  GRAD.:     1.640 HEAT: -49.17871
 CYCLE:    10 TIME:   0.090 TIME LEFT:  2.00W  GRAD.:     1.416 HEAT: -49.17100

     TRUST RADIUS NOW LESS THAN  0.00010 OPTIMIZATION TERMINATING
      THE GEOMETRY MAY NOT BE COMPLETELY OPTIMIZED
      (TO CONTINUE, ADD 'LET DDMIN=0.0' TO THE KEYWORD LINE)

 -------------------------------------------------------------------------------
 PM7 BONDS AUX DUMP=30M ITRY=15000 T=14D CHARGE=0 SINGLET eps=78.4 RELSCF=1
 Title: ASE calculation



     GEOMETRY OPTIMISED USING EIGENVECTOR FOLLOWING (EF).     
     SCF FIELD WAS ACHIEVED                                   


                              PM7 CALCULATION
                                                       MOPAC v22.0.6 Linux
                                                       Sat Mar 23 15:09:19 2024




          FINAL HEAT OF FORMATION =        -49.17871 KCAL/MOL =    -205.76373 KJ/MOL
          VAN DER WAALS AREA      =        245.33 SQUARE ANGSTROMS



          DIELECTRIC ENERGY       =         -2.70788 EV
          COSMO AREA              =        245.33 SQUARE ANGSTROMS
          COSMO VOLUME            =        238.82 CUBIC ANGSTROMS

          GRADIENT NORM           =          1.64041          =       0.32808 PER ATOM
          IONIZATION POTENTIAL    =          8.621361 EV
          HOMO LUMO ENERGIES (EV) =         -8.621 -1.236
          NO. OF FILLED LEVELS    =         36
          MOLECULAR WEIGHT        =        184.1944         POINT GROUP:  C1  

          MOLECULAR DIMENSIONS (Angstroms)

            Atom       Atom       Distance
            H    22    O     4    10.42721
            H    19    H    11     6.52253
            H     9    H     2     2.65507


          SCF CALCULATIONS        =         29

          WALL-CLOCK TIME         =      0.633 SECONDS
          COMPUTATION TIME        =     18.133 SECONDS




   ATOM   CHEMICAL          X               Y               Z
  NUMBER   SYMBOL      (ANGSTROMS)     (ANGSTROMS)     (ANGSTROMS)

     1       C          0.36894330  *  -0.43276691  *   0.20737245  *
     2       H          0.54519209  *  -1.06845242  *  -0.66761139  *
     3       N          0.62775533  *  -2.39637279  *   1.61568572  *
     4       O          0.74669290  *  -3.15282632  *   0.61942334  *
     5       O          0.66464248  *  -2.93533623  *   2.75468381  *
     6       H         -0.12627488  *   1.52723336  *   0.89503894  *
     7       C          0.47833929     -1.07441162      1.49426481   
     8       H          2.48612850     -0.52902836  *   1.93165944  *
     9       H          0.35960114  *  -0.48035331  *   2.39730433  *
    10       C          0.05425444  *   0.86123841  *   0.06862833  *
    11       H         -0.03835216  *   1.35051528  *  -0.88500461  *
    12       C          5.92779855  *   0.72768251  *   3.84390895  *
    13       C          6.97708167  *   1.51310303  *   4.31305847  *
    14       C          6.93134972  *   2.89620503  *   4.13772452  *
    15       C          5.82919126  *   3.46775773  *   3.50097881  *
    16       C          4.79848669  *   2.64975998  *   3.04533432  *
    17       N          4.86324034  *   1.30262660  *   3.22135904  *
    18       H          5.91836103  *  -0.37211071  *   3.95775246  *
    19       H          7.82909096  *   1.03898534  *   4.81183955  *
    20       H          5.76730537  *   4.55086341  *   3.35429506  *
    21       H          3.90572648  *   3.05396544  *   2.53483382  *
    22       H          7.75316685  *   3.52652060  *   4.49530094  *
    23       H          3.70427115  *  -1.35275051  *   2.41021606  *
    24       H          4.08927626  *   0.67875987  *   2.83333669  *
    25       O          3.48180969     -0.52527627      1.95024397   

                             CARTESIAN COORDINATES

   1    C        0.368943298    -0.432766908     0.207372452
   2    H        0.545192093    -1.068452423    -0.667611393
   3    N        0.627755330    -2.396372789     1.615685721
   4    O        0.746692898    -3.152826315     0.619423344
   5    O        0.664642479    -2.935336233     2.754683806
   6    H       -0.126274881     1.527233355     0.895038944
   7    C        0.478339290    -1.074411620     1.494264810
   8    H        2.486128500    -0.529028357     1.931659443
   9    H        0.359601138    -0.480353312     2.397304333
  10    C        0.054254445     0.861238409     0.068628325
  11    H       -0.038352156     1.350515282    -0.885004608
  12    C        5.927798549     0.727682506     3.843908952
  13    C        6.977081673     1.513103033     4.313058469
  14    C        6.931349724     2.896205031     4.137724524
  15    C        5.829191263     3.467757730     3.500978810
  16    C        4.798486688     2.649759980     3.045334319
  17    N        4.863240340     1.302626597     3.221359045
  18    H        5.918361027    -0.372110710     3.957752458
  19    H        7.829090955     1.038985336     4.811839549
  20    H        5.767305367     4.550863413     3.354295059
  21    H        3.905726482     3.053965443     2.534833816
  22    H        7.753166854     3.526520597     4.495300937
  23    H        3.704271152    -1.352750508     2.410216060
  24    H        4.089276262     0.678759870     2.833336695
  25    O        3.481809690    -0.525276270     1.950243970


           Empirical Formula: C8 H12 N2 O3  =    25 atoms



      MOLECULAR POINT GROUP   :   C1  


                  EIGENVALUES  
 -38.56322 -36.04114 -29.84776 -29.41149 -28.41415 -27.69078 -27.41435 -25.64931
 -23.41377 -22.96216 -21.31005 -20.22169 -19.41745 -18.00891 -17.64063 -17.47291
 -17.10770 -17.00540 -16.40859 -16.26892 -15.63564 -15.44647 -14.92306 -14.28923
 -14.13700 -13.41550 -13.30863 -12.60065 -12.06633 -11.78103 -11.47533 -11.17422
 -11.02669 -10.98568 -10.87353  -8.62136  -1.23603  -0.91516   0.37851   1.28076
   1.40608   1.79217   1.95475   3.20518   3.39202   3.71530   3.74436   4.15838
   4.27469   4.29054   4.66078   4.85685   5.28977   5.29428   5.48492   5.53804
   5.55355   5.76302   6.02481   6.09216   6.11986   6.34736   6.57428   6.85997


              NET ATOMIC CHARGES AND DIPOLE CONTRIBUTIONS

  ATOM NO.   TYPE          CHARGE      No. of ELECS.   s-Pop       p-Pop       
    1          C          -0.041245        4.0412     1.07832     2.96293
    2          H           0.155309        0.8447     0.84469
    3          N           0.720213        4.2798     1.41578     2.86401
    4          O          -0.685312        6.6853     1.94428     4.74104
    5          O          -0.701788        6.7018     1.94551     4.75628
    6          H           0.147356        0.8526     0.85264
    7          C          -0.494128        4.4941     1.05777     3.43636
    8          H           0.387585        0.6124     0.61241
    9          H           0.192589        0.8074     0.80741
   10          C          -0.421956        4.4220     1.08713     3.33482
   11          H           0.147079        0.8529     0.85292
   12          C           0.055470        3.9445     1.10822     2.83631
   13          C          -0.195734        4.1957     1.09279     3.10294
   14          C          -0.027896        4.0279     1.10225     2.92565
   15          C          -0.196900        4.1969     1.09251     3.10439
   16          C           0.056492        3.9435     1.10766     2.83585
   17          N          -0.177240        5.1772     1.52187     3.65536
   18          H           0.227511        0.7725     0.77249
   19          H           0.203522        0.7965     0.79648
   20          H           0.202502        0.7975     0.79750
   21          H           0.224069        0.7759     0.77593
   22          H           0.190047        0.8100     0.80995
   23          H           0.388202        0.6118     0.61180
   24          H           0.389059        0.6109     0.61094
   25          O          -0.744804        6.7448     1.82040     4.92440
 DIPOLE           X         Y         Z       TOTAL
 POINT-CHG.    20.250    19.562     8.985    29.555
 HYBRID        -0.302    -0.823     0.173     0.894
 SUM           19.948    18.739     9.158    28.861


          ATOMIC ORBITAL ELECTRON POPULATIONS

     Atom    s        px        py        pz   
    1  C   1.07832   0.93660   1.00892   1.01741
    2  H   0.84469
    3  N   1.41578   0.94854   0.99599   0.91947
    4  O   1.94428   1.74707   1.63742   1.35654
    5  O   1.94551   1.76346   1.80067   1.19215
    6  H   0.85264
    7  C   1.05777   1.45023   0.88643   1.09970
    8  H   0.61241
    9  H   0.80741
   10  C   1.08713   1.12747   1.04994   1.15742
   11  H   0.85292
   12  C   1.10822   0.87018   1.07459   0.89154
   13  C   1.09279   1.06474   1.00859   1.02961
   14  C   1.10225   1.02035   1.01378   0.89152
   15  C   1.09251   0.98348   1.11484   1.00606
   16  C   1.10766   1.05103   0.83883   0.94598
   17  N   1.52187   1.22509   1.14358   1.28670
   18  H   0.77249
   19  H   0.79648
   20  H   0.79750
   21  H   0.77593
   22  H   0.80995
   23  H   0.61180
   24  H   0.61094
   25  O   1.82040   1.47370   1.59437   1.85633

          BONDING CONTRIBUTION OF EACH M.O.

  1.4420  1.4162  1.6732  1.3073  1.0700  1.6321  1.8910  1.3300  1.8704  1.9573
  1.2866  1.9007  1.5982  1.5843  1.5806  2.0598  1.3981  1.8581  1.8343  1.3151
  1.8231  1.9993  0.8687  1.9041  1.8703  1.4450  2.0186  0.7205  1.9663  1.9353
  1.6122  0.4938  2.0923  0.4740  0.2476  1.2450 -1.9992 -1.9168 -2.3062 -1.8977
 -1.9379 -2.2792 -2.1531 -1.8748 -1.8953 -1.9607 -1.8757 -1.8923 -1.9543 -1.9891
 -1.8750 -1.9330 -1.9334 -1.9234 -1.9158 -1.9371 -1.9343 -1.8124 -1.7788 -1.9012
 -1.9531 -1.9564 -1.9777 -1.9571





            (VALENCIES)   BOND ORDERS

     1  C     (3.967)    10  C 1.909     7  C 1.078     2  H 0.960     5  O 0.012

     2  H     (0.976)     1  C 0.960

     3  N     (3.814)     7  C 1.346     4  O 1.219     5  O 1.205    10  C 0.035

     4  O     (1.552)     3  N 1.219     5  O 0.159     7  C 0.146    10  C 0.013     9  H 0.010

     5  O     (1.531)     3  N 1.205     4  O 0.159     7  C 0.139    10  C 0.014     1  C 0.012

     6  H     (0.978)    10  C 0.969

     7  C     (3.718)     3  N 1.346     1  C 1.078     9  H 0.942     4  O 0.146     5  O 0.139    10  C 0.030
                          8  H 0.019

     8  H     (0.850)    25  O 0.821     7  C 0.019

     9  H     (0.963)     7  C 0.942     4  O 0.010

    10  C     (3.940)     1  C 1.909     6  H 0.969    11  H 0.969     3  N 0.035     7  C 0.030     5  O 0.014
                          4  O 0.013

    11  H     (0.978)    10  C 0.969

    12  C     (3.895)    13  C 1.458    17  N 1.321    18  H 0.931    15  C 0.106    16  C 0.036    14  C 0.014

    13  C     (3.960)    12  C 1.458    14  C 1.427    19  H 0.945    16  C 0.106

    14  C     (3.940)    15  C 1.427    13  C 1.427    22  H 0.952    17  N 0.097    12  C 0.014    16  C 0.014

    15  C     (3.960)    16  C 1.457    14  C 1.427    20  H 0.945    12  C 0.106

    16  C     (3.897)    15  C 1.457    17  N 1.322    21  H 0.932    13  C 0.106    12  C 0.036    14  C 0.014

    17  N     (3.541)    16  C 1.322    12  C 1.321    24  H 0.741    14  C 0.097    25  O 0.026

    18  H     (0.948)    12  C 0.931

    19  H     (0.959)    13  C 0.945

    20  H     (0.959)    15  C 0.945

    21  H     (0.950)    16  C 0.932

    22  H     (0.964)    14  C 0.952

    23  H     (0.849)    25  O 0.845

    24  H     (0.849)    17  N 0.741    25  O 0.072

    25  O     (1.782)    23  H 0.845     8  H 0.821    24  H 0.072    17  N 0.026


 **********************
 *                    *
 * JOB ENDED NORMALLY *
 *                    *
 **********************



 TOTAL JOB TIME:             0.64 SECONDS

 == MOPAC DONE ==
