 *******************************************************************************
 **                                                                           **
 **                              MOPAC v22.0.6                                **
 **                                                                           **
 *******************************************************************************
 **          Digital Object Identifier (DOI): 10.5281/zenodo.6511958          **
 **    Visit the DOI location for information on how to cite this program.    **
 *******************************************************************************

                              PM7 CALCULATION RESULTS

 *******************************************************************************
 *  CALCULATION DONE:                                Sat Mar 23 15:09:22 2024  *
 *  PM7        - The PM7 Hamiltonian to be used
 *  SINGLET    - SPIN STATE DEFINED AS A SINGLET
 *
 *
 *
 *                 CHARGE ON SYSTEM = 0
 *
 *
 *
 *  EPS=78.4   - USE ANDREAS KLAMT'S COSMO IMPLICIT SOLVATION MODEL
 *  LET        - OVERRIDE SOME SAFETY CHECKS
 *  T=         - A TIME OF 14.0 DAYS REQUESTED
 *  DUMP=N     - RESTART FILE WRITTEN EVERY 30.0 MINUTES REQUESTED
 *  RELSCF     - DEFAULT SCF CRITERION MULTIPLIED BY 1.0000
 *              (DEFAULT SCF CRITERION = 0.00010)
 *  ITRY=      - DO A MAXIMUM OF 15000 ITERATIONS FOR SCF
 *  AUX        - OUTPUT AUXILIARY INFORMATION
 *  ISOTOPE    - SAVE THE FORCE MATRIX FOR USE LATER
 *  BONDS      - FINAL BOND-ORDER MATRIX TO BE PRINTED
 *  LARGE      - EXPANDED OUTPUT TO BE PRINTED
 *  THERMO     - THERMODYNAMIC QUANTITIES TO BE CALCULATED
 *******************************************************************************
PM7 AUX LARGE THERMO(298,298) LET ISOTOPE BONDS DUMP=30M ITRY=15000 T=14D CHARGE=0 SINGLET eps=78.4 RELSCF=1
 Title: ASE calculation

   ATOM   CHEMICAL          X               Y               Z
  NUMBER   SYMBOL      (ANGSTROMS)     (ANGSTROMS)     (ANGSTROMS)

     1       C          0.36894330  *  -0.43276691  *   0.20737245  *
     2       H          0.54519209  *  -1.06845242  *  -0.66761139  *
     3       N          0.62775533  *  -2.39637279  *   1.61568572  *
     4       O          0.74669290  *  -3.15282631  *   0.61942334  *
     5       O          0.66464248  *  -2.93533623  *   2.75468381  *
     6       H         -0.12627488  *   1.52723335  *   0.89503894  *
     7       C          0.47833929  *  -1.07441162  *   1.49426481  *
     8       D          2.48612850  *  -0.52902836  *   1.93165944  *
     9       H          0.35960114  *  -0.48035331  *   2.39730433  *
    10       C          0.05425444  *   0.86123841  *   0.06862833  *
    11       H         -0.03835216  *   1.35051528  *  -0.88500461  *
    12       C          5.92779855  *   0.72768251  *   3.84390895  *
    13       C          6.97708167  *   1.51310303  *   4.31305847  *
    14       C          6.93134972  *   2.89620503  *   4.13772452  *
    15       C          5.82919126  *   3.46775773  *   3.50097881  *
    16       C          4.79848669  *   2.64975998  *   3.04533432  *
    17       N          4.86324034  *   1.30262660  *   3.22135904  *
    18       H          5.91836103  *  -0.37211071  *   3.95775246  *
    19       H          7.82909095  *   1.03898534  *   4.81183955  *
    20       H          5.76730537  *   4.55086341  *   3.35429506  *
    21       H          3.90572648  *   3.05396544  *   2.53483382  *
    22       H          7.75316685  *   3.52652060  *   4.49530094  *
    23       H          3.70427115  *  -1.35275051  *   2.41021606  *
    24       H          4.08927626  *   0.67875987  *   2.83333669  *
    25       O          3.48180969  *  -0.52527627  *   1.95024397  *


                                Isotopes Used

              Atom:    8  H  Default mass  1.0079,  mass used:  2.0140 amu


          CARTESIAN COORDINATES 

    NO.       ATOM           X           Y           Z

     1         C          0.3689     -0.4328      0.2074
     2         H          0.5452     -1.0685     -0.6676
     3         N          0.6278     -2.3964      1.6157
     4         O          0.7467     -3.1528      0.6194
     5         O          0.6646     -2.9353      2.7547
     6         H         -0.1263      1.5272      0.8950
     7         C          0.4783     -1.0744      1.4943
     8         H          2.4861     -0.5290      1.9317
     9         H          0.3596     -0.4804      2.3973
    10         C          0.0543      0.8612      0.0686
    11         H         -0.0384      1.3505     -0.8850
    12         C          5.9278      0.7277      3.8439
    13         C          6.9771      1.5131      4.3131
    14         C          6.9313      2.8962      4.1377
    15         C          5.8292      3.4678      3.5010
    16         C          4.7985      2.6498      3.0453
    17         N          4.8632      1.3026      3.2214
    18         H          5.9184     -0.3721      3.9578
    19         H          7.8291      1.0390      4.8118
    20         H          5.7673      4.5509      3.3543
    21         H          3.9057      3.0540      2.5348
    22         H          7.7532      3.5265      4.4953
    23         H          3.7043     -1.3528      2.4102
    24         H          4.0893      0.6788      2.8333
    25         O          3.4818     -0.5253      1.9502

 General Reference for PM7:
 "Optimization of Parameters for Semiempirical Methods VI: More Modifications to the 
 NDDO Approximations and Re-optimization of Parameters", J. J. P. Stewart, J. Mol. Mod., 1:32, 19 (2013)
 https://link.springer.com/article/10.1007/s00894-012-1667-x

           Empirical Formula: C8 H12 N2 O3  =    25 atoms



      MOLECULAR POINT GROUP   :   C1  


 SINGLET STATE CALCULATION


      RHF CALCULATION, NO. OF DOUBLY OCCUPIED LEVELS = 36

  SCF CRITERION =    0.1000E-03


          HEAT OF FORMATION =     -49.174835 KCALS/MOLE


          CARTESIAN COORDINATE DERIVATIVES

   NUMBER  ATOM         X            Y            Z

     1       C      0.372812     0.160582     0.114409
     2       H     -0.207575     0.025948     0.163198
     3       N      0.190603    -0.173135     0.183072
     4       O      0.184445    -0.555229     0.471478
     5       O     -0.258924     0.691322     0.156843
     6       H     -0.089874    -0.007702     0.302645
     7       C      0.835960    -0.148630    -4.624602
     8       H     -1.943228    -1.276304    11.349695
     9       H     -0.008886     0.033947     0.274628
    10       C     -0.076741    -0.356477     0.282891
    11       H     -0.040609     0.168035     0.354244
    12       C      0.319445     0.250493     0.319295
    13       C      0.009698    -0.075681     0.088877
    14       C      0.082281     0.253780    -0.140552
    15       C      0.224751    -0.042814     0.342452
    16       C      0.008143    -0.364812     0.224233
    17       N      0.267643     0.485981     0.278603
    18       H      0.058863    -0.001606     0.266228
    19       H      0.191610     0.114632     0.163842
    20       H      0.135229     0.094903     0.162624
    21       H      0.106433     0.114187     0.195433
    22       H      0.292096    -0.005486     0.147626
    23       H     -0.266779     0.359586     0.365199
    24       H      0.175856     0.064264     0.024734
    25       O     -0.563120     0.190430   -11.466928

 DIPOLE           X         Y         Z       TOTAL
 POINT-CHG.   -15.265    -8.092   -23.978    29.554
 HYBRID         0.290     0.727     0.431     0.894
 SUM          -14.975    -7.365   -23.546    28.860


          GRADIENT NORM =  17.08956



 ** GRADIENT IS VERY LARGE, BUT SINCE "LET" IS USED, CALCULATION WILL CONTINUE


                              **** WARNING ****

           GRADIENT IS VERY LARGE FOR A THERMO CALCULATION
           RESULTS ARE LIKELY TO BE INACCURATE IF THERE ARE
           ANY LOW-LYING VIBRATIONS (LESS THAN ABOUT 400CM-1)
           GRADIENT NORM SHOULD BE LESS THAN ABOUT 1.0 FOR THERMO
           TO GIVE ACCURATE RESULTS


          TIME FOR SCF CALCULATION =    0.09

          TIME FOR DERIVATIVES     =    0.03

          MOLECULAR WEIGHT =  185.20



          ROTATIONAL CONSTANTS IN CM(-1)

          A =    0.04713934   B =    0.00775636   C =    0.00691312



           PRINCIPAL MOMENTS OF INERTIA IN UNITS OF 10**(-40)*GRAM-CM**2

          A =      593.8299   B =     3609.0080   C =     4049.2223


          ORIENTATION OF MOLECULE IN FORCE CALCULATION

    NO.       ATOM         X         Y         Z

     1          C       1.5565   -1.1292    2.9346
     2          H       2.6523   -1.1292    2.9346
     3          N       1.6127    1.3004    2.9346
     4          O       2.8662    1.3180    3.0207
     5          O       1.0219    2.4138    2.9168
     6          H      -0.2092   -2.3265    3.0244
     7          C       0.9188    0.1618    2.8539
     8          H       0.5761    0.1963    0.7559
     9          H      -0.1660    0.2175    2.8029
    10          C       0.8660   -2.2730    3.0223
    11          H       1.3288   -3.2417    3.0910
    12          C      -1.1263    0.6951   -2.9769
    13          C      -1.7878    0.4593   -4.1789
    14          C      -2.4575   -0.7495   -4.3687
    15          C      -2.4579   -1.6979   -3.3453
    16          C      -1.7853   -1.4263   -2.1566
    17          N      -1.1340   -0.2437   -1.9920
    18          H      -0.5807    1.6363   -2.7793
    19          H      -1.7740    1.2221   -4.9648
    20          H      -2.9791   -2.6528   -3.4676
    21          H      -1.7558   -2.1447   -1.3175
    22          H      -2.9765   -0.9521   -5.3122
    23          H       0.8677    1.2625   -0.3256
    24          H      -0.5867   -0.0595   -1.0946
    25          O       0.7192    0.3068   -0.2234


    FIRST DERIVATIVES WILL BE USED IN THE CALCULATION OF SECOND DERIVATIVES

          ESTIMATED TIME TO COMPLETE CALCULATION =       16.99 SECONDS

    FOR POINT-GROUP C1   THERE ARE   1 UNIQUE SYMMETRY FUNCTIONS.

 STEP:   1 TIME =     0.05 SECS, INTEGRAL =      0.05 TIME LEFT:1209599.84
 STEP:   2 TIME =     0.04 SECS, INTEGRAL =      0.09 TIME LEFT:1209599.79
 STEP:   3 TIME =     0.04 SECS, INTEGRAL =      0.13 TIME LEFT:1209599.75
 STEP:   4 TIME =     0.04 SECS, INTEGRAL =      0.17 TIME LEFT:1209599.72
 STEP:   5 TIME =     0.04 SECS, INTEGRAL =      0.21 TIME LEFT:1209599.68
 STEP:   6 TIME =     0.04 SECS, INTEGRAL =      0.25 TIME LEFT:1209599.64
 STEP:   7 TIME =     0.04 SECS, INTEGRAL =      0.28 TIME LEFT:1209599.61
 STEP:   8 TIME =     0.04 SECS, INTEGRAL =      0.32 TIME LEFT:1209599.57
 STEP:   9 TIME =     0.04 SECS, INTEGRAL =      0.36 TIME LEFT:1209599.53
 STEP:  10 TIME =     0.04 SECS, INTEGRAL =      0.39 TIME LEFT:1209599.49
 STEP:  11 TIME =     0.04 SECS, INTEGRAL =      0.43 TIME LEFT:1209599.45
 STEP:  12 TIME =     0.04 SECS, INTEGRAL =      0.48 TIME LEFT:1209599.41
 STEP:  13 TIME =     0.04 SECS, INTEGRAL =      0.52 TIME LEFT:1209599.37
 STEP:  14 TIME =     0.04 SECS, INTEGRAL =      0.56 TIME LEFT:1209599.32
 STEP:  15 TIME =     0.04 SECS, INTEGRAL =      0.61 TIME LEFT:1209599.28
 STEP:  16 TIME =     0.04 SECS, INTEGRAL =      0.65 TIME LEFT:1209599.24
 STEP:  17 TIME =     0.04 SECS, INTEGRAL =      0.68 TIME LEFT:1209599.20
 STEP:  18 TIME =     0.04 SECS, INTEGRAL =      0.72 TIME LEFT:1209599.16
 STEP:  19 TIME =     0.04 SECS, INTEGRAL =      0.76 TIME LEFT:1209599.12
 STEP:  20 TIME =     0.04 SECS, INTEGRAL =      0.80 TIME LEFT:1209599.09
 STEP:  21 TIME =     0.04 SECS, INTEGRAL =      0.84 TIME LEFT:1209599.05
 STEP:  22 TIME =     0.04 SECS, INTEGRAL =      0.88 TIME LEFT:1209599.01
 STEP:  23 TIME =     0.04 SECS, INTEGRAL =      0.91 TIME LEFT:1209598.98
 STEP:  24 TIME =     0.04 SECS, INTEGRAL =      0.95 TIME LEFT:1209598.94
 STEP:  25 TIME =     0.04 SECS, INTEGRAL =      0.99 TIME LEFT:1209598.90
 STEP:  26 TIME =     0.04 SECS, INTEGRAL =      1.02 TIME LEFT:1209598.86
 STEP:  27 TIME =     0.04 SECS, INTEGRAL =      1.06 TIME LEFT:1209598.82
 STEP:  28 TIME =     0.04 SECS, INTEGRAL =      1.10 TIME LEFT:1209598.79
 STEP:  29 TIME =     0.04 SECS, INTEGRAL =      1.14 TIME LEFT:1209598.75
 STEP:  30 TIME =     0.04 SECS, INTEGRAL =      1.18 TIME LEFT:1209598.71
 STEP:  31 TIME =     0.05 SECS, INTEGRAL =      1.22 TIME LEFT:1209598.66
 STEP:  32 TIME =     0.04 SECS, INTEGRAL =      1.27 TIME LEFT:1209598.62
 STEP:  33 TIME =     0.04 SECS, INTEGRAL =      1.31 TIME LEFT:1209598.58
 STEP:  34 TIME =     0.04 SECS, INTEGRAL =      1.35 TIME LEFT:1209598.54
 STEP:  35 TIME =     0.04 SECS, INTEGRAL =      1.39 TIME LEFT:1209598.49
 STEP:  36 TIME =     0.04 SECS, INTEGRAL =      1.43 TIME LEFT:1209598.46
 STEP:  37 TIME =     0.04 SECS, INTEGRAL =      1.46 TIME LEFT:1209598.42
 STEP:  38 TIME =     0.04 SECS, INTEGRAL =      1.50 TIME LEFT:1209598.39
 STEP:  39 TIME =     0.04 SECS, INTEGRAL =      1.54 TIME LEFT:1209598.35
 STEP:  40 TIME =     0.04 SECS, INTEGRAL =      1.57 TIME LEFT:1209598.31
 STEP:  41 TIME =     0.04 SECS, INTEGRAL =      1.61 TIME LEFT:1209598.28
 STEP:  42 TIME =     0.04 SECS, INTEGRAL =      1.65 TIME LEFT:1209598.24
 STEP:  43 TIME =     0.04 SECS, INTEGRAL =      1.68 TIME LEFT:1209598.20
 STEP:  44 TIME =     0.04 SECS, INTEGRAL =      1.72 TIME LEFT:1209598.16
 STEP:  45 TIME =     0.03 SECS, INTEGRAL =      1.75 TIME LEFT:1209598.13
 STEP:  46 TIME =     0.04 SECS, INTEGRAL =      1.79 TIME LEFT:1209598.09
 STEP:  47 TIME =     0.04 SECS, INTEGRAL =      1.83 TIME LEFT:1209598.06
 STEP:  48 TIME =     0.04 SECS, INTEGRAL =      1.86 TIME LEFT:1209598.02
 STEP:  49 TIME =     0.04 SECS, INTEGRAL =      1.90 TIME LEFT:1209597.99
 STEP:  50 TIME =     0.04 SECS, INTEGRAL =      1.94 TIME LEFT:1209597.95
 STEP:  51 TIME =     0.04 SECS, INTEGRAL =      1.98 TIME LEFT:1209597.91
 STEP:  52 TIME =     0.04 SECS, INTEGRAL =      2.02 TIME LEFT:1209597.86
 STEP:  53 TIME =     0.04 SECS, INTEGRAL =      2.06 TIME LEFT:1209597.82
 STEP:  54 TIME =     0.04 SECS, INTEGRAL =      2.11 TIME LEFT:1209597.78
 STEP:  55 TIME =     0.04 SECS, INTEGRAL =      2.14 TIME LEFT:1209597.74
 STEP:  56 TIME =     0.04 SECS, INTEGRAL =      2.18 TIME LEFT:1209597.71
 STEP:  57 TIME =     0.04 SECS, INTEGRAL =      2.21 TIME LEFT:1209597.67
 STEP:  58 TIME =     0.04 SECS, INTEGRAL =      2.25 TIME LEFT:1209597.64
 STEP:  59 TIME =     0.04 SECS, INTEGRAL =      2.29 TIME LEFT:1209597.60
 STEP:  60 TIME =     0.04 SECS, INTEGRAL =      2.32 TIME LEFT:1209597.56
 STEP:  61 TIME =     0.04 SECS, INTEGRAL =      2.36 TIME LEFT:1209597.53
 STEP:  62 TIME =     0.04 SECS, INTEGRAL =      2.39 TIME LEFT:1209597.49
 STEP:  63 TIME =     0.04 SECS, INTEGRAL =      2.43 TIME LEFT:1209597.46
 STEP:  64 TIME =     0.04 SECS, INTEGRAL =      2.46 TIME LEFT:1209597.42
 STEP:  65 TIME =     0.04 SECS, INTEGRAL =      2.50 TIME LEFT:1209597.39
 STEP:  66 TIME =     0.04 SECS, INTEGRAL =      2.54 TIME LEFT:1209597.35
 STEP:  67 TIME =     0.04 SECS, INTEGRAL =      2.57 TIME LEFT:1209597.32
 STEP:  68 TIME =     0.04 SECS, INTEGRAL =      2.61 TIME LEFT:1209597.28
 STEP:  69 TIME =     0.04 SECS, INTEGRAL =      2.64 TIME LEFT:1209597.25
 STEP:  70 TIME =     0.04 SECS, INTEGRAL =      2.68 TIME LEFT:1209597.21
 STEP:  71 TIME =     0.04 SECS, INTEGRAL =      2.71 TIME LEFT:1209597.18
 STEP:  72 TIME =     0.04 SECS, INTEGRAL =      2.75 TIME LEFT:1209597.14
 STEP:  73 TIME =     0.04 SECS, INTEGRAL =      2.79 TIME LEFT:1209597.09
 STEP:  74 TIME =     0.04 SECS, INTEGRAL =      2.83 TIME LEFT:1209597.05
 STEP:  75 TIME =     0.04 SECS, INTEGRAL =      2.88 TIME LEFT:1209597.01

(To convert to Hartree/Bohr^2, multiply by (10^(-21) x N x a0^2)/(4.184 x 627.51) =  0.0642)


           FORCE MATRIX IN MILLIDYNES/ANGSTROM


                  C  1       H  2       N  3       O  4       O  5       H  6
 ------------------------------------------------------------------------------
     C    1  17.045416
     H    2   3.377062   4.310739
     N    3   1.680749   0.093532  19.018471
     O    4   0.254257   0.039466   7.549137  10.271642
     O    5   0.298445   0.025407   7.372275   2.127909  10.104139
     H    6   0.829921   0.124305   0.085735   0.034391   0.045598   4.290395
     C    7   4.632678   0.727391   6.483134   1.931308   2.032481   0.090780
     H    8   0.076438   0.005046   0.338865   0.115364   0.110871   0.009569
     H    9   0.702568   0.040102   0.935376   0.167814   0.108447   0.026585
     C   10   9.839136   0.804681   0.357567   0.119985   0.143824   3.523509
     H   11   0.842930   0.059938   0.079143   0.030153   0.033952   0.469436
     C   12   0.003980   0.000943   0.006731   0.001706   0.004662   0.001319
     C   13   0.000736   0.000494   0.004584   0.001950   0.002555   0.000811
     C   14   0.001112   0.000328   0.003737   0.001951   0.002175   0.000652
     C   15   0.001382   0.000545   0.001243   0.000902   0.000937   0.000936
     C   16   0.017833   0.003210   0.107852   0.052830   0.047288   0.009703
     N   17   0.006966   0.000441   0.012025   0.006208   0.004304   0.001605
     H   18   0.001680   0.000436   0.005163   0.001820   0.002937   0.000734
     H   19   0.000926   0.000432   0.002923   0.001534   0.001625   0.000387
     H   20   0.000972   0.000203   0.001744   0.000907   0.001077   0.000333
     H   21   0.001457   0.000387   0.002365   0.001195   0.001714   0.001103
     H   22   0.000553   0.000346   0.001839   0.001233   0.001067   0.000202
     H   23   0.037461   0.006352   0.224002   0.105309   0.094090   0.019143
     H   24   0.015847   0.001029   0.042372   0.015797   0.015434   0.003115
     O   25   0.047645   0.005428   0.285636   0.123001   0.116363   0.016374


                  C  7       H  8       H  9       C 10       H 11       C 12
 ------------------------------------------------------------------------------
     C    7  15.332800
     H    8   0.184451   3.914561
     H    9   3.369424   0.300314   4.367381
     C   10   1.304932   0.029001   0.051055  15.477979
     H   11   0.135977   0.007069   0.006653   3.520420   4.298803
     C   12   0.006162   0.009010   0.028227   0.004070   0.005101  15.144161
     C   13   0.002469   0.003896   0.014941   0.001088   0.000503   6.017709
     C   14   0.001796   0.002442   0.004382   0.001602   0.000602   2.133220
     C   15   0.001492   0.004277   0.025244   0.002959   0.000850   1.323556
     C   16   0.130385   0.171375   0.065395   0.027846   0.004027   2.260754
     N   17   0.019951   0.036698   0.079513   0.002428   0.000735   6.138891
     H   18   0.002735   0.003600   0.008155   0.001149   0.000596   3.220142
     H   19   0.001540   0.000990   0.005282   0.000605   0.000201   0.750563
     H   20   0.001264   0.000486   0.006040   0.000972   0.000549   0.012217
     H   21   0.001670   0.004592   0.035669   0.001965   0.000807   0.139110
     H   22   0.000955   0.000530   0.005001   0.000656   0.000362   0.103313
     H   23   0.252722   0.652846   0.156680   0.048493   0.006320   0.034528
     H   24   0.056580   0.165205   0.227426   0.006115   0.000824   0.771797
     O   25   0.399851   3.541882   0.464748   0.044038   0.007734   0.029905


                  C 13       C 14       C 15       C 16       N 17       H 18
 ------------------------------------------------------------------------------
     C   13  15.013933
     C   14   6.060230  15.000039
     C   15   1.920156   6.052093  15.029601
     C   16   1.266692   2.070699   6.070465  15.173219
     N   17   2.284544   1.422384   2.298422   6.191156  16.292843
     H   18   0.639353   0.099013   0.048013   0.137025   0.876979   4.082770
     H   19   3.347558   0.727339   0.090667   0.014593   0.106787   0.030217
     H   20   0.089982   0.735309   3.378140   0.756153   0.104096   0.014808
     H   21   0.036871   0.095920   0.643047   3.224453   0.877982   0.017675
     H   22   0.731681   3.411408   0.706649   0.103102   0.032025   0.014697
     H   23   0.018521   0.007823   0.030205   0.081948   0.121671   0.014605
     H   24   0.124014   0.016219   0.119725   0.765141   2.556112   0.061178
     O   25   0.027315   0.008794   0.025599   0.242970   0.485863   0.017940


                  H 19       H 20       H 21       H 22       H 23       H 24
 ------------------------------------------------------------------------------
     H   19   4.240552
     H   20   0.011706   4.269782
     H   21   0.016558   0.028686   4.108760
     H   22   0.042520   0.033208   0.014632   4.250938
     H   23   0.005958   0.005893   0.037330   0.005524   4.364973
     H   24   0.018089   0.017746   0.057302   0.017711   0.350069   3.114018
     O   25   0.006333   0.004928   0.032558   0.004790   4.004890   0.320938


                  O 25
 ------------------
     O   25   6.285203


          HEAT OF FORMATION =     -49.174835 KCALS/MOLE


          TRIVIAL VIBRATIONS, SHOULD BE ZERO

 -38.6853=TX  28.2209=TY  10.5913=TZ  10.1586=RX  -3.0824=RY  -7.2228=RZ


      MOLECULAR POINT GROUP   :   C1  


           EIGENVECTORS  


   Root No.       1         2         3         4         5         6         7         8

                 1 A       2 A       3 A       4 A       5 A       6 A       7 A       8 A   

                  -0.2      -0.0      -0.0      -0.0      -0.0      -0.0      -0.0       0.0
  
           1   -0.0232   -0.0438    0.0854   -0.0430    0.0569    0.0220   -0.0568    0.0067
           2    0.0196   -0.0476   -0.0061   -0.0280   -0.1135   -0.0058   -0.0490    0.0098
           3   -0.0957   -0.0552   -0.1085   -0.1808    0.1175    0.0846   -0.1391   -0.0292
           4   -0.0220   -0.0436    0.0856   -0.0431    0.0566    0.0220   -0.0574    0.0060
           5    0.0821   -0.0902    0.0412   -0.0345   -0.1069    0.0701   -0.0803   -0.0080
           6   -0.0367   -0.2273   -0.2846   -0.3594    0.1628    0.1304   -0.1327   -0.0816
           7   -0.1588    0.0169   -0.0444   -0.0510    0.0484   -0.1415   -0.0116    0.0305
           8    0.0093   -0.0478   -0.0016   -0.0257   -0.1147   -0.0019   -0.0537    0.0057
           9   -0.0405   -0.0944   -0.0498    0.1092   -0.0140   -0.0017    0.0736    0.1180
          10   -0.1747    0.0123   -0.0401   -0.0300    0.0369   -0.1504   -0.0211    0.0332
          11    0.0370   -0.0748    0.0670   -0.0182   -0.1064    0.0846   -0.0863   -0.0168
          12    0.0776   -0.0292   -0.1413   -0.2193    0.1735    0.1158    0.2369    0.1165
          13   -0.1907    0.0423   -0.1160   -0.0801    0.0581   -0.2158    0.0150    0.0505
          14   -0.0204   -0.0345   -0.0376   -0.0327   -0.1127   -0.0435   -0.0376    0.0191
          15   -0.0279   -0.1016    0.1043    0.5186   -0.2499   -0.1233    0.0970    0.1683
          16    0.0246   -0.0812    0.1489   -0.0358    0.0599    0.1030   -0.0937   -0.0160
          17   -0.0422    0.0521   -0.0611   -0.0092   -0.1242   -0.1332    0.0122    0.0552
          18   -0.0298    0.5084    0.3899    0.1732    0.0406    0.0340   -0.0892    0.0306
          19   -0.1078   -0.0081    0.0154   -0.0536    0.0562   -0.0581   -0.0211    0.0172
          20   -0.0289   -0.0319   -0.0386   -0.0194   -0.1206   -0.0525   -0.0302    0.0216
          21   -0.2470   -0.1140   -0.0689    0.0433    0.0205   -0.0145   -0.1525    0.0623
          22    0.2912    0.0529   -0.0851    0.0014   -0.2368    0.0899    0.2814   -0.4492
          23    0.0921   -0.0413    0.1100   -0.0433    0.2804    0.0020    0.2952    0.5012
          24    0.1559   -0.0659    0.0161   -0.0084    0.0598   -0.0573   -0.1893    0.1206
          25   -0.1257   -0.0074    0.0095   -0.0595    0.0596   -0.0565   -0.0141    0.0164
          26   -0.1443   -0.0011   -0.0913   -0.0100   -0.1309   -0.1191   -0.0056    0.0149
          27   -0.3240   -0.0999   -0.0229    0.1998   -0.0876   -0.0907   -0.2607   -0.0024
          28    0.0230   -0.0786    0.1455   -0.0370    0.0601    0.0991   -0.0912   -0.0144
          29   -0.0013    0.0001   -0.0214   -0.0222   -0.1165   -0.0518   -0.0242    0.0222
          30   -0.0285    0.2970    0.1709   -0.0523    0.1018    0.0929   -0.0918   -0.0341
          31    0.0630   -0.1145    0.1940   -0.0378    0.0667    0.1694   -0.1243   -0.0385
          32    0.0236   -0.0127    0.0028   -0.0295   -0.1108   -0.0141   -0.0374    0.0072
          33    0.0553    0.3554    0.1772   -0.1614    0.1409    0.1578   -0.0544   -0.1060
          34   -0.0280   -0.0778    0.0403    0.0678   -0.0484    0.1879    0.0004    0.0607
          35    0.0611    0.0701   -0.0399    0.0133    0.0816   -0.0880   -0.0449   -0.0685
          36    0.0002    0.0080    0.0551   -0.1416   -0.1403   -0.0991    0.1177   -0.0025
          37   -0.0357   -0.1285    0.1556    0.0142   -0.0145    0.0203    0.0399   -0.0212
          38    0.0206    0.0848   -0.0041   -0.0726   -0.0479   -0.0009   -0.0484    0.0014
          39    0.0161    0.0338   -0.0167   -0.0921   -0.1298   -0.0237    0.0949    0.0287
          40   -0.0106   -0.0364    0.0939   -0.0194    0.0266   -0.1527    0.0509   -0.0704
          41    0.0001    0.0384    0.0405   -0.0767   -0.0896    0.0850   -0.0500    0.0303
          42    0.0605    0.0006   -0.0758    0.0314   -0.0355    0.0450    0.0759    0.0231
          43   -0.0001    0.0985   -0.0685    0.0083    0.0340   -0.1427    0.0175   -0.0116
          44    0.0358   -0.0197    0.0411    0.0076    0.0056    0.0745   -0.0466   -0.0236
          45    0.0970   -0.0549   -0.0731    0.1057    0.0479    0.0370    0.0808   -0.0256
          46   -0.0149    0.1686   -0.2001    0.0671   -0.0031    0.0173   -0.0197    0.0789
          47    0.0742   -0.0417    0.0125    0.0924    0.1386   -0.0102   -0.0449   -0.0969
          48    0.1017   -0.0876    0.0059    0.0558    0.0421   -0.0355    0.0997   -0.0596
          49   -0.0132    0.0688   -0.1340    0.0858   -0.0498    0.1764   -0.0226    0.0947
          50    0.0863    0.0060   -0.0293    0.0940    0.1715   -0.0878   -0.0441   -0.1086
          51    0.0283   -0.0517    0.0618   -0.0596   -0.0491   -0.0986    0.1162   -0.0427
          52   -0.0269   -0.1384    0.0776    0.0844   -0.0792    0.3099   -0.0100    0.0991
          53    0.0676    0.1003   -0.0721    0.0220    0.1133   -0.1482   -0.0421   -0.0923
          54   -0.0249    0.0302    0.1069   -0.2323   -0.2081   -0.1499    0.1325    0.0044
          55   -0.0518   -0.2235    0.2808   -0.0129   -0.0289    0.0165    0.0613   -0.0470
          56    0.0019    0.1240   -0.0057   -0.1327   -0.1160    0.0065   -0.0481    0.0337
          57   -0.0046    0.0702   -0.0148   -0.1513   -0.1953   -0.0176    0.0951    0.0594
          58    0.0226    0.1477   -0.0994   -0.0051    0.0724   -0.2516    0.0207   -0.0385
          59    0.0203   -0.0446    0.0648    0.0029   -0.0244    0.1283   -0.0465   -0.0065
          60    0.1037   -0.0684   -0.1305    0.2028    0.1242    0.0823    0.0637   -0.0380
          61   -0.0057    0.2847   -0.3378    0.0897   -0.0030    0.0234   -0.0456    0.1420
          62    0.0871   -0.0930    0.0225    0.1526    0.2123   -0.0170   -0.0402   -0.1427
          63    0.0994   -0.1352    0.0190    0.1081    0.1068   -0.0410    0.1056   -0.1017
          64   -0.0003   -0.0583    0.1641   -0.0689    0.0473   -0.2864    0.0777   -0.1481
          65   -0.0376    0.0421    0.0692   -0.1304   -0.1816    0.1606   -0.0532    0.0926
          66    0.0604    0.0125   -0.1207    0.0702   -0.0264    0.1022    0.0612    0.0526
          67    0.4994   -0.0207   -0.0335   -0.0045   -0.0106   -0.1578   -0.1112    0.2796
          68   -0.3242    0.0429   -0.0196    0.0840    0.1549    0.1747    0.3416   -0.1268
          69   -0.0537   -0.0046   -0.1015    0.1151   -0.0116    0.0462   -0.2556   -0.3239
          70    0.0052    0.1051   -0.2051    0.1133   -0.0811    0.2517   -0.0304    0.1114
          71    0.1212   -0.0005   -0.0556    0.1536    0.2622   -0.1305   -0.0355   -0.1292
          72   -0.0431   -0.0683    0.1059   -0.0838   -0.0457   -0.1364    0.1184   -0.0330
          73    0.0609    0.0629   -0.1330    0.0497   -0.1843    0.1046    0.1659   -0.1719
          74   -0.2412    0.0203    0.0127    0.0629    0.1959    0.1181    0.2998    0.0050
          75    0.1002   -0.0580   -0.0039    0.0092    0.0551   -0.0390   -0.2040    0.0957


   Root No.       9        10        11        12        13        14        15        16

                 9 A      10 A      11 A      12 A      13 A      14 A      15 A      16 A   

                   0.0       0.0       0.1       0.1       0.1       0.1       0.2       0.3
  
           1    0.0682   -0.0197    0.0453   -0.0067    0.2394    0.0269   -0.0302    0.0129
           2    0.0523    0.0092   -0.0171    0.0071   -0.0922   -0.0078    0.0113   -0.0202
           3   -0.0456   -0.2288   -0.0316    0.0025    0.0308   -0.0182    0.0216   -0.1839
           4    0.0685   -0.0193    0.0439   -0.0059    0.2244    0.0256   -0.0281    0.0127
           5    0.0313   -0.0098   -0.0329    0.0192   -0.2190   -0.0131    0.0258   -0.0479
           6   -0.0698   -0.3063    0.2329    0.0094    0.0208   -0.0149    0.0190   -0.3840
           7    0.0957    0.0123    0.0511   -0.0085   -0.0285   -0.0155    0.0282   -0.0176
           8    0.0405    0.0122   -0.0177    0.0019    0.0401    0.0073   -0.0146    0.0123
           9    0.3105   -0.1564   -0.0678    0.0159    0.0134   -0.0004   -0.0014    0.0296
          10    0.0750   -0.0070    0.0656   -0.0094   -0.0382   -0.0184    0.0336   -0.0334
          11   -0.0097   -0.0183   -0.0005   -0.0049    0.3670    0.0553   -0.0881    0.0741
          12    0.6253    0.0783   -0.3456    0.0402    0.0128    0.0375   -0.0842    0.2404
          13    0.1363    0.0424    0.0049   -0.0020   -0.3356   -0.0601    0.0946   -0.0693
          14    0.0596    0.0200   -0.0359    0.0052   -0.1155   -0.0140    0.0173   -0.0133
          15    0.2887   -0.2937    0.4633    0.0106   -0.0492    0.0102    0.0193   -0.1411
          16    0.0472   -0.0397   -0.0069    0.0164   -0.0562    0.0127   -0.0042    0.0014
          17    0.0934    0.0524    0.0481   -0.0343    0.4425    0.0176   -0.0327   -0.0256
          18    0.0776   -0.0302   -0.3625   -0.0091    0.0363   -0.0258    0.0340   -0.4119
          19    0.0933   -0.0032    0.0663   -0.0105    0.2203    0.0223   -0.0304    0.0193
          20    0.0667    0.0183   -0.0201    0.0047   -0.1008   -0.0110    0.0126   -0.0057
          21   -0.0585   -0.2252   -0.2576   -0.0041    0.0449   -0.0195    0.0246    0.0290
          22    0.0425   -0.2498   -0.0978    0.0208    0.0797   -0.1969    0.1720   -0.1436
          23   -0.2167   -0.0984    0.0160   -0.0537    0.0202   -0.0387    0.1725   -0.0637
          24    0.0096    0.2259    0.0587   -0.0450    0.0502   -0.0691    0.1839   -0.1107
          25    0.1049   -0.0061    0.0628   -0.0076    0.2005    0.0240   -0.0350    0.0070
          26    0.0890    0.0300   -0.0263    0.0134   -0.2682   -0.0180    0.0125    0.0302
          27   -0.2699   -0.2583   -0.2952   -0.0140    0.0277   -0.0276    0.0285    0.4117
          28    0.0484   -0.0377   -0.0052    0.0143   -0.0252    0.0142   -0.0070    0.0012
          29    0.0707    0.0279    0.0171   -0.0053    0.0581   -0.0003   -0.0022   -0.0043
          30    0.0235   -0.1320    0.0219    0.0031   -0.0096   -0.0054    0.0035   -0.0394
          31    0.0314   -0.0540   -0.0581    0.0391   -0.3721   -0.0055    0.0270   -0.0103
          32    0.0630    0.0188    0.0252    0.0065   -0.1004   -0.0068    0.0101    0.0278
          33    0.0372   -0.1501    0.4765    0.0159   -0.1019    0.0239   -0.0376    0.5067
          34   -0.0428    0.0971    0.0036   -0.0769   -0.0139   -0.0565   -0.0983   -0.0100
          35   -0.0179   -0.0276   -0.0030    0.0560   -0.0081    0.0610   -0.0519   -0.0048
          36   -0.0996    0.0604    0.0023    0.0360   -0.0096    0.0485   -0.0098    0.0077
          37   -0.0506    0.0879   -0.0039    0.1587    0.0035   -0.0173   -0.0311    0.0045
          38   -0.0206   -0.0157    0.0069   -0.0647   -0.0126    0.0308   -0.0457   -0.0117
          39   -0.0943    0.0640    0.0053   -0.0654   -0.0179    0.0289   -0.0483    0.0012
          40   -0.0510    0.0451   -0.0048   -0.0459   -0.0170    0.1303   -0.0106   -0.0131
          41   -0.0215    0.0053    0.0076    0.0263   -0.0021   -0.0406   -0.0470   -0.0025
          42   -0.0898    0.0815    0.0031    0.0329   -0.0148   -0.0190   -0.0989    0.0038
          43   -0.0574    0.0367    0.0121   -0.0763   -0.0160   -0.1026   -0.1161   -0.0009
          44   -0.0122    0.0010   -0.0066    0.0504   -0.0039    0.0756   -0.0175   -0.0085
          45   -0.0823    0.0793   -0.0097    0.0504   -0.0170    0.0931   -0.0701   -0.0027
          46   -0.0719    0.0622    0.0200    0.1172   -0.0075    0.0008   -0.0605   -0.0158
          47   -0.0002   -0.0204   -0.0175   -0.0310   -0.0131    0.0383   -0.0903    0.0011
          48   -0.0761    0.0686   -0.0113   -0.0366   -0.0186    0.0364   -0.0805    0.0032
          49   -0.0524    0.0760    0.0068   -0.0683   -0.0184    0.1403   -0.0110   -0.0104
          50   -0.0081   -0.0273   -0.0118    0.0529   -0.0075   -0.0272   -0.1107   -0.0020
          51   -0.0883    0.0582   -0.0067    0.0377   -0.0070   -0.0412   -0.0595    0.0099
          52   -0.0336    0.1165    0.0066   -0.2947   -0.0270   -0.2298   -0.2162   -0.0347
          53   -0.0212   -0.0393   -0.0062    0.1601   -0.0019    0.1470    0.0002    0.0056
          54   -0.1093    0.0656    0.0108    0.1343   -0.0034    0.1196    0.0657    0.0237
          55   -0.0557    0.1067   -0.0089    0.4775    0.0293   -0.0819    0.0064    0.0347
          56   -0.0221   -0.0190    0.0136   -0.2275   -0.0230    0.0562   -0.0379   -0.0244
          57   -0.0958    0.0612    0.0118   -0.2172   -0.0280    0.0544   -0.0414   -0.0095
          58   -0.0569    0.0159    0.0181   -0.2319   -0.0247   -0.3604   -0.2635    0.0260
          59   -0.0134    0.0123   -0.0087    0.1244    0.0004    0.2006    0.0565   -0.0225
          60   -0.0773    0.0819   -0.0180    0.1376   -0.0182    0.2177   -0.0564   -0.0125
          61   -0.0960    0.0734    0.0386    0.4305    0.0070    0.0158   -0.0413   -0.0609
          62    0.0120   -0.0253   -0.0282   -0.1757   -0.0289    0.0566   -0.1596    0.0151
          63   -0.0654    0.0621   -0.0224   -0.1699   -0.0330    0.0518   -0.1442    0.0184
          64   -0.0471    0.0153   -0.0182   -0.1805   -0.0342    0.4404    0.0932   -0.0471
          65   -0.0259    0.0241    0.0184    0.0928    0.0107   -0.2094   -0.0684    0.0157
          66   -0.0912    0.0940    0.0083    0.0926   -0.0087   -0.1520   -0.1552    0.0186
          67   -0.0918   -0.1845   -0.0988   -0.0531    0.0353   -0.1488    0.3892    0.2317
          68   -0.0794    0.0490    0.0388   -0.0612    0.0259   -0.0835    0.2609    0.0325
          69    0.1256    0.4003    0.0883   -0.0893    0.0602   -0.1445    0.4294    0.0599
          70   -0.0549    0.0661   -0.0007   -0.1538   -0.0441    0.4009    0.0213    0.0173
          71   -0.0100   -0.0216   -0.0059    0.0979    0.0024   -0.1601   -0.1081    0.0090
          72   -0.0939    0.0612   -0.0039    0.0860   -0.0054   -0.1396   -0.1317   -0.0040
          73   -0.0493   -0.2325   -0.1423   -0.0424    0.0192    0.0394    0.1178    0.0985
          74   -0.0997    0.0422    0.0468   -0.0604    0.0301   -0.1157    0.2948    0.0335
          75    0.0091    0.2384    0.0488   -0.0544    0.0453   -0.0446    0.1897   -0.0640


   Root No.      17        18        19        20        21        22        23        24

                17 A      18 A      19 A      20 A      21 A      22 A      23 A      24 A   

                   0.3       0.4       0.5       0.6       0.7       0.8       0.9       0.9
  
           1   -0.0058   -0.0833    0.1268    0.0030    0.0241   -0.0028   -0.0008    0.0099
           2   -0.0013   -0.0452    0.0508   -0.0007   -0.0040    0.0015    0.0009   -0.0551
           3    0.0210    0.0092   -0.0200   -0.0002   -0.0086   -0.0139    0.0026    0.1501
           4   -0.0057   -0.0796    0.1267    0.0027    0.0247   -0.0029   -0.0008    0.0203
           5   -0.0050   -0.2026    0.3269    0.0017    0.1132   -0.0221   -0.0016    0.4957
           6    0.0651    0.1726    0.1582   -0.0092   -0.0029    0.0213   -0.0039   -0.1964
           7    0.0045    0.0406   -0.0957    0.0025   -0.0216    0.0012   -0.0005    0.0326
           8    0.0007    0.0867   -0.1294   -0.0020   -0.0404    0.0048    0.0014   -0.0317
           9   -0.0148   -0.0357   -0.0399   -0.0025   -0.0331   -0.0045    0.0015    0.0905
          10    0.0047    0.0200   -0.0933    0.0033   -0.0193   -0.0009   -0.0001    0.0388
          11    0.0066    0.3122   -0.3559   -0.0026   -0.0579    0.0032    0.0004    0.0822
          12   -0.0280    0.0262    0.0467   -0.0055   -0.0234    0.0133   -0.0025   -0.0821
          13   -0.0027   -0.1745    0.0762    0.0040   -0.0233    0.0027    0.0007   -0.0653
          14   -0.0020   -0.0140   -0.0557   -0.0006   -0.0379    0.0044    0.0019   -0.0780
          15    0.0255    0.0641    0.0362    0.0025    0.0054    0.0021   -0.0018   -0.0360
          16   -0.0053   -0.0460    0.0964    0.0028    0.0415   -0.0079   -0.0012    0.1336
          17   -0.0063   -0.2896    0.3952    0.0015    0.0667   -0.0035   -0.0001   -0.1266
          18    0.0621    0.1488    0.0742   -0.0051   -0.0017    0.0105   -0.0018   -0.0824
          19    0.0051    0.1204   -0.1464    0.0015   -0.0284    0.0034   -0.0005   -0.0062
          20    0.0006    0.0356   -0.0851   -0.0011   -0.0282    0.0030    0.0012   -0.0281
          21   -0.0245   -0.1413   -0.1346    0.0069   -0.0029   -0.0295    0.0038    0.2188
          22   -0.1246   -0.3175   -0.2353   -0.0789   -0.3477    0.0700    0.0222    0.0502
          23    0.0086   -0.2146   -0.1931    0.0548    0.0901   -0.0364   -0.0078   -0.0528
          24   -0.0208   -0.3064   -0.3014    0.0257    0.0087   -0.0017    0.0009   -0.0038
          25    0.0096    0.1427   -0.1437    0.0027   -0.0032   -0.0033   -0.0006    0.0450
          26    0.0124    0.2478   -0.1930   -0.0031    0.0506   -0.0107   -0.0019    0.3101
          27   -0.0794   -0.1478    0.0662   -0.0181   -0.1462    0.0423   -0.0014   -0.2085
          28   -0.0060   -0.0647    0.1200    0.0030    0.0472   -0.0087   -0.0012    0.1403
          29   -0.0025   -0.0665    0.0681   -0.0007   -0.0150    0.0056    0.0011   -0.1453
          30    0.0075    0.0045   -0.0138    0.0004    0.0023   -0.0069    0.0012    0.0800
          31   -0.0025    0.0657   -0.0705    0.0011   -0.0308    0.0105    0.0003   -0.3922
          32   -0.0065   -0.0321   -0.0053   -0.0012   -0.0499    0.0150    0.0017   -0.4189
          33   -0.0647   -0.1286   -0.0642    0.0016   -0.0001   -0.0042   -0.0003    0.0325
          34   -0.0438   -0.0057   -0.0030   -0.2335    0.0338   -0.0256    0.0329   -0.0086
          35    0.0189    0.0006    0.0057    0.0992   -0.0239   -0.0649    0.0706    0.0013
          36    0.0198    0.0365    0.0268    0.1036   -0.0003    0.0187    0.0168    0.0085
          37    0.0547   -0.0069    0.0017   -0.2540    0.0577   -0.0319    0.0110   -0.0203
          38   -0.0296    0.0059    0.0126    0.1148   -0.0623   -0.0529   -0.0249   -0.0009
          39   -0.0234    0.0400    0.0293    0.1035   -0.0074    0.0168    0.0708    0.0156
          40   -0.0397    0.0019    0.0049   -0.2330    0.0413   -0.0609   -0.0259   -0.0188
          41    0.0150    0.0007    0.0074    0.1135   -0.0456   -0.0213   -0.0255    0.0001
          42    0.0171    0.0366    0.0405    0.0941   -0.0620   -0.0950    0.0142    0.0060
          43    0.0639   -0.0087   -0.0077   -0.2260    0.0598    0.0123   -0.0484   -0.0177
          44   -0.0320   -0.0072   -0.0053    0.1095   -0.0117    0.0517   -0.0408   -0.0134
          45   -0.0272    0.0301    0.0317    0.0995   -0.0443   -0.0249   -0.0340    0.0015
          46   -0.0291   -0.0069   -0.0108   -0.2396    0.0461    0.0193   -0.0109   -0.0048
          47    0.0138   -0.0095   -0.0125    0.1097    0.0156    0.0557    0.0611   -0.0042
          48    0.0160    0.0256    0.0311    0.1013   -0.0378   -0.0245   -0.0557   -0.0099
          49    0.0778   -0.0452   -0.0329   -0.2378   -0.0111    0.0549   -0.0010    0.0063
          50   -0.0372    0.0087   -0.0005    0.1178    0.0379    0.0064    0.0197   -0.0090
          51   -0.0315    0.0396    0.0158    0.1163    0.0711    0.0681   -0.0010   -0.0124
          52   -0.3651    0.0710    0.0582    0.2228   -0.0388   -0.1515    0.0840   -0.0139
          53    0.1744   -0.0459   -0.0375   -0.1123    0.0435    0.0841    0.0214    0.0110
          54    0.1662    0.0523    0.0760   -0.1477   -0.1295   -0.4088    0.1556   -0.0297
          55    0.2584   -0.0023    0.0325    0.2677   -0.0669    0.2873   -0.2684    0.0441
          56   -0.1278    0.0156    0.0126   -0.1150    0.0182    0.2603   -0.3471    0.0216
          57   -0.1157    0.0534    0.0329   -0.1102    0.0718    0.3345   -0.2366    0.0417
          58    0.2816   -0.0150    0.0053    0.2486   -0.0500    0.1660    0.1191    0.0059
          59   -0.1378   -0.0062   -0.0126   -0.1202    0.0255   -0.0862   -0.1984   -0.0315
          60   -0.1226    0.0386    0.0250   -0.1244    0.1123    0.4507    0.4451    0.0143
          61   -0.3558    0.0241    0.0126    0.2023   -0.0999   -0.2399   -0.0788    0.0410
          62    0.1687   -0.0321   -0.0219   -0.1208   -0.0702   -0.2251   -0.0340    0.0609
          63    0.1595    0.0065    0.0214   -0.1132   -0.1075   -0.2709   -0.1477    0.0459
          64   -0.2971    0.0312    0.0272    0.1971   -0.0592   -0.0527    0.1928    0.0154
          65    0.1414   -0.0120   -0.0048   -0.1099    0.0376   -0.0221    0.5596    0.0197
          66    0.1313    0.0257    0.0344   -0.0985   -0.0304   -0.1128   -0.2302   -0.0181
          67    0.0075    0.3716    0.2361   -0.0600   -0.1130    0.0355    0.0183    0.0710
          68    0.0176    0.0920    0.0918    0.0143    0.0144   -0.0009    0.0010    0.0036
          69    0.0267    0.1326    0.0932    0.0290    0.0543   -0.0265   -0.0032   -0.0136
          70    0.3851   -0.0568    0.0044    0.2060   -0.2068    0.1055    0.0048    0.0047
          71   -0.1750    0.0885    0.0627   -0.1076    0.1004    0.0077   -0.0756   -0.0499
          72   -0.1810    0.0175   -0.0448   -0.1063    0.1444    0.0857    0.0163   -0.0034
          73    0.1300    0.0237   -0.0896    0.1918    0.7438   -0.1796   -0.0471   -0.1112
          74   -0.0156    0.0831    0.0790   -0.0392   -0.1667    0.0426    0.0155    0.0392
          75    0.0160   -0.2006   -0.2209    0.0564    0.1679   -0.0400   -0.0086   -0.0092


   Root No.      25        26        27        28        29        30        31        32

                25 A      26 A      27 A      28 A      29 A      30 A      31 A      32 A   

                   1.0       1.0       1.1       1.2       1.2       1.4       1.4       1.5
  
           1   -0.0027   -0.0027   -0.0020   -0.0020   -0.0038   -0.0031    0.0081    0.0017
           2    0.0061    0.0401   -0.0095   -0.0588   -0.0256   -0.0018    0.0153   -0.0018
           3    0.0959    0.2957   -0.1766   -0.0429   -0.0259    0.0227    0.0443   -0.0257
           4   -0.0035   -0.0093   -0.0002    0.0013   -0.0023   -0.0026    0.0082    0.0029
           5    0.0063   -0.2153    0.1164   -0.1825   -0.0431   -0.0066    0.0143   -0.0321
           6   -0.1044   -0.2787    0.1511    0.0578    0.0257   -0.0111   -0.0321    0.0176
           7   -0.0017   -0.0547    0.0346   -0.0116    0.0147    0.0063   -0.0219   -0.0070
           8    0.0126    0.0049    0.0309   -0.1718   -0.0523   -0.0039    0.0208    0.0044
           9    0.0555    0.1492   -0.0861   -0.0085   -0.0007    0.0081   -0.0068    0.0008
          10    0.0073   -0.0304    0.0268   -0.0304    0.0077    0.0051   -0.0206   -0.0074
          11    0.0082   -0.0741    0.0596   -0.1004   -0.0094    0.0037   -0.0176    0.0051
          12   -0.0504   -0.1498    0.0813    0.0051    0.0054   -0.0038   -0.0056    0.0042
          13    0.0171    0.0153    0.0413   -0.2241   -0.0633   -0.0022    0.0156   -0.0015
          14    0.0220    0.0377    0.0375   -0.2787   -0.0922   -0.0093    0.0385    0.0094
          15   -0.0161   -0.0413    0.0280   -0.0243   -0.0117   -0.0048    0.0067    0.0001
          16   -0.0019   -0.0508    0.0098    0.0500    0.0239    0.0006   -0.0114    0.0271
          17   -0.0169    0.1249   -0.1346    0.3878    0.1067    0.0115   -0.0353    0.0101
          18   -0.0545   -0.1650    0.0964   -0.0098    0.0038   -0.0082   -0.0210    0.0082
          19   -0.0045   -0.0515    0.0430   -0.0719   -0.0133   -0.0012    0.0001   -0.0085
          20    0.0095    0.0048    0.0233   -0.1154   -0.0336   -0.0018    0.0087    0.0032
          21    0.1338    0.3665   -0.1887   -0.0178   -0.0119    0.0041   -0.0090   -0.0008
          22    0.0035   -0.0766    0.0170    0.0678    0.0375    0.0160   -0.0051    0.0257
          23   -0.0052   -0.0660    0.1011    0.0079    0.0427    0.0323   -0.0990    0.0483
          24   -0.0090   -0.1095    0.0624    0.0840    0.0567   -0.0119    0.0375    0.0088
          25    0.0071   -0.0091    0.0139   -0.0730   -0.0249   -0.0048    0.0156   -0.0197
          26   -0.0374   -0.1430   -0.0509    0.6037    0.2180    0.0274   -0.0973    0.0421
          27   -0.0999   -0.3372    0.1879    0.0164    0.0418    0.0047   -0.0423    0.0212
          28   -0.0012   -0.0441    0.0021    0.0670    0.0281    0.0009   -0.0118    0.0224
          29    0.0008    0.0597   -0.0115   -0.0842   -0.0405   -0.0043    0.0266   -0.0147
          30    0.0442    0.1414   -0.0908   -0.0149   -0.0125    0.0174    0.0410   -0.0214
          31   -0.0144    0.1985   -0.1349    0.2722    0.0609   -0.0009   -0.0127   -0.0039
          32   -0.0088    0.1704   -0.0685   -0.0041   -0.0331   -0.0089    0.0288   -0.0304
          33    0.0024   -0.0208    0.0196    0.0006    0.0074   -0.0019   -0.0227    0.0099
          34   -0.0016   -0.0278   -0.0440    0.0128   -0.1150    0.0597   -0.0951   -0.3626
          35    0.0486   -0.0118   -0.0280    0.0372   -0.1990   -0.0053   -0.0059    0.2007
          36   -0.0506   -0.0268   -0.1110   -0.0110   -0.0507   -0.0153    0.1284    0.1473
          37    0.0152   -0.0232   -0.0381   -0.0219   -0.0385    0.3933   -0.1092   -0.1507
          38    0.1071   -0.0099    0.0162    0.0258   -0.0631   -0.2023   -0.1755    0.1340
          39   -0.0885   -0.0154   -0.1304   -0.0191   -0.0649   -0.1534    0.1356    0.0532
          40    0.0242   -0.0260   -0.0681   -0.0379   -0.0252    0.2882   -0.1108    0.2427
          41    0.0608   -0.0267   -0.0174    0.0233   -0.0569   -0.1569   -0.1190   -0.0752
          42   -0.0218   -0.0187   -0.1355   -0.0523   -0.0295   -0.1390   -0.2520   -0.0287
          43    0.0620   -0.0362   -0.0524   -0.0190    0.0272   -0.0383    0.0773    0.4038
          44    0.1246   -0.0722   -0.0211    0.0362   -0.0093    0.0038    0.0147   -0.2300
          45    0.0003   -0.0227   -0.0892   -0.0428    0.0459    0.0014   -0.1530   -0.1699
          46    0.0367   -0.0264   -0.0548   -0.0032    0.0075   -0.3367    0.0899    0.1883
          47    0.0626   -0.0425    0.0015    0.0592   -0.1207    0.1756    0.1454   -0.1379
          48    0.0107   -0.0350   -0.0922   -0.0739    0.1509    0.1352   -0.1443   -0.0774
          49    0.0017   -0.0546   -0.0671    0.0283   -0.0344   -0.3803    0.0400   -0.2851
          50    0.0427   -0.0279   -0.0260    0.0177   -0.0767    0.1926    0.1073    0.1067
          51   -0.0095   -0.0766   -0.1429   -0.0300    0.0483    0.1783    0.1957    0.0681
          52    0.1542    0.0102    0.0616    0.0395   -0.1192    0.0046    0.0879    0.2221
          53   -0.1331   -0.0626   -0.2025    0.0082   -0.2968    0.0304   -0.1351   -0.0667
          54    0.4612    0.0891    0.3654    0.1017    0.0385    0.0086    0.1415   -0.1325
          55   -0.0752    0.1517    0.1647    0.0019    0.0495   -0.2267    0.0055    0.1106
          56    0.0315    0.1695    0.2761    0.0147    0.0666    0.0985   -0.2538    0.0125
          57   -0.1972    0.1584    0.0895   -0.0411    0.0658    0.1395    0.1753   -0.0906
          58    0.1268   -0.0004    0.0728    0.0505   -0.0299    0.0132   -0.0832   -0.2549
          59    0.0931   -0.1373   -0.1572   -0.0112    0.0416   -0.0268    0.1074    0.0702
          60    0.1800    0.1592    0.3226    0.0859   -0.0969   -0.0211   -0.0975    0.1437
          61   -0.2844    0.1461    0.1885    0.0328    0.0053    0.2081    0.0503   -0.1143
          62   -0.3021    0.1801    0.2634    0.1213   -0.1675   -0.0747    0.3099   -0.0070
          63   -0.3124    0.1543    0.1095   -0.0485    0.1788   -0.1122   -0.1091    0.0682
          64   -0.1140    0.0086   -0.1023   -0.0676    0.0687   -0.1842   -0.2248   -0.0711
          65   -0.3674    0.0769   -0.0745   -0.1564    0.3131    0.0681   -0.1089    0.0856
          66    0.1477   -0.0718   -0.1495   -0.0149   -0.1765    0.0699   -0.3115    0.1466
          67   -0.0294    0.0733   -0.0834    0.0163   -0.0919   -0.0023    0.0645   -0.0225
          68   -0.0062    0.0318   -0.0299   -0.0137   -0.0359   -0.0038    0.0396   -0.0154
          69   -0.0113    0.0457    0.0180   -0.0355   -0.0296    0.0354   -0.0669    0.0305
          70    0.0920   -0.1141   -0.1344   -0.0426    0.2316    0.2199    0.2723    0.0803
          71    0.2558   -0.0110   -0.0575   -0.1979    0.6056   -0.1265    0.1296   -0.1110
          72   -0.1004   -0.1617   -0.1752    0.0945   -0.1731   -0.1153    0.3359   -0.1694
          73   -0.0134    0.0345    0.1057   -0.0355   -0.0009   -0.0325   -0.0287   -0.0183
          74   -0.0149   -0.0004   -0.0369    0.0321   -0.0386   -0.0108    0.0407   -0.0100
          75   -0.0058   -0.0283    0.0364    0.0413    0.0147   -0.0273    0.0317   -0.0122


   Root No.      33        34        35        36        37        38        39        40

                33 A      34 A      35 A      36 A      37 A      38 A      39 A      40 A   

                   1.5       1.5       1.7       1.9       1.9       2.4       2.9       3.0
  
           1   -0.0900    0.0198    0.0114   -0.0600   -0.2425    0.0008    0.1096    0.0175
           2   -0.0778    0.0233    0.0304   -0.0324   -0.1290   -0.0082   -0.2113   -0.0698
           3    0.0049    0.0646    0.3537    0.0097    0.0211    0.0064    0.0588   -0.4176
           4   -0.1211    0.0255    0.0208   -0.0908   -0.3778   -0.0017    0.2500    0.0507
           5    0.4946   -0.0529    0.0007    0.0007    0.0734    0.0139    0.1597    0.0318
           6   -0.0334   -0.0369   -0.1821   -0.0049   -0.0146   -0.0044   -0.0269    0.1334
           7    0.2142   -0.0409    0.0317    0.0233    0.0350   -0.0271   -0.2531   -0.0856
           8   -0.1891    0.0349   -0.0197    0.0168    0.1026    0.0171    0.1593    0.0091
           9    0.0360   -0.0126   -0.2790    0.0902   -0.0750    0.0355   -0.1387    0.6160
          10    0.2142   -0.0419   -0.0010    0.0297    0.0323   -0.0263   -0.2907   -0.0346
          11    0.1069   -0.0301   -0.0164    0.0797    0.2430   -0.0245   -0.2857   -0.0016
          12    0.0104   -0.0039    0.1421   -0.0334    0.0422   -0.0202    0.0133   -0.2196
          13   -0.1486    0.0249   -0.0293    0.0484    0.1806    0.0014   -0.0362    0.0452
          14   -0.3978    0.0696   -0.0523    0.0299    0.1913    0.0324    0.3195    0.0746
          15   -0.0243    0.0122    0.1351   -0.0263    0.0492   -0.0123    0.0503   -0.2159
          16   -0.3331    0.0323    0.0024    0.0077   -0.0184   -0.0165   -0.3801   -0.0719
          17    0.0094   -0.0266   -0.0432    0.1073    0.4022    0.0063   -0.0092   -0.0090
          18    0.0030   -0.0311   -0.2530    0.0065   -0.0410    0.0045    0.0219   -0.1314
          19    0.1242   -0.0151    0.0278    0.0013    0.0211    0.0070    0.1583    0.0259
          20   -0.1068    0.0166   -0.0145    0.0131    0.0499   -0.0007   -0.0790   -0.0192
          21    0.0227   -0.0163   -0.3837    0.0271   -0.0743   -0.0006    0.0272   -0.1522
          22    0.0018   -0.0365    0.0206    0.0676   -0.0270    0.0069    0.0272   -0.0243
          23   -0.0022   -0.0561    0.0940    0.4997   -0.1296    0.0404    0.0384   -0.0246
          24   -0.0035   -0.0297    0.0156   -0.2931    0.0593   -0.0090    0.0156    0.0256
          25    0.1683   -0.0065   -0.0141   -0.0098    0.0178    0.0398    0.4079    0.0440
          26   -0.1529   -0.0390    0.0534   -0.0163   -0.2079   -0.0257    0.1572    0.0173
          27    0.0034   -0.0318    0.1858    0.0024    0.0200   -0.0265    0.0241    0.0299
          28   -0.2501    0.0212   -0.0071    0.0209    0.0465   -0.0068   -0.1535   -0.0245
          29    0.0301    0.0211    0.0614   -0.0904   -0.3281   -0.0077   -0.1278    0.0061
          30   -0.0071    0.0637    0.5955   -0.0361    0.0561   -0.0141   -0.0630    0.4697
          31    0.2209   -0.0384   -0.0228    0.0688    0.2972    0.0137    0.1817    0.0382
          32    0.2886   -0.0115    0.0012   -0.1104   -0.3926   -0.0032   -0.0871   -0.0392
          33   -0.0176   -0.0268   -0.2844    0.0298    0.0086    0.0058    0.0258   -0.1320
          34   -0.0383   -0.1303    0.0062    0.0252   -0.0034   -0.0634    0.0034    0.0002
          35   -0.0124   -0.1937    0.0163   -0.0161   -0.0004   -0.1095    0.0245    0.0242
          36    0.0054   -0.0262   -0.0111    0.0225   -0.0024   -0.0503   -0.0043    0.0047
          37   -0.0106   -0.0137   -0.0080   -0.0224    0.0047    0.0190   -0.0051   -0.0078
          38    0.0194    0.0966    0.0081   -0.0309    0.0033    0.1363   -0.0010    0.0108
          39   -0.0204   -0.1883    0.0016    0.0446   -0.0074   -0.1605   -0.0016   -0.0013
          40    0.0172    0.0171    0.0003   -0.0471    0.0054    0.0650   -0.0023    0.0106
          41    0.0076    0.1048   -0.0041    0.0038    0.0011    0.0427   -0.0090   -0.0089
          42   -0.0204   -0.1474    0.0194   -0.0393    0.0023    0.1373   -0.0155   -0.0211
          43    0.0446    0.1624   -0.0099    0.0246   -0.0036   -0.1106   -0.0005   -0.0039
          44    0.0187    0.2664   -0.0333    0.0508   -0.0013   -0.1682   -0.0022   -0.0070
          45   -0.0067    0.0285   -0.0069   -0.0036    0.0014   -0.0378    0.0011   -0.0023
          46    0.0145    0.0286    0.0036    0.0424   -0.0074   -0.0223   -0.0081   -0.0208
          47   -0.0160   -0.0633   -0.0068    0.0123   -0.0017    0.0612   -0.0147   -0.0100
          48    0.0158    0.1607   -0.0177   -0.0022    0.0021   -0.1241    0.0160    0.0192
          49   -0.0205   -0.0276    0.0061    0.0541   -0.0081    0.0137   -0.0028    0.0155
          50   -0.0012   -0.0609   -0.0042   -0.0081    0.0006    0.0161   -0.0027   -0.0104
          51    0.0197    0.1255   -0.0303    0.0193    0.0006    0.0798   -0.0193   -0.0132
          52   -0.0085   -0.1701    0.0163   -0.0025   -0.0007   -0.1447    0.0309    0.0333
          53   -0.0396   -0.2813    0.0188    0.0052   -0.0030   -0.2477    0.0531    0.0532
          54   -0.0183   -0.0985    0.0019    0.0041   -0.0033   -0.0398    0.0101    0.0100
          55   -0.0072   -0.1081    0.0184   -0.0021   -0.0020    0.0017    0.0025    0.0059
          56    0.0136    0.0977    0.0084   -0.0792    0.0093    0.2913    0.0028    0.0177
          57   -0.0415   -0.3016   -0.0005    0.0406   -0.0083   -0.2794    0.0021   -0.0167
          58    0.0135    0.2252   -0.0281    0.0351   -0.0018   -0.1740   -0.0004   -0.0100
          59    0.0477    0.3584   -0.0420    0.0824   -0.0047   -0.3496   -0.0043   -0.0228
          60    0.0257    0.1443   -0.0017   -0.0096    0.0028   -0.0185    0.0004    0.0009
          61    0.0047    0.0871   -0.0151   -0.0002    0.0017    0.0101   -0.0011    0.0049
          62   -0.0103   -0.0687    0.0004    0.0322   -0.0032    0.2057   -0.0496   -0.0429
          63    0.0341    0.2500   -0.0168   -0.0060    0.0046   -0.1916    0.0443    0.0434
          64   -0.0122   -0.0635    0.0143   -0.0283    0.0012    0.1430   -0.0212   -0.0267
          65    0.0102    0.0332   -0.0004   -0.0272    0.0026    0.0509   -0.0052   -0.0046
          66   -0.0079   -0.1301    0.0207   -0.0781    0.0075    0.2567   -0.0343   -0.0353
          67    0.0025    0.0644   -0.0475   -0.1129    0.0339    0.0266   -0.0075   -0.0011
          68    0.0007    0.0369   -0.0377   -0.1852    0.0514    0.0081   -0.0299    0.0108
          69    0.0029   -0.0017    0.0484    0.5131   -0.1223    0.0631    0.0203   -0.0187
          70    0.0052   -0.0208   -0.0097    0.0089   -0.0091    0.2378    0.0041    0.0038
          71   -0.0415   -0.3006    0.0170   -0.0261   -0.0033    0.0701    0.0074    0.0063
          72    0.0182    0.2326   -0.0181    0.0730   -0.0102    0.4409   -0.0136    0.0208
          73   -0.0056    0.0051    0.0127   -0.0818    0.0246    0.0067   -0.0131    0.0157
          74    0.0002    0.0252   -0.0354   -0.3118    0.0739   -0.0475   -0.0031    0.0080
          75   -0.0012    0.0009   -0.0345   -0.3504    0.0810   -0.0409   -0.0143    0.0035


   Root No.      41        42        43        44        45        46        47        48

                41 A      42 A      43 A      44 A      45 A      46 A      47 A      48 A   

                   3.1       3.1       3.4       3.4       3.6       3.7       4.8       4.9
  
           1    0.0006   -0.0179   -0.1424   -0.0077   -0.0069   -0.0011   -0.0000    0.0315
           2   -0.0003    0.0354    0.1401    0.0093    0.0434    0.0064    0.0043   -0.1759
           3    0.0122    0.0758   -0.0891    0.0347    0.5132    0.0916    0.0024    0.0242
           4    0.0019   -0.0494   -0.4546   -0.0240   -0.0328   -0.0051    0.0068   -0.2690
           5   -0.0002   -0.0179   -0.0303   -0.0027   -0.0092   -0.0015   -0.0001    0.0390
           6   -0.0043   -0.0239    0.0285   -0.0115   -0.1494   -0.0260   -0.0002   -0.0064
           7   -0.0001    0.0265    0.0145   -0.0014   -0.0345   -0.0068    0.0048   -0.2232
           8    0.0005   -0.0081    0.1494    0.0083    0.0050    0.0014    0.0054   -0.2413
           9   -0.0085   -0.0249   -0.0056    0.0307    0.4605    0.0816    0.0035   -0.0172
          10   -0.0012    0.0248    0.0021   -0.0003    0.0039    0.0009    0.0076   -0.3129
          11   -0.0007    0.0076   -0.4279   -0.0245   -0.0473   -0.0131   -0.0055    0.2592
          12    0.0018    0.0098   -0.0060   -0.0123   -0.1499   -0.0251   -0.0005   -0.0171
          13    0.0009   -0.0114   -0.3521   -0.0177   -0.0244   -0.0077   -0.0090    0.3741
          14    0.0009   -0.0344   -0.0425   -0.0017    0.0021    0.0007    0.0000    0.0254
          15    0.0033    0.0095   -0.0252   -0.0109   -0.1272   -0.0217   -0.0016    0.0244
          16   -0.0020    0.0553    0.3105    0.0140    0.0145    0.0002   -0.0065    0.3088
          17    0.0003    0.0057    0.0348    0.0026    0.0052   -0.0001   -0.0004    0.0169
          18    0.0042    0.0206   -0.0180    0.0065    0.1004    0.0177    0.0009    0.0009
          19    0.0001   -0.0121    0.1471    0.0103    0.0545    0.0123    0.0017   -0.0260
          20   -0.0009    0.0141    0.1481    0.0074    0.0121    0.0027    0.0086   -0.3564
          21    0.0015   -0.0067    0.0403   -0.0300   -0.4972   -0.0931   -0.0052    0.0025
          22   -0.0074   -0.0058    0.0156   -0.0065   -0.0347    0.0007    0.0019    0.0114
          23   -0.0012   -0.0002    0.0172   -0.0076   -0.0216    0.0031    0.0014    0.0099
          24   -0.0191   -0.0077    0.0101    0.0023    0.0687    0.0328    0.0119    0.0146
          25    0.0012   -0.0168    0.4772    0.0261    0.0380    0.0080   -0.0069    0.2786
          26    0.0012   -0.0295   -0.0792   -0.0021    0.0159    0.0052   -0.0017    0.0934
          27    0.0001   -0.0110    0.0240    0.0074    0.1204    0.0259    0.0015    0.0138
          28   -0.0010    0.0204    0.0946    0.0034    0.0049   -0.0000    0.0012   -0.0207
          29   -0.0014    0.0117    0.0626    0.0008   -0.0252   -0.0058    0.0008   -0.0370
          30   -0.0107   -0.0732    0.0540   -0.0244   -0.3469   -0.0622   -0.0012   -0.0080
          31    0.0004   -0.0239   -0.1017   -0.0063   -0.0050   -0.0004    0.0043   -0.1463
          32   -0.0006    0.0155    0.0426    0.0006   -0.0107   -0.0034   -0.0081    0.3769
          33    0.0044    0.0196   -0.0166    0.0046    0.0776    0.0129    0.0010   -0.0259
          34   -0.2679    0.0184   -0.0232    0.4504   -0.0452    0.0723    0.2876    0.0039
          35    0.0838    0.1515    0.0111   -0.2261    0.0355   -0.1087   -0.1445   -0.0002
          36    0.1374    0.0248    0.0039   -0.1976   -0.0507    0.3237   -0.1144   -0.0119
          37   -0.1750   -0.0368    0.0157   -0.3631   -0.0102    0.2280   -0.3512   -0.0111
          38    0.0695    0.0878   -0.0141    0.1763   -0.0525    0.1816    0.1828    0.0022
          39    0.0904   -0.0580   -0.0053    0.1698   -0.0433    0.1906    0.1759   -0.0003
          40    0.4405    0.0216    0.0031   -0.0383   -0.0153    0.0683    0.4280    0.0091
          41   -0.1825   -0.0490   -0.0032    0.0361   -0.0580    0.3368   -0.1943   -0.0036
          42   -0.1724   -0.1505    0.0037    0.0178    0.0277   -0.1087   -0.1995   -0.0060
          43   -0.0565   -0.0589   -0.0161    0.4052   -0.0000   -0.1012   -0.3865   -0.0121
          44    0.0471   -0.0781    0.0136   -0.1904   -0.0024    0.0988    0.1893    0.0052
          45    0.0356   -0.0216    0.0109   -0.1939    0.0666   -0.3224    0.1616   -0.0040
          46   -0.3643   -0.1054    0.0174   -0.3608    0.0679   -0.1827    0.2801    0.0013
          47    0.1844   -0.0923   -0.0052    0.1648    0.0282   -0.2351   -0.1463   -0.0076
          48    0.1330    0.1165   -0.0095    0.1528    0.0170   -0.1995   -0.1357   -0.0105
          49    0.4470    0.0876   -0.0038   -0.0719    0.0109   -0.0947   -0.2284   -0.0140
          50   -0.2170   -0.0471    0.0007    0.0319    0.0484   -0.2828    0.0952    0.0007
          51   -0.2118   -0.0261   -0.0114    0.0383   -0.0341    0.0911    0.1170   -0.0111
          52    0.0152    0.2344    0.0012   -0.1398    0.0129   -0.0448   -0.0459    0.0009
          53   -0.1173    0.3975   -0.0109    0.0574   -0.0261    0.0517    0.0234    0.0033
          54   -0.0454    0.0572   -0.0023    0.0563    0.0277   -0.1639    0.0144    0.0023
          55    0.0562    0.0162   -0.0044    0.0956    0.0177   -0.1110    0.0575    0.0019
          56   -0.0730    0.2054   -0.0117   -0.0597    0.0116   -0.1431   -0.0258   -0.0099
          57    0.0009   -0.2219    0.0207   -0.0437    0.0404   -0.0627   -0.0405    0.0119
          58    0.0584   -0.1288    0.0165   -0.1150    0.0102    0.0545    0.0665    0.0079
          59    0.0300   -0.2642    0.0153    0.0621    0.0284   -0.0604   -0.0437    0.0089
          60    0.0007   -0.0136   -0.0008    0.0575   -0.0333    0.1767   -0.0234    0.0029
          61    0.0965    0.0282   -0.0068    0.1106   -0.0272    0.0938   -0.0396   -0.0009
          62    0.0257   -0.3155    0.0028   -0.0432   -0.0046    0.1221    0.0240   -0.0059
          63   -0.1203    0.3352   -0.0020   -0.0515   -0.0324    0.0920    0.0237    0.0071
          64   -0.1181   -0.2130    0.0076    0.0157    0.0237   -0.0396   -0.0884    0.0044
          65    0.0971   -0.0600    0.0040   -0.0082    0.0364   -0.1776    0.0405    0.0034
          66    0.1482   -0.3142    0.0134    0.0098    0.0031    0.0721    0.0361    0.0136
          67   -0.0071    0.0130   -0.0026   -0.0007   -0.0223   -0.0138   -0.0001   -0.0017
          68   -0.0046    0.0171   -0.0196    0.0066    0.0078   -0.0113   -0.0026   -0.0190
          69    0.0000    0.0129    0.0103   -0.0071   -0.0367   -0.0073    0.0003    0.0048
          70   -0.1221    0.1307   -0.0062    0.0192   -0.0352    0.0617    0.0143    0.0054
          71    0.0633    0.0672    0.0007   -0.0002   -0.0504    0.2290   -0.0054    0.0028
          72    0.0164    0.2831   -0.0252   -0.0076   -0.0112   -0.1086   -0.0221    0.0002
          73    0.0037    0.0033   -0.0093    0.0029    0.0347    0.0083    0.0003   -0.0013
          74   -0.0041   -0.0199    0.0017    0.0023    0.0279    0.0035    0.0028    0.0097
          75    0.0022   -0.0116   -0.0026    0.0018   -0.0112   -0.0073   -0.0059   -0.0048


   Root No.      49        50        51        52        53        54        55        56

                49 A      50 A      51 A      52 A      53 A      54 A      55 A      56 A   

                   5.5       6.0       6.9       7.3       8.0       8.2       8.3       9.0
  
           1   -0.0023    0.0011    0.0019    0.0436   -0.0035   -0.0275    0.5691    0.0568
           2    0.0122   -0.0034   -0.0236    0.4441   -0.0018    0.0002   -0.0568   -0.0278
           3   -0.0066   -0.0006   -0.0112   -0.0233    0.0011    0.0005    0.0030   -0.0119
           4    0.0117   -0.0024   -0.0016   -0.0655    0.0037    0.0266   -0.5220   -0.0425
           5   -0.0019    0.0003    0.0041   -0.0810    0.0003    0.0006    0.0071    0.0037
           6    0.0008    0.0001    0.0014    0.0052   -0.0001   -0.0001   -0.0001    0.0011
           7    0.0086   -0.0002    0.0127   -0.0810   -0.0007    0.0014   -0.0190    0.0250
           8    0.0040    0.0006    0.0228   -0.2209   -0.0016   -0.0002    0.0408    0.0471
           9   -0.0092   -0.0011   -0.0228   -0.0130    0.0021    0.0008   -0.0012   -0.0119
          10    0.0091   -0.0010   -0.0030   -0.1798    0.0031    0.0024    0.0226    0.0167
          11    0.0026   -0.0017   -0.0049    0.1306   -0.0005    0.0027   -0.0497   -0.0049
          12    0.0021    0.0001    0.0049   -0.0080   -0.0004   -0.0001   -0.0001    0.0025
          13   -0.0043   -0.0002   -0.0042    0.1948   -0.0016   -0.0005   -0.0312   -0.0122
          14   -0.0052    0.0009    0.0026   -0.2288    0.0024   -0.0021    0.0925    0.0127
          15    0.0017    0.0003    0.0061    0.0088   -0.0006   -0.0006    0.0009    0.0011
          16   -0.0110    0.0026    0.0145   -0.3006    0.0030    0.0147   -0.2936   -0.0320
          17    0.0001   -0.0001    0.0026   -0.0521    0.0007    0.0038   -0.0664   -0.0001
          18   -0.0006    0.0002   -0.0020    0.0038    0.0003   -0.0001    0.0034   -0.0021
          19   -0.0134    0.0029    0.0031   -0.2675    0.0012   -0.0135    0.2776   -0.0003
          20    0.0126   -0.0022   -0.0084    0.0392    0.0019    0.0090   -0.1620   -0.0151
          21    0.0113    0.0023    0.0400    0.0017   -0.0049   -0.0025    0.0176    0.0498
          22   -0.0065   -0.0022   -0.0747   -0.0003    0.0167   -0.0010    0.0050   -0.0831
          23   -0.0046   -0.0028   -0.0541    0.0009    0.0093    0.0016    0.0027   -0.0477
          24    0.0907    0.0135    0.5567    0.0485   -0.1042    0.0193   -0.0397    0.3367
          25   -0.0176    0.0022   -0.0122    0.3637   -0.0020    0.0062   -0.2786   -0.0652
          26   -0.0176    0.0029   -0.0032   -0.0164   -0.0005   -0.0068    0.0637   -0.0265
          27   -0.0167    0.0019   -0.0145    0.0182    0.0008   -0.0026   -0.0127   -0.0438
          28    0.0038   -0.0008   -0.0061    0.1851   -0.0025   -0.0122    0.2731    0.0473
          29    0.0060   -0.0013   -0.0136    0.3412   -0.0030   -0.0108    0.1497   -0.0179
          30    0.0006    0.0010    0.0055   -0.0249    0.0002   -0.0001   -0.0076    0.0092
          31    0.0052   -0.0012   -0.0060    0.1045   -0.0006   -0.0010    0.0037   -0.0111
          32   -0.0121    0.0026    0.0205   -0.3563    0.0016    0.0048   -0.0187    0.0328
          33    0.0007    0.0000   -0.0016    0.0255   -0.0001   -0.0004    0.0008   -0.0020
          34   -0.0977   -0.0468    0.0289    0.0035    0.0586    0.1845    0.0100   -0.0169
          35    0.0535   -0.2267    0.0315    0.0029    0.2050    0.2832    0.0154   -0.0076
          36   -0.2732    0.1311    0.0354    0.0043   -0.0997    0.1100    0.0052   -0.0209
          37   -0.1282   -0.0918    0.0406    0.0043    0.1122    0.0725    0.0036   -0.0042
          38   -0.0822   -0.1982    0.0424    0.0036    0.2637   -0.1616   -0.0096    0.0340
          39   -0.1934    0.0010    0.0450    0.0059   -0.0202    0.3441    0.0187   -0.0450
          40   -0.0441   -0.0832    0.0374    0.0039    0.2178   -0.0600   -0.0040    0.0248
          41   -0.0264   -0.2454    0.0165   -0.0002    0.0857   -0.2207   -0.0118    0.0234
          42   -0.0870    0.0952    0.0676    0.0091    0.3736    0.1027    0.0030    0.0341
          43   -0.1095   -0.0153    0.0267    0.0012   -0.0193   -0.2085   -0.0121    0.0146
          44   -0.0023   -0.1670   -0.0173   -0.0045   -0.2150   -0.2858   -0.0146   -0.0060
          45   -0.2105    0.1332    0.0715    0.0073    0.1890   -0.1574   -0.0109    0.0337
          46   -0.1514   -0.0964    0.0154    0.0008   -0.0742   -0.0461   -0.0018   -0.0204
          47   -0.1431   -0.2471   -0.0016   -0.0004   -0.2321    0.1847    0.0090   -0.0138
          48   -0.1960    0.0432    0.0497    0.0033    0.0770   -0.2829   -0.0156    0.0077
          49   -0.1787   -0.0870   -0.0038   -0.0021   -0.1926    0.0241    0.0012   -0.0007
          50   -0.0490   -0.2621   -0.0063   -0.0013   -0.0635    0.0891    0.0048    0.0015
          51   -0.2905    0.1008   -0.0366   -0.0038   -0.3183   -0.0513   -0.0031   -0.0031
          52    0.1005    0.1882   -0.0329   -0.0029   -0.0868   -0.1396   -0.0074    0.0042
          53    0.1446    0.3523   -0.0478   -0.0044   -0.1322   -0.2420   -0.0131    0.0103
          54    0.0669    0.0410   -0.0213   -0.0022   -0.0508   -0.0514   -0.0025    0.0018
          55    0.0283    0.0151   -0.0035   -0.0001    0.0027    0.0123    0.0007   -0.0014
          56   -0.1704    0.2645    0.0026    0.0019   -0.1257    0.2341    0.0123   -0.0276
          57    0.2473   -0.2475   -0.0101   -0.0025    0.1396   -0.2266   -0.0119    0.0305
          58    0.1585    0.1661   -0.0085    0.0006    0.0829    0.1558    0.0083   -0.0011
          59    0.2443    0.3252   -0.0095    0.0023    0.1453    0.2970    0.0153   -0.0009
          60    0.0843    0.0228   -0.0072   -0.0005    0.0297    0.0261    0.0015    0.0015
          61    0.0229    0.0084   -0.0071   -0.0013   -0.0189    0.0061    0.0005    0.0014
          62   -0.1064    0.2867    0.0247    0.0025    0.1057   -0.1806   -0.0097    0.0072
          63    0.1693   -0.2873   -0.0439   -0.0050   -0.1541    0.2065    0.0114   -0.0061
          64    0.1903    0.0205   -0.0579   -0.0063   -0.2032   -0.0122    0.0006   -0.0153
          65    0.0771    0.0512   -0.0217   -0.0021   -0.0751   -0.0198   -0.0008   -0.0023
          66    0.3477   -0.0147   -0.1044   -0.0114   -0.3649   -0.0102    0.0017   -0.0279
          67    0.0310   -0.0039    0.0791   -0.0027   -0.0008   -0.0040    0.0086   -0.0703
          68    0.0857    0.0015    0.4407   -0.0155   -0.0206   -0.0426    0.0521   -0.5275
          69    0.0061   -0.0037   -0.0357    0.0026    0.0012    0.0088   -0.0072    0.0856
          70    0.1705    0.0212   -0.0386   -0.0024    0.0987    0.0098    0.0009    0.0088
          71    0.0520    0.0690   -0.0162    0.0002    0.0307    0.0242    0.0010    0.0011
          72    0.3199   -0.0250   -0.0448   -0.0078    0.1798   -0.0057    0.0007    0.0421
          73    0.0244    0.0041   -0.0001    0.0065    0.0062    0.0097   -0.0158    0.1770
          74   -0.0734    0.0002   -0.3828    0.0144    0.0191    0.0380   -0.0531    0.5517
          75   -0.0656   -0.0078   -0.5273   -0.0418    0.1238   -0.0266    0.0446   -0.4626


   Root No.      57        58        59        60        61        62        63        64

                57 A      58 A      59 A      60 A      61 A      62 A      63 A      64 A   

                   9.6      11.1      12.9      12.9      14.6      15.3      16.2      16.6
  
           1   -0.1481    0.0024   -0.2593   -0.2637    0.0035    0.3086    0.0012   -0.0016
           2    0.0399   -0.0018    0.1865    0.1903   -0.0028   -0.2606   -0.0013    0.0016
           3   -0.0007   -0.0011   -0.0135   -0.0154    0.0001    0.0138    0.0005   -0.0008
           4    0.0687   -0.0010    0.0697    0.0705   -0.0012   -0.0634   -0.0004    0.0003
           5   -0.0461   -0.0000    0.0077    0.0090   -0.0006    0.0064   -0.0004   -0.0001
           6    0.0031    0.0001   -0.0002   -0.0004    0.0000    0.0005   -0.0000   -0.0001
           7    0.0321    0.0032   -0.0198   -0.0162    0.0031    0.0543   -0.0012    0.0061
           8    0.0214    0.0047    0.0128    0.0207    0.0042    0.0897   -0.0021    0.0081
           9    0.0037   -0.0011    0.0008   -0.0010   -0.0001    0.0054    0.0001   -0.0002
          10    0.0418   -0.0006   -0.2673   -0.2776   -0.0022   -0.3603    0.0001   -0.0019
          11    0.0093   -0.0004   -0.0256   -0.0256   -0.0004    0.0030   -0.0001   -0.0007
          12    0.0034    0.0000   -0.0199   -0.0206    0.0000   -0.0255   -0.0001    0.0001
          13   -0.0199    0.0003    0.1136    0.1168    0.0010    0.1766    0.0000   -0.0000
          14   -0.0046   -0.0009   -0.1506   -0.1564   -0.0029   -0.3965   -0.0005   -0.0004
          15   -0.0010    0.0002    0.0048    0.0044    0.0001    0.0028   -0.0001    0.0003
          16   -0.3651    0.0002   -0.0271   -0.0278   -0.0002    0.0272   -0.0002   -0.0001
          17    0.0100    0.0002    0.0072    0.0082   -0.0002   -0.0026   -0.0003    0.0001
          18   -0.0013   -0.0001    0.0004   -0.0012   -0.0002   -0.0000    0.0000   -0.0003
          19   -0.1623   -0.0023    0.4841    0.4937   -0.0056   -0.0304   -0.0013   -0.0025
          20    0.0740   -0.0014   -0.0334   -0.0348    0.0009    0.6806    0.0027   -0.0094
          21   -0.0232    0.0048    0.0379    0.0428    0.0008   -0.0040   -0.0014    0.0031
          22    0.0050   -0.0036    0.0002   -0.0050   -0.0038   -0.0004   -0.0006   -0.0035
          23    0.0032   -0.0037    0.0004   -0.0036   -0.0027    0.0005   -0.0002   -0.0030
          24   -0.0159    0.0013   -0.0007    0.0056    0.0072   -0.0083    0.0027    0.0029
          25    0.1080   -0.0009   -0.1647   -0.1696    0.0051   -0.0074    0.0035    0.0003
          26   -0.0203   -0.0010    0.0031    0.0029    0.0027   -0.0120    0.0023   -0.0000
          27    0.0094   -0.0023   -0.0069   -0.0105    0.0026    0.0013    0.0028   -0.0009
          28    0.6407   -0.0003    0.0826    0.0848   -0.0009   -0.0975   -0.0005    0.0007
          29   -0.4493   -0.0001   -0.0031   -0.0031   -0.0014   -0.1585   -0.0008    0.0009
          30    0.0316    0.0013    0.0003    0.0003    0.0005    0.0124   -0.0001    0.0004
          31   -0.1955   -0.0000   -0.0114   -0.0115   -0.0004   -0.0062   -0.0002   -0.0000
          32    0.3654    0.0003   -0.0086   -0.0075    0.0001    0.0495   -0.0001   -0.0002
          33   -0.0256   -0.0000    0.0015    0.0010   -0.0001   -0.0034   -0.0000   -0.0000
          34    0.0004    0.1914    0.0935   -0.0899    0.1804   -0.0016   -0.0156   -0.2269
          35   -0.0012    0.3591   -0.0732    0.0768    0.3457   -0.0047    0.2258   -0.2395
          36    0.0013    0.0380    0.2682   -0.2639    0.0306    0.0009   -0.2648   -0.2407
          37    0.0002    0.0035   -0.1483    0.1437   -0.0099    0.0004   -0.1886    0.0999
          38   -0.0013   -0.2498   -0.1842    0.1808    0.2622   -0.0020   -0.3736   -0.1498
          39    0.0015    0.2715   -0.1574    0.1507   -0.2970    0.0026   -0.0233    0.3740
          40   -0.0009   -0.1567    0.0737   -0.0727   -0.1721    0.0014    0.2386    0.0985
          41   -0.0006   -0.0429    0.2519   -0.2464   -0.0674    0.0029    0.1293    0.3768
          42   -0.0016   -0.2902   -0.0928    0.0894   -0.3126   -0.0001    0.3888   -0.1858
          43    0.0006    0.1916    0.0590   -0.0585   -0.1935   -0.0010   -0.0177   -0.2301
          44    0.0016    0.3101   -0.1176    0.1135   -0.3406   -0.0015    0.2479   -0.3233
          45   -0.0002    0.0898    0.2548   -0.2494   -0.0627   -0.0002   -0.2971   -0.1580
          46    0.0010   -0.0281   -0.1416    0.1359   -0.0181    0.0016   -0.1587    0.1431
          47    0.0006   -0.3087   -0.1353    0.1273   -0.2820    0.0024   -0.3192   -0.0646
          48    0.0008    0.2622   -0.2000    0.1960    0.2598   -0.0003   -0.0171    0.3815
          49   -0.0003   -0.1683    0.0805   -0.0766    0.2087   -0.0009    0.2177    0.0684
          50   -0.0005   -0.0405    0.2951   -0.2872    0.0775    0.0020    0.1074    0.2731
          51   -0.0001   -0.3032   -0.1018    0.1027    0.3573   -0.0040    0.3477   -0.1374
          52    0.0004   -0.0894   -0.0120    0.0108   -0.0552    0.0008   -0.0052    0.0372
          53    0.0005   -0.1506   -0.0268    0.0248   -0.0968    0.0008   -0.0293    0.0516
          54   -0.0000   -0.0375    0.0109   -0.0109   -0.0198    0.0002    0.0184    0.0270
          55    0.0001    0.0041   -0.0075    0.0071   -0.0000    0.0001    0.0138   -0.0072
          56    0.0009    0.1181    0.0005   -0.0012   -0.0849    0.0004    0.0482    0.0398
          57   -0.0013   -0.1181   -0.0107    0.0114    0.0893   -0.0008   -0.0219   -0.0585
          58   -0.0007   -0.0799    0.0102   -0.0094    0.0595    0.0000   -0.0090    0.0404
          59   -0.0010   -0.1501    0.0136   -0.0125    0.1086    0.0003   -0.0391    0.0661
          60   -0.0003   -0.0153    0.0114   -0.0108    0.0160    0.0002    0.0208    0.0195
          61   -0.0004   -0.0094   -0.0092    0.0094   -0.0026   -0.0003    0.0106   -0.0128
          62    0.0004    0.1083   -0.0347    0.0347    0.0721   -0.0005    0.0355    0.0289
          63   -0.0007   -0.1362    0.0213   -0.0211   -0.0833    0.0005   -0.0143   -0.0593
          64    0.0006    0.0731    0.0007   -0.0005    0.0547   -0.0002   -0.0477   -0.0039
          65    0.0001    0.0268    0.0085   -0.0082    0.0205   -0.0003   -0.0197   -0.0254
          66    0.0008    0.1284   -0.0029    0.0035    0.1000   -0.0002   -0.0840    0.0175
          67    0.0032   -0.0034   -0.0004   -0.0004   -0.0029   -0.0010   -0.0015   -0.0007
          68    0.0228   -0.0262   -0.0005   -0.0100    0.0075    0.0027    0.0093   -0.0041
          69   -0.0036    0.0033    0.0002    0.0016   -0.0040   -0.0019   -0.0034    0.0003
          70   -0.0009    0.0565    0.0010   -0.0004   -0.0382   -0.0003   -0.0261   -0.0075
          71    0.0000    0.0175    0.0065   -0.0066   -0.0119   -0.0003   -0.0100   -0.0353
          72   -0.0037    0.1037   -0.0054    0.0094   -0.0686   -0.0000   -0.0457    0.0220
          73   -0.0090    0.0174   -0.0004    0.0072   -0.0091   -0.0001   -0.0111    0.0039
          74   -0.0253    0.0330   -0.0001    0.0139   -0.0074   -0.0017   -0.0118    0.0088
          75    0.0234    0.0004   -0.0004   -0.0138   -0.0159    0.0080   -0.0086   -0.0066


   Root No.      65        66        67        68        69

                65 A      66 A      67 A      68 A      69 A   

                  19.4      20.0      20.4      20.5      24.5
  
           1    0.0286    0.0070    0.0138    0.0832    0.3323
           2    0.0673    0.0102    0.0204    0.1236    0.6180
           3   -0.0059   -0.0011   -0.0012   -0.0069   -0.0438
           4   -0.0031   -0.0008   -0.0018   -0.0103   -0.0390
           5   -0.0033    0.0000   -0.0004   -0.0026   -0.0009
           6   -0.0005   -0.0001   -0.0001   -0.0007   -0.0001
           7   -0.5199    0.0811    0.1007    0.5733   -0.0640
           8    0.5793    0.0409    0.0821    0.4873   -0.1869
           9   -0.0209    0.0062    0.0089    0.0519   -0.0081
[...]
 EFFECTIVE MASS      3.6864
 FORCE CONSTANT      0.6007

 VIBRATION         36   36A           ATOM PAIR      ENERGY CONTRIBUTION    RADIAL
 FREQUENCY          1044.82         C 14 -- H 22         +38.6% ( 66.9%)      0.0%
 TRANSITION DIPOLE   0.1976         C 15 -- H 20         +15.5% ( 42.4%)      0.0%
 TRAVEL (Ang.)       0.2633         C 14 -- C 15         +12.3% ( 37.7%)      0.0%
 REDUCED MASS        0.9311         C 13 -- H 19         +12.0% ( 37.2%)      0.0%
 EFFECTIVE MASS      4.6486         C 13 -- C 14         +11.7% ( 36.8%)      0.0%
 FORCE CONSTANT      0.5989

 VIBRATION         37   37A           ATOM PAIR      ENERGY CONTRIBUTION    RADIAL
 FREQUENCY          1138.01         C 16 -- H 21         +12.5% ( 46.8%)      9.5%
 TRANSITION DIPOLE   0.8409         C 13 -- H 19         +12.4% ( 46.5%)      8.1%
 TRAVEL (Ang.)       0.4924         C 12 -- H 18         +12.0% ( 45.8%)     11.4%
 REDUCED MASS        0.2444         C 12 -- N 17          +9.5% ( 40.7%)     68.4%
 EFFECTIVE MASS      4.9241
 FORCE CONSTANT      0.1865

 VIBRATION         38   38A           ATOM PAIR      ENERGY CONTRIBUTION    RADIAL
 FREQUENCY          1150.37         H 23 -- O 25         +17.5% ( 47.3%)      5.1%
 TRANSITION DIPOLE   0.6576         C 13 -- H 19         +15.8% ( 45.1%)      5.0%
 TRAVEL (Ang.)       0.5266         C 15 -- H 20         +10.1% ( 35.9%)     10.6%
 REDUCED MASS        0.2114         C 16 -- H 21          +9.9% ( 35.6%)      5.0%
 EFFECTIVE MASS      3.7351
 FORCE CONSTANT      0.1648

 VIBRATION         39   39A           ATOM PAIR      ENERGY CONTRIBUTION    RADIAL
 FREQUENCY          1152.18         H 23 -- O 25         +21.6% ( 51.8%)      5.0%
 TRANSITION DIPOLE   0.7946         C 15 -- H 20         +18.6% ( 48.1%)      2.1%
 TRAVEL (Ang.)       0.4870         C 12 -- H 18         +11.2% ( 37.3%)      2.1%
 REDUCED MASS        0.2468         C 13 -- C 14          +7.4% ( 30.4%)     98.7%
 EFFECTIVE MASS      3.5049
 FORCE CONSTANT      0.1930

 VIBRATION         40   40A           ATOM PAIR      ENERGY CONTRIBUTION    RADIAL
 FREQUENCY          1185.94         C 14 -- H 22         +39.2% ( 79.6%)      0.0%
 TRANSITION DIPOLE   0.2878         C 13 -- H 19          +8.9% ( 38.0%)      0.6%
 TRAVEL (Ang.)       0.3528         C 15 -- C 16          +8.3% ( 36.6%)     99.7%
 REDUCED MASS        0.4567         C 12 -- C 13          +7.7% ( 35.2%)    100.0%
 EFFECTIVE MASS      3.4464
 FORCE CONSTANT      0.3785

 VIBRATION         41   41A           ATOM PAIR      ENERGY CONTRIBUTION    RADIAL
 FREQUENCY          1196.69         C  1 -- C  7         +20.1% ( 62.1%)     29.6%
 TRANSITION DIPOLE   2.6569         O  4 -- O  5         +18.9% ( 60.3%)     96.8%
 TRAVEL (Ang.)       0.1509         N  3 -- O  4         +13.3% ( 50.5%)     98.7%
 REDUCED MASS        2.4752         C  7 -- H  9         +12.3% ( 48.5%)     91.7%
 EFFECTIVE MASS     12.1407         N  3 -- C  7         +10.9% ( 45.8%)     38.9%
 FORCE CONSTANT      2.0884

 VIBRATION         42   42A           ATOM PAIR      ENERGY CONTRIBUTION    RADIAL
 FREQUENCY          1214.87         C 14 -- C 15         +12.2% ( 53.3%)    100.0%
 TRANSITION DIPOLE   0.2347         C 13 -- C 14         +11.7% ( 52.2%)    100.0%
 TRAVEL (Ang.)       0.2016         C 15 -- C 16         +11.6% ( 51.9%)    100.0%
 REDUCED MASS        1.3661         C 12 -- C 13         +11.5% ( 51.7%)    100.0%
 EFFECTIVE MASS     11.7674         C 16 -- N 17         +11.4% ( 51.6%)     98.8%
 FORCE CONSTANT      1.1879         C 12 -- N 17         +11.1% ( 50.8%)     98.0%

 VIBRATION         43   43A           ATOM PAIR      ENERGY CONTRIBUTION    RADIAL
 FREQUENCY          1246.23         C 16 -- H 21         +26.8% ( 56.4%)      8.9%
 TRANSITION DIPOLE   0.2774         C 12 -- H 18         +25.2% ( 54.6%)     13.1%
 TRAVEL (Ang.)       0.4442         C 15 -- H 20         +11.3% ( 36.5%)      3.2%
 REDUCED MASS        0.2743         C 13 -- H 19         +10.4% ( 35.1%)      5.5%
 EFFECTIVE MASS      2.8741
 FORCE CONSTANT      0.2510

 VIBRATION         44   44A           ATOM PAIR      ENERGY CONTRIBUTION    RADIAL
 FREQUENCY          1293.58         C  7 -- H  9         +23.3% ( 55.0%)      4.5%
 TRANSITION DIPOLE   1.0719         C 12 -- H 18         +10.1% ( 36.2%)      1.0%
 TRAVEL (Ang.)       0.4702         C  1 -- C  7          +7.4% ( 31.0%)     64.7%
 REDUCED MASS        0.2357         C 15 -- H 20          +6.9% ( 30.0%)      2.4%
 EFFECTIVE MASS      3.5310
 FORCE CONSTANT      0.2324

 VIBRATION         45   45A           ATOM PAIR      ENERGY CONTRIBUTION    RADIAL
 FREQUENCY          1306.49         C  7 -- H  9         +16.8% ( 47.6%)      5.4%
 TRANSITION DIPOLE   1.2960         C 16 -- H 21         +11.1% ( 38.7%)      0.5%
 TRAVEL (Ang.)       0.4796         C 12 -- H 18          +8.7% ( 34.3%)      0.2%
 REDUCED MASS        0.2244         C  1 -- H  2          +8.4% ( 33.6%)     29.0%
 EFFECTIVE MASS      3.6458
 FORCE CONSTANT      0.2256

 VIBRATION         46   46A           ATOM PAIR      ENERGY CONTRIBUTION    RADIAL
 FREQUENCY          1335.62         C  1 -- H  2         +65.5% ( 83.6%)      1.1%
 TRANSITION DIPOLE   0.5219         C  7 -- H  9         +10.7% ( 33.8%)      5.5%
 TRAVEL (Ang.)       0.3012         H  6 -- C 10          +6.3% ( 26.0%)     26.9%
 REDUCED MASS        0.5565         C  1 -- C 10          +5.7% ( 24.7%)      0.7%
 EFFECTIVE MASS      2.1735
 FORCE CONSTANT      0.5849

 VIBRATION         47   47A           ATOM PAIR      ENERGY CONTRIBUTION    RADIAL
 FREQUENCY          1354.66         H  6 -- C 10         +26.4% ( 53.9%)      0.0%
 TRANSITION DIPOLE   0.1345         C 10 -- H 11         +20.0% ( 46.9%)      0.4%
 TRAVEL (Ang.)       0.3159         C  1 -- C  7         +13.0% ( 37.8%)     86.1%
 REDUCED MASS        0.4988         C  7 -- H  9         +10.5% ( 34.0%)      4.6%
 EFFECTIVE MASS      4.0578
 FORCE CONSTANT      0.5393

 VIBRATION         48   48A           ATOM PAIR      ENERGY CONTRIBUTION    RADIAL
 FREQUENCY          1372.96         C 15 -- C 16         +12.1% ( 50.6%)     97.7%
 TRANSITION DIPOLE   0.8313         C 12 -- C 13         +11.9% ( 50.1%)     98.6%
 TRAVEL (Ang.)       0.2045         C 14 -- C 15         +10.0% ( 45.9%)     92.4%
 REDUCED MASS        1.1749         C 13 -- C 14          +9.9% ( 45.8%)     91.4%
 EFFECTIVE MASS      7.8747
 FORCE CONSTANT      1.3049

 VIBRATION         49   49A           ATOM PAIR      ENERGY CONTRIBUTION    RADIAL
 FREQUENCY          1413.91         C  1 -- C  7         +19.6% ( 60.1%)     99.3%
 TRANSITION DIPOLE   1.8351         N  3 -- O  5         +15.5% ( 53.4%)     91.4%
 TRAVEL (Ang.)       0.1757         C  7 -- H  9         +11.7% ( 46.4%)      7.3%
 REDUCED MASS        1.5443         N  3 -- C  7         +10.9% ( 44.8%)      0.6%
 EFFECTIVE MASS     10.0946         C 10 -- H 11         +10.2% ( 43.4%)      0.9%
 FORCE CONSTANT      1.8190

 VIBRATION         50   50A           ATOM PAIR      ENERGY CONTRIBUTION    RADIAL
 FREQUENCY          1436.85         N 17 -- H 24         +23.9% ( 59.3%)     11.4%
 TRANSITION DIPOLE   0.9098         C 14 -- H 22         +11.6% ( 41.3%)      0.0%
 TRAVEL (Ang.)       0.3018         C 12 -- N 17          +9.5% ( 37.4%)     82.6%
 REDUCED MASS        0.5153         C 16 -- N 17          +9.2% ( 36.8%)     66.6%
 EFFECTIVE MASS      5.6637
 FORCE CONSTANT      0.6269

 VIBRATION         51   51A           ATOM PAIR      ENERGY CONTRIBUTION    RADIAL
 FREQUENCY          1517.27         C 13 -- C 14         +11.7% ( 46.8%)     75.8%
 TRANSITION DIPOLE   1.5656         C 14 -- C 15         +11.1% ( 45.5%)     71.3%
 TRAVEL (Ang.)       0.1979         C 15 -- C 16          +9.5% ( 42.2%)      0.0%
 REDUCED MASS        1.1343         C 16 -- N 17          +9.3% ( 41.7%)     76.2%
 EFFECTIVE MASS      9.7835
 FORCE CONSTANT      1.5386

 VIBRATION         52   52A           ATOM PAIR      ENERGY CONTRIBUTION    RADIAL
 FREQUENCY          1520.83         N  3 -- O  4         +31.1% ( 77.0%)     89.1%
 TRANSITION DIPOLE   6.2149         N  3 -- O  5         +27.3% ( 72.2%)     82.7%
 TRAVEL (Ang.)       0.0997         N  3 -- C  7         +20.4% ( 62.4%)      0.7%
 REDUCED MASS        4.4647         C  7 -- H  9          +5.7% ( 32.9%)      3.8%
 EFFECTIVE MASS     12.5840
 FORCE CONSTANT      6.0842

 VIBRATION         53   53A           ATOM PAIR      ENERGY CONTRIBUTION    RADIAL
 FREQUENCY          1600.29         N 17 -- H 24         +24.5% ( 61.1%)      2.1%
 TRANSITION DIPOLE   0.5107         C 14 -- C 15         +11.1% ( 41.1%)     49.7%
 TRAVEL (Ang.)       0.2148         C 13 -- C 14         +11.0% ( 40.8%)     47.4%
 REDUCED MASS        0.9132         C 12 -- C 13          +9.6% ( 38.3%)     87.6%
 EFFECTIVE MASS      6.7419
 FORCE CONSTANT      1.3780

 VIBRATION         54   54A           ATOM PAIR      ENERGY CONTRIBUTION    RADIAL
 FREQUENCY          1606.16         N  3 -- C  7         +38.9% ( 94.8%)     99.9%
 TRANSITION DIPOLE  13.0086         N  3 -- O  4         +16.6% ( 62.0%)     50.7%
 TRAVEL (Ang.)       0.0865         N  3 -- O  5         +15.0% ( 58.9%)     27.2%
 REDUCED MASS        5.6109         C  1 -- C  7         +13.7% ( 56.3%)     47.6%
 EFFECTIVE MASS     12.8938         C  7 -- H  9         +12.6% ( 54.0%)      8.1%
 FORCE CONSTANT      8.5282

 VIBRATION         55   55A           ATOM PAIR      ENERGY CONTRIBUTION    RADIAL
 FREQUENCY          1667.30         C 13 -- C 14         +17.4% ( 58.3%)     99.3%
 TRANSITION DIPOLE   2.2234         C 16 -- N 17         +16.2% ( 56.1%)     99.9%
 TRAVEL (Ang.)       0.1317         C 12 -- C 13         +12.3% ( 48.9%)     63.2%
 REDUCED MASS        2.3317         N 17 -- H 24          +9.8% ( 43.7%)      4.7%
 EFFECTIVE MASS     11.7541
 FORCE CONSTANT      3.8190

 VIBRATION         56   56A           ATOM PAIR      ENERGY CONTRIBUTION    RADIAL
 FREQUENCY          1673.51         C 15 -- C 16         +18.0% ( 59.4%)     90.0%
 TRANSITION DIPOLE   1.4725         C 14 -- C 15         +14.8% ( 53.9%)     86.5%
 TRAVEL (Ang.)       0.1320         C 12 -- N 17         +13.4% ( 51.2%)     91.4%
 REDUCED MASS        2.3125         C 12 -- C 13         +11.9% ( 48.2%)     84.8%
 EFFECTIVE MASS     11.7740
 FORCE CONSTANT      3.8158

 VIBRATION         57   57A           ATOM PAIR      ENERGY CONTRIBUTION    RADIAL
 FREQUENCY          1819.95         C  1 -- C 10         +45.0% ( 98.3%)     99.3%
 TRANSITION DIPOLE   2.4329         C  1 -- C  7         +16.7% ( 59.9%)     51.5%
 TRAVEL (Ang.)       0.0818         C  1 -- H  2         +15.8% ( 58.3%)      7.7%
 REDUCED MASS        5.5337         H  6 -- C 10         +10.5% ( 47.4%)     18.3%
 EFFECTIVE MASS     11.8750         C 10 -- H 11         +10.4% ( 47.2%)     21.1%
 FORCE CONSTANT     10.7990

 VIBRATION         58   58A           ATOM PAIR      ENERGY CONTRIBUTION    RADIAL
 FREQUENCY          1909.89         H  8 -- O 25         +94.0% ( 97.1%)     99.3%
 TRANSITION DIPOLE   2.3453         H 23 -- O 25          +1.3% ( 11.5%)     21.1%
 TRAVEL (Ang.)       0.1468         N 17 -- H 24          +0.8% (  9.0%)     63.0%
 REDUCED MASS        1.6385         N  3 -- C  7          +0.8% (  8.8%)     95.4%
 EFFECTIVE MASS      2.9901
 FORCE CONSTANT      3.5214

 VIBRATION         59   59A           ATOM PAIR      ENERGY CONTRIBUTION    RADIAL
 FREQUENCY          2312.55         N 17 -- H 24         +89.8% ( 97.0%)     98.8%
 TRANSITION DIPOLE   3.8681         H 23 -- O 25          +6.2% ( 25.5%)     96.6%
 TRAVEL (Ang.)       0.1889         C 16 -- N 17          +1.2% ( 11.1%)     11.3%
 REDUCED MASS        0.8170         C 12 -- N 17          +1.1% ( 10.8%)     16.0%
 EFFECTIVE MASS      1.4539
 FORCE CONSTANT      2.5742

 VIBRATION         60   60A           ATOM PAIR      ENERGY CONTRIBUTION    RADIAL
 FREQUENCY          2658.27         C 12 -- H 18         +91.4% ( 96.7%)    100.0%
 TRANSITION DIPOLE   1.9187         C 16 -- H 21          +5.1% ( 22.9%)     99.9%
 TRAVEL (Ang.)       0.1762         C 12 -- C 13          +1.1% ( 10.7%)     26.1%
 REDUCED MASS        0.8174         C 12 -- N 17          +1.1% ( 10.6%)     11.4%
 EFFECTIVE MASS      1.3934
 FORCE CONSTANT      3.4030

 VIBRATION         61   61A           ATOM PAIR      ENERGY CONTRIBUTION    RADIAL
 FREQUENCY          2674.17         C 16 -- H 21         +89.4% ( 95.7%)    100.0%
 TRANSITION DIPOLE   1.8434         C 12 -- H 18          +4.3% ( 20.9%)    100.0%
 TRAVEL (Ang.)       0.1793         C 15 -- H 20          +1.8% ( 13.6%)     99.6%
 REDUCED MASS        0.7841         C 16 -- N 17          +1.1% ( 10.5%)     14.5%
 EFFECTIVE MASS      1.4013
 FORCE CONSTANT      3.3036

 VIBRATION         62   62A           ATOM PAIR      ENERGY CONTRIBUTION    RADIAL
 FREQUENCY          2707.10         C  1 -- H  2         +31.7% ( 57.9%)     99.9%
 TRANSITION DIPOLE   0.5986         H  6 -- C 10         +31.3% ( 57.5%)     98.6%
 TRAVEL (Ang.)       0.2936         C 10 -- H 11         +29.4% ( 55.7%)     98.6%
 REDUCED MASS        0.2890         C  7 -- H  9          +4.2% ( 21.0%)     99.7%
 EFFECTIVE MASS      1.4079
 FORCE CONSTANT      1.2478

 VIBRATION         63   63A           ATOM PAIR      ENERGY CONTRIBUTION    RADIAL
 FREQUENCY          2707.24         C 13 -- H 19         +50.7% ( 72.1%)    100.0%
 TRANSITION DIPOLE   0.9469         C 14 -- H 22         +44.4% ( 67.5%)    100.0%
 TRAVEL (Ang.)       0.2377         C 15 -- H 20          +1.8% ( 13.5%)     99.2%
 REDUCED MASS        0.4409         C 13 -- C 14          +0.9% (  9.6%)      0.1%
 EFFECTIVE MASS      1.3774
 FORCE CONSTANT      1.9041

 VIBRATION         64   64A           ATOM PAIR      ENERGY CONTRIBUTION    RADIAL
 FREQUENCY          2715.22         C 15 -- H 20         +64.7% ( 81.3%)    100.0%
 TRANSITION DIPOLE   1.7513         C 13 -- H 19         +21.4% ( 46.8%)    100.0%
 TRAVEL (Ang.)       0.2315         C 14 -- H 22         +11.3% ( 34.0%)     99.6%
 REDUCED MASS        0.4634         C 14 -- C 15          +0.7% (  8.6%)      2.9%
 EFFECTIVE MASS      1.3725
 FORCE CONSTANT      2.0130

 VIBRATION         65   65A           ATOM PAIR      ENERGY CONTRIBUTION    RADIAL
 FREQUENCY          2721.63         C  7 -- H  9         +42.6% ( 66.2%)    100.0%
 TRANSITION DIPOLE   0.8056         H 23 -- O 25         +29.7% ( 55.3%)     99.2%
 TRAVEL (Ang.)       0.2954         H  6 -- C 10         +11.0% ( 33.7%)     98.8%
 REDUCED MASS        0.2840         C 10 -- H 11          +8.8% ( 30.1%)     98.0%
 EFFECTIVE MASS      1.3792
 FORCE CONSTANT      1.2394

 VIBRATION         66   66A           ATOM PAIR      ENERGY CONTRIBUTION    RADIAL
 FREQUENCY          2732.43         C 14 -- H 22         +41.2% ( 64.6%)    100.0%
 TRANSITION DIPOLE   1.3805         C 15 -- H 20         +29.3% ( 54.5%)    100.0%
 TRAVEL (Ang.)       0.2855         C 13 -- H 19         +23.0% ( 48.4%)    100.0%
 REDUCED MASS        0.3027         C 16 -- H 21          +1.9% ( 13.9%)     99.5%
 EFFECTIVE MASS      1.4515
 FORCE CONSTANT      1.3316

 VIBRATION         67   67A           ATOM PAIR      ENERGY CONTRIBUTION    RADIAL
 FREQUENCY          2739.25         C  1 -- H  2         +56.7% ( 75.9%)    100.0%
 TRANSITION DIPOLE   1.2480         H 23 -- O 25         +15.2% ( 39.2%)     99.1%
 TRAVEL (Ang.)       0.2615         C 10 -- H 11         +11.7% ( 34.5%)     98.8%
 REDUCED MASS        0.3599         H  6 -- C 10          +8.1% ( 28.7%)     98.2%
 EFFECTIVE MASS      1.4312
 FORCE CONSTANT      1.5910

 VIBRATION         68   68A           ATOM PAIR      ENERGY CONTRIBUTION    RADIAL
 FREQUENCY          2787.67         H  6 -- C 10         +26.9% ( 51.0%)     95.7%
 TRANSITION DIPOLE   1.3353         C 10 -- H 11         +24.0% ( 48.3%)     94.7%
 TRAVEL (Ang.)       0.3294         C  7 -- H  9         +23.9% ( 48.1%)     99.6%
 REDUCED MASS        0.2229         H 23 -- O 25         +21.0% ( 45.1%)     98.9%
 EFFECTIVE MASS      1.3359
 FORCE CONSTANT      1.0206

 VIBRATION         69   69A           ATOM PAIR      ENERGY CONTRIBUTION    RADIAL
 FREQUENCY          2789.36         H 23 -- O 25         +26.0% ( 50.2%)     98.8%
 TRANSITION DIPOLE   0.7004         C 10 -- H 11         +26.0% ( 50.1%)     95.9%
 TRAVEL (Ang.)       0.3275         H  6 -- C 10         +22.6% ( 46.8%)     94.6%
 REDUCED MASS        0.2255         C  7 -- H  9         +21.7% ( 45.9%)     99.0%
 EFFECTIVE MASS      1.3394
 FORCE CONSTANT      1.0335

      SYMMETRY NUMBER FOR POINT-GROUP C1  =  1


          SYSTEM IS A GROUND STATE



 Title: ASE calculation


          MOLECULE IS NOT LINEAR

          THERE ARE 69 GENUINE VIBRATIONS IN THIS SYSTEM
          THIS THERMODYNAMICS CALCULATION IS LIMITED TO
          MOLECULES WHICH HAVE NO INTERNAL ROTATIONS




                    CALCULATED THERMODYNAMIC PROPERTIES
                                          *
   TEMP. (K)   PARTITION FUNCTION   H.O.F.    ENTHALPY  HEAT CAPACITY ENTROPY
                                   KCAL/MOL   CAL/MOLE    CAL/K/MOL  CAL/K/MOL


 298.00  VIB.     0.3035D+06                  7474.4946    46.4967    50.1667
         ROT.     0.3323D+07                   888.2803     2.9808    32.8215
         INT.     0.1008D+13                  8362.7749    49.4775    82.9882
         TRA.     0.2437D+28                  1480.4672     4.9680    41.5528
         TOT.                      -49.175    9843.2421    54.4455   124.5410

   *: NOTE: HEATS OF FORMATION ARE RELATIVE TO THE
            ELEMENTS IN THEIR STANDARD STATE AT 298K
              (=  Standard Enthalpy of Formation).

            Hvib:  Zero-point energy is not included.
                   frequencies of less than zero cm-1 are not included.
            Hrot = (3/2)RT
            Htra = (3/2)RT + pV = (5/2)RT

            Heat capacity is Cp, not Cv

          For more information, see: HTTP://OpenMOPAC.net/Manual/thermochemistry.html


           FORCE CONSTANT IN CARTESIAN COORDINATES (Millidynes/A)

    ATOM   CHEMICAL       X               Y               Z
   NUMBER   SYMBOL  FORCE CONSTANT  FORCE CONSTANT  FORCE CONSTANT

      1       C        9.327105       13.621046        2.038904
      2       H        4.173570        0.955679        0.395073
      3       N       12.973781       13.351552        2.413052
      4       O       10.184456        1.623233        0.316682
      5       O        3.322053        8.242645        0.217578
      6       H        4.196981        0.787278        0.305206
      7       C        9.362913       12.219142        1.837297
      8       H        0.030139        0.478242        3.682508
      9       H        4.223728        0.969631        0.320918
     10       C        8.450712       11.918746        1.904702
     11       H        1.266814        3.678894        0.321259
     12       C        4.779225        8.585398       10.015912
     13       C        4.888042        9.079120        9.155658
     14       C        4.744289        9.801554        8.829417
     15       C        4.618509        8.665596        9.869349
     16       C        5.035672        8.973537        9.528482
     17       N        4.602246       10.634048        9.087315
     18       H        1.265978        3.048678        0.900282
     19       H        0.523818        2.361575        2.468716
     20       H        1.275665        3.279855        0.852242
     21       H        0.530132        2.142716        2.597848
     22       H        1.293417        0.884650        3.223954
     23       H        0.174215        3.921621        0.694128
     24       H        1.050263        1.155697        2.616156
     25       O        1.148386        4.369535        4.100610

 **********************
 *                    *
 * JOB ENDED NORMALLY *
 *                    *
 **********************



 TOTAL JOB TIME:             3.07 SECONDS

 == MOPAC DONE ==
