27
	Energy:    -209.9230700
C         -0.77373        1.16768       -0.07989
C          0.58230        1.18121        0.23895
C          1.33178       -0.00286        0.21123
C          0.70543       -1.20323       -0.10226
C         -0.66092       -1.20596       -0.40109
C         -1.41056       -0.02697       -0.40953
H         -1.34704        2.09974       -0.06523
H          1.05895        2.13145        0.50553
H          1.25598       -2.15301       -0.11422
H         -2.47476       -0.03623       -0.66807
N         -1.28645       -2.47112       -0.69928
O         -2.46913       -2.50162       -1.00988
O         -0.61616       -3.49520       -0.62686
C          2.79120        0.02949        0.57482
H          2.90727        0.51356        1.60886
C          3.45458       -1.34116        0.62395
H          4.51004       -1.28087        0.92801
H          3.42967       -1.87408       -0.33605
H          2.95399       -1.98556        1.36623
N          3.55824        0.90503       -0.37306
O          4.74621        1.08582       -0.15242
O          2.98955        1.42771       -1.31733
O          2.63422        2.55593        6.05669
H          2.92583        1.85169        5.58186
H          2.04886        1.12344        3.70127
H          3.48935        1.57349        3.56331
O          2.93472        0.78373        3.52398
