 *******************************************************************************
 **                                                                           **
 **                              MOPAC v22.0.6                                **
 **                                                                           **
 *******************************************************************************
 **          Digital Object Identifier (DOI): 10.5281/zenodo.6511958          **
 **    Visit the DOI location for information on how to cite this program.    **
 *******************************************************************************

                              PM7 CALCULATION RESULTS

 *******************************************************************************
 *  CALCULATION DONE:                                Mon Mar 25 23:19:41 2024  *
 *  PM7        - The PM7 Hamiltonian to be used
 *  SINGLET    - SPIN STATE DEFINED AS A SINGLET
 *
 *
 *
 *                 CHARGE ON SYSTEM = -1
 *
 *
 *
 *  EPS=78.4   - USE ANDREAS KLAMT'S COSMO IMPLICIT SOLVATION MODEL
 *  T=         - A TIME OF 14.0 DAYS REQUESTED
 *  DUMP=N     - RESTART FILE WRITTEN EVERY 30.0 MINUTES REQUESTED
 *  RELSCF     - DEFAULT SCF CRITERION MULTIPLIED BY 1.0000
 *              (DEFAULT SCF CRITERION = 0.00010)
 *  ITRY=      - DO A MAXIMUM OF 15000 ITERATIONS FOR SCF
 *  AUX        - OUTPUT AUXILIARY INFORMATION
 *  BONDS      - FINAL BOND-ORDER MATRIX TO BE PRINTED
 *******************************************************************************
PM7 BONDS AUX DUMP=30M ITRY=15000 T=14D CHARGE=-1 SINGLET eps=78.4 RELSCF=1
 Title: ASE calculation

   ATOM   CHEMICAL          X               Y               Z
  NUMBER   SYMBOL      (ANGSTROMS)     (ANGSTROMS)     (ANGSTROMS)

     1       C         -0.77373000  *   1.16768000  *  -0.07989000  *
     2       C          0.58230000  *   1.18121000  *   0.23895000  *
     3       C          1.33178000  *  -0.00286000  *   0.21123000  *
     4       C          0.70543000  *  -1.20323000  *  -0.10226000  *
     5       C         -0.66092000  *  -1.20596000  *  -0.40109000  *
     6       C         -1.41056000  *  -0.02697000  *  -0.40953000  *
     7       H         -1.34704000  *   2.09974000  *  -0.06523000  *
     8       H          1.05895000  *   2.13145000  *   0.50553000  *
     9       H          1.25598000  *  -2.15301000  *  -0.11422000  *
    10       H         -2.47476000  *  -0.03623000  *  -0.66807000  *
    11       N         -1.28645000  *  -2.47112000  *  -0.69928000  *
    12       O         -2.46913000  *  -2.50162000  *  -1.00988000  *
    13       O         -0.61616000  *  -3.49520000  *  -0.62686000  *
    14       C          2.79120000  *   0.02949000  *   0.57482000  *
    15       H          2.90727000  *   0.51356000  *   1.60886000  *
    16       C          3.45458000  *  -1.34116000  *   0.62395000  *
    17       H          4.51004000  *  -1.28087000  *   0.92801000  *
    18       H          3.42967000  *  -1.87408000  *  -0.33605000  *
    19       H          2.95399000  *  -1.98556000  *   1.36623000  *
    20       N          3.55824000  *   0.90503000  *  -0.37306000  *
    21       O          4.74621000  *   1.08582000  *  -0.15242000  *
    22       O          2.98955000  *   1.42771000  *  -1.31733000  *
    23       O          2.63422000  *   2.55593000  *   6.05669000  *
    24       H          2.92583000  *   1.85169000  *   5.58186000  *
    25       H          2.04886000  *   1.12344000  *   3.70127000  *
    26       H          3.48935000  *   1.57349000  *   3.56331000  *
    27       O          2.93472000  *   0.78373000  *   3.52398000  *



          CARTESIAN COORDINATES 

    NO.       ATOM           X           Y           Z

     1         C         -0.7737      1.1677     -0.0799
     2         C          0.5823      1.1812      0.2390
     3         C          1.3318     -0.0029      0.2112
     4         C          0.7054     -1.2032     -0.1023
     5         C         -0.6609     -1.2060     -0.4011
     6         C         -1.4106     -0.0270     -0.4095
     7         H         -1.3470      2.0997     -0.0652
     8         H          1.0590      2.1315      0.5055
     9         H          1.2560     -2.1530     -0.1142
    10         H         -2.4748     -0.0362     -0.6681
    11         N         -1.2865     -2.4711     -0.6993
    12         O         -2.4691     -2.5016     -1.0099
    13         O         -0.6162     -3.4952     -0.6269
    14         C          2.7912      0.0295      0.5748
    15         H          2.9073      0.5136      1.6089
    16         C          3.4546     -1.3412      0.6240
    17         H          4.5100     -1.2809      0.9280
    18         H          3.4297     -1.8741     -0.3361
    19         H          2.9540     -1.9856      1.3662
    20         N          3.5582      0.9050     -0.3731
    21         O          4.7462      1.0858     -0.1524
    22         O          2.9895      1.4277     -1.3173
    23         O          2.6342      2.5559      6.0567
    24         H          2.9258      1.8517      5.5819
    25         H          2.0489      1.1234      3.7013
    26         H          3.4893      1.5735      3.5633
    27         O          2.9347      0.7837      3.5240

 General Reference for PM7:
 "Optimization of Parameters for Semiempirical Methods VI: More Modifications to the 
 NDDO Approximations and Re-optimization of Parameters", J. J. P. Stewart, J. Mol. Mod., 1:32, 19 (2013)
 https://link.springer.com/article/10.1007/s00894-012-1667-x

           Empirical Formula: C8 H11 N2 O6  =    27 atoms



      MOLECULAR POINT GROUP   :   C1  


 SINGLET STATE CALCULATION


      RHF CALCULATION, NO. OF DOUBLY OCCUPIED LEVELS = 45


          Geometry optimization using EF
  SCF CRITERION =    0.1000E-03

          DIAGONAL MATRIX USED AS START HESSIAN

 CYCLE:     1 TIME:   0.172 TIME LEFT:  2.00W  GRAD.:     6.966 HEAT: -209.9231

     TRUST RADIUS NOW LESS THAN  0.00010 OPTIMIZATION TERMINATING
      THE GEOMETRY MAY NOT BE COMPLETELY OPTIMIZED
      (TO CONTINUE, ADD 'LET DDMIN=0.0' TO THE KEYWORD LINE)

 -------------------------------------------------------------------------------
 PM7 BONDS AUX DUMP=30M ITRY=15000 T=14D CHARGE=-1 SINGLET eps=78.4 RELSCF=1
 Title: ASE calculation



     GEOMETRY OPTIMISED USING EIGENVECTOR FOLLOWING (EF).     
     SCF FIELD WAS ACHIEVED                                   


                              PM7 CALCULATION
                                                       MOPAC v22.0.6 Linux
                                                       Mon Mar 25 23:19:42 2024




          FINAL HEAT OF FORMATION =       -209.92308 KCAL/MOL =    -878.31815 KJ/MOL
          VAN DER WAALS AREA      =        262.35 SQUARE ANGSTROMS



          DIELECTRIC ENERGY       =         -4.65161 EV
          COSMO AREA              =        262.35 SQUARE ANGSTROMS
          COSMO VOLUME            =        269.75 CUBIC ANGSTROMS

          GRADIENT NORM           =          6.96617          =       1.34064 PER ATOM
          IONIZATION POTENTIAL    =         10.301381 EV
          HOMO LUMO ENERGIES (EV) =        -10.301 -1.484
          NO. OF FILLED LEVELS    =         45
          MOLECULAR WEIGHT        =        231.1847         POINT GROUP:  C1  

          MOLECULAR DIMENSIONS (Angstroms)

            Atom       Atom       Distance
            O    23    O    12    10.07767
            H    17    H     7     6.54642
            O    13    O    22     4.78107


          SCF CALCULATIONS        =         11

          WALL-CLOCK TIME         =      0.914 SECONDS
          COMPUTATION TIME        =          1 MINUTE AND 0.507 SECONDS



       FINAL  POINT  AND  DERIVATIVES

   PARAMETER     ATOM    TYPE            VALUE        GRADIENT
      1          1  C    CARTESIAN X    -0.773730      0.406677  KCAL/ANGSTROM
      2          1  C    CARTESIAN Y     1.167680      0.812213  KCAL/ANGSTROM
      3          1  C    CARTESIAN Z    -0.079890     -0.545913  KCAL/ANGSTROM
      4          2  C    CARTESIAN X     0.582300     -0.114911  KCAL/ANGSTROM
      5          2  C    CARTESIAN Y     1.181210      0.251437  KCAL/ANGSTROM
      6          2  C    CARTESIAN Z     0.238950      1.094460  KCAL/ANGSTROM
      7          3  C    CARTESIAN X     1.331780     -0.586537  KCAL/ANGSTROM
      8          3  C    CARTESIAN Y    -0.002860      0.166526  KCAL/ANGSTROM
      9          3  C    CARTESIAN Z     0.211230     -1.246346  KCAL/ANGSTROM
     10          4  C    CARTESIAN X     0.705430     -0.981917  KCAL/ANGSTROM
     11          4  C    CARTESIAN Y    -1.203230      0.447350  KCAL/ANGSTROM
     12          4  C    CARTESIAN Z    -0.102260      0.412033  KCAL/ANGSTROM
     13          5  C    CARTESIAN X    -0.660920      0.862719  KCAL/ANGSTROM
     14          5  C    CARTESIAN Y    -1.205960      1.484770  KCAL/ANGSTROM
     15          5  C    CARTESIAN Z    -0.401090      0.487956  KCAL/ANGSTROM
     16          6  C    CARTESIAN X    -1.410560      0.168919  KCAL/ANGSTROM
     17          6  C    CARTESIAN Y    -0.026970     -1.486511  KCAL/ANGSTROM
     18          6  C    CARTESIAN Z    -0.409530      0.277212  KCAL/ANGSTROM
     19          7  H    CARTESIAN X    -1.347040     -0.149030  KCAL/ANGSTROM
     20          7  H    CARTESIAN Y     2.099740      0.202136  KCAL/ANGSTROM
     21          7  H    CARTESIAN Z    -0.065230      0.302679  KCAL/ANGSTROM
     22          8  H    CARTESIAN X     1.058950     -0.445722  KCAL/ANGSTROM
     23          8  H    CARTESIAN Y     2.131450      0.069655  KCAL/ANGSTROM
     24          8  H    CARTESIAN Z     0.505530     -0.004547  KCAL/ANGSTROM
     25          9  H    CARTESIAN X     1.255980     -0.442753  KCAL/ANGSTROM
     26          9  H    CARTESIAN Y    -2.153010     -0.095310  KCAL/ANGSTROM
     27          9  H    CARTESIAN Z    -0.114220      0.460897  KCAL/ANGSTROM
     28         10  H    CARTESIAN X    -2.474760      0.188610  KCAL/ANGSTROM
     29         10  H    CARTESIAN Y    -0.036230      0.343790  KCAL/ANGSTROM
     30         10  H    CARTESIAN Z    -0.668070     -0.442061  KCAL/ANGSTROM
     31         11  N    CARTESIAN X    -1.286450      0.138078  KCAL/ANGSTROM
     32         11  N    CARTESIAN Y    -2.471120      0.088302  KCAL/ANGSTROM
     33         11  N    CARTESIAN Z    -0.699280     -0.262474  KCAL/ANGSTROM
     34         12  O    CARTESIAN X    -2.469130      0.946320  KCAL/ANGSTROM
     35         12  O    CARTESIAN Y    -2.501620     -0.676894  KCAL/ANGSTROM
     36         12  O    CARTESIAN Z    -1.009880      0.394298  KCAL/ANGSTROM
     37         13  O    CARTESIAN X    -0.616160      1.375019  KCAL/ANGSTROM
     38         13  O    CARTESIAN Y    -3.495200     -0.362090  KCAL/ANGSTROM
     39         13  O    CARTESIAN Z    -0.626860      0.583852  KCAL/ANGSTROM
     40         14  C    CARTESIAN X     2.791200      0.142843  KCAL/ANGSTROM
     41         14  C    CARTESIAN Y     0.029490     -1.363522  KCAL/ANGSTROM
     42         14  C    CARTESIAN Z     0.574820     -0.385813  KCAL/ANGSTROM
     43         15  H    CARTESIAN X     2.907270      0.641187  KCAL/ANGSTROM
     44         15  H    CARTESIAN Y     0.513560     -0.071509  KCAL/ANGSTROM
     45         15  H    CARTESIAN Z     1.608860      1.077962  KCAL/ANGSTROM
     46         16  C    CARTESIAN X     3.454580     -0.809038  KCAL/ANGSTROM
     47         16  C    CARTESIAN Y    -1.341160     -0.960587  KCAL/ANGSTROM
     48         16  C    CARTESIAN Z     0.623950      0.234477  KCAL/ANGSTROM
     49         17  H    CARTESIAN X     4.510040     -0.793117  KCAL/ANGSTROM
     50         17  H    CARTESIAN Y    -1.280870     -0.222223  KCAL/ANGSTROM
     51         17  H    CARTESIAN Z     0.928010      0.034351  KCAL/ANGSTROM
     52         18  H    CARTESIAN X     3.429670     -0.555361  KCAL/ANGSTROM
     53         18  H    CARTESIAN Y    -1.874080     -0.501731  KCAL/ANGSTROM
     54         18  H    CARTESIAN Z    -0.336050      0.612112  KCAL/ANGSTROM
     55         19  H    CARTESIAN X     2.953990     -0.853598  KCAL/ANGSTROM
     56         19  H    CARTESIAN Y    -1.985560      0.746384  KCAL/ANGSTROM
     57         19  H    CARTESIAN Z     1.366230     -0.606434  KCAL/ANGSTROM
     58         20  N    CARTESIAN X     3.558240      0.034976  KCAL/ANGSTROM
     59         20  N    CARTESIAN Y     0.905030      0.721635  KCAL/ANGSTROM
     60         20  N    CARTESIAN Z    -0.373060      0.586241  KCAL/ANGSTROM
     61         21  O    CARTESIAN X     4.746210      0.127729  KCAL/ANGSTROM
     62         21  O    CARTESIAN Y     1.085820      0.543760  KCAL/ANGSTROM
     63         21  O    CARTESIAN Z    -0.152420      0.220974  KCAL/ANGSTROM
     64         22  O    CARTESIAN X     2.989550      0.449617  KCAL/ANGSTROM
     65         22  O    CARTESIAN Y     1.427710      1.360509  KCAL/ANGSTROM
     66         22  O    CARTESIAN Z    -1.317330     -0.572674  KCAL/ANGSTROM
     67         23  O    CARTESIAN X     2.634220     -1.227794  KCAL/ANGSTROM
     68         23  O    CARTESIAN Y     2.555930      1.310291  KCAL/ANGSTROM
     69         23  O    CARTESIAN Z     6.056690     -0.231575  KCAL/ANGSTROM
     70         24  H    CARTESIAN X     2.925830      1.124060  KCAL/ANGSTROM
     71         24  H    CARTESIAN Y     1.851690     -1.905976  KCAL/ANGSTROM
     72         24  H    CARTESIAN Z     5.581860     -1.655311  KCAL/ANGSTROM
     73         25  H    CARTESIAN X     2.048860      1.818507  KCAL/ANGSTROM
     74         25  H    CARTESIAN Y     1.123440      0.397206  KCAL/ANGSTROM
     75         25  H    CARTESIAN Z     3.701270     -0.451419  KCAL/ANGSTROM
     76         26  H    CARTESIAN X     3.489350     -1.964485  KCAL/ANGSTROM
     77         26  H    CARTESIAN Y     1.573490     -1.023464  KCAL/ANGSTROM
     78         26  H    CARTESIAN Z     3.563310      0.184687  KCAL/ANGSTROM
     79         27  O    CARTESIAN X     2.934720      0.499002  KCAL/ANGSTROM
     80         27  O    CARTESIAN Y     0.783730     -0.276148  KCAL/ANGSTROM
     81         27  O    CARTESIAN Z     3.523980     -0.559628  KCAL/ANGSTROM




   ATOM   CHEMICAL          X               Y               Z
  NUMBER   SYMBOL      (ANGSTROMS)     (ANGSTROMS)     (ANGSTROMS)

     1       C         -0.77373000  *   1.16768000  *  -0.07989000  *
     2       C          0.58230000  *   1.18121000  *   0.23895000  *
     3       C          1.33178000  *  -0.00286000  *   0.21123000  *
     4       C          0.70543000  *  -1.20323000  *  -0.10226000  *
     5       C         -0.66092000  *  -1.20596000  *  -0.40109000  *
     6       C         -1.41056000  *  -0.02697000  *  -0.40953000  *
     7       H         -1.34704000  *   2.09974000  *  -0.06523000  *
     8       H          1.05895000  *   2.13145000  *   0.50553000  *
     9       H          1.25598000  *  -2.15301000  *  -0.11422000  *
    10       H         -2.47476000  *  -0.03623000  *  -0.66807000  *
    11       N         -1.28645000  *  -2.47112000  *  -0.69928000  *
    12       O         -2.46913000  *  -2.50162000  *  -1.00988000  *
    13       O         -0.61616000  *  -3.49520000  *  -0.62686000  *
    14       C          2.79120000  *   0.02949000  *   0.57482000  *
    15       H          2.90727000  *   0.51356000  *   1.60886000  *
    16       C          3.45458000  *  -1.34116000  *   0.62395000  *
    17       H          4.51004000  *  -1.28087000  *   0.92801000  *
    18       H          3.42967000  *  -1.87408000  *  -0.33605000  *
    19       H          2.95399000  *  -1.98556000  *   1.36623000  *
    20       N          3.55824000  *   0.90503000  *  -0.37306000  *
    21       O          4.74621000  *   1.08582000  *  -0.15242000  *
    22       O          2.98955000  *   1.42771000  *  -1.31733000  *
    23       O          2.63422000  *   2.55593000  *   6.05669000  *
    24       H          2.92583000  *   1.85169000  *   5.58186000  *
    25       H          2.04886000  *   1.12344000  *   3.70127000  *
    26       H          3.48935000  *   1.57349000  *   3.56331000  *
    27       O          2.93472000  *   0.78373000  *   3.52398000  *

                             CARTESIAN COORDINATES

   1    C       -0.773730000     1.167680000    -0.079890000
   2    C        0.582300000     1.181210000     0.238950000
   3    C        1.331780000    -0.002860000     0.211230000
   4    C        0.705430000    -1.203230000    -0.102260000
   5    C       -0.660920000    -1.205960000    -0.401090000
   6    C       -1.410560000    -0.026970000    -0.409530000
   7    H       -1.347040000     2.099740000    -0.065230000
   8    H        1.058950000     2.131450000     0.505530000
   9    H        1.255980000    -2.153010000    -0.114220000
  10    H       -2.474760000    -0.036230000    -0.668070000
  11    N       -1.286450000    -2.471120000    -0.699280000
  12    O       -2.469130000    -2.501620000    -1.009880000
  13    O       -0.616160000    -3.495200000    -0.626860000
  14    C        2.791200000     0.029490000     0.574820000
  15    H        2.907270000     0.513560000     1.608860000
  16    C        3.454580000    -1.341160000     0.623950000
  17    H        4.510040000    -1.280870000     0.928010000
  18    H        3.429670000    -1.874080000    -0.336050000
  19    H        2.953990000    -1.985560000     1.366230000
  20    N        3.558240000     0.905030000    -0.373060000
  21    O        4.746210000     1.085820000    -0.152420000
  22    O        2.989550000     1.427710000    -1.317330000
  23    O        2.634220000     2.555930000     6.056690000
  24    H        2.925830000     1.851690000     5.581860000
  25    H        2.048860000     1.123440000     3.701270000
  26    H        3.489350000     1.573490000     3.563310000
  27    O        2.934720000     0.783730000     3.523980000


           Empirical Formula: C8 H11 N2 O6  =    27 atoms



      MOLECULAR POINT GROUP   :   C1  


                  EIGENVALUES  
 -37.51278 -37.38681 -31.65883 -30.85242 -30.83749 -29.57602 -29.21720 -27.71236
 -26.25243 -25.26054 -24.65066 -24.52870 -22.65724 -21.41878 -20.63217 -19.44043
 -18.56406 -18.32790 -17.91173 -17.67185 -17.64915 -17.39010 -17.00073 -16.13726
 -15.44234 -15.23057 -14.58936 -14.30448 -13.99360 -13.67928 -13.48399 -13.19832
 -12.96237 -12.66692 -12.13783 -11.96997 -11.95265 -11.88082 -11.86028 -11.69807
 -11.53796 -10.70879 -10.50647 -10.30614 -10.30138  -1.48386  -0.68910  -0.44829
   0.14932   0.44426   0.52705   1.78401   2.53506   3.05371   3.32498   3.60393
   3.79882   3.98341   4.04140   4.08016   4.23886   4.28587   4.51607   4.65287
   4.83382   4.93863   5.33413   5.37634   5.42962   5.47891   5.57356   5.80228
   6.47072   6.59100   8.14154


              NET ATOMIC CHARGES AND DIPOLE CONTRIBUTIONS

  ATOM NO.   TYPE          CHARGE      No. of ELECS.   s-Pop       p-Pop       
    1          C          -0.168886        4.1689     1.08691     3.08197
    2          C          -0.057619        4.0576     1.09948     2.95814
    3          C          -0.073073        4.0731     1.06489     3.00818
    4          C          -0.067738        4.0677     1.09559     2.97215
    5          C          -0.094059        4.0941     1.06860     3.02545
    6          C          -0.055374        4.0554     1.09760     2.95777
    7          H           0.186201        0.8138     0.81380
    8          H           0.188454        0.8115     0.81155
    9          H           0.199068        0.8009     0.80093
   10          H           0.190997        0.8090     0.80900
   11          N           0.673478        4.3265     1.44772     2.87880
   12          O          -0.458614        6.4586     1.94050     4.51811
   13          O          -0.464613        6.4646     1.94125     4.52337
   14          C          -0.045402        4.0454     1.09581     2.94959
   15          H           0.243188        0.7568     0.75681
   16          C          -0.473873        4.4739     1.05794     3.41594
   17          H           0.183125        0.8169     0.81687
   18          H           0.173014        0.8270     0.82699
   19          H           0.192814        0.8072     0.80719
   20          N           0.624791        4.3752     1.47905     2.89616
   21          O          -0.453177        6.4532     1.93992     4.51326
   22          O          -0.452658        6.4527     1.93955     4.51311
   23          O          -1.330738        7.3307     1.87534     5.45540
   24          H           0.330306        0.6697     0.66969
   25          H           0.369492        0.6305     0.63051
   26          H           0.372079        0.6279     0.62792
   27          O          -0.731185        6.7312     1.81766     4.91352
 DIPOLE           X         Y         Z       TOTAL
 POINT-CHG.    -6.530    -9.084   -21.457    24.199
 HYBRID        -0.088    -0.337    -0.834     0.904
 SUM           -6.619    -9.421   -22.291    25.089


          ATOMIC ORBITAL ELECTRON POPULATIONS

     Atom    s        px        py        pz   
    1  C   1.08691   1.01466   1.06295   1.00436
    2  C   1.09948   0.99404   1.05460   0.90951
    3  C   1.06489   0.96827   0.98750   1.05242
    4  C   1.09559   0.98128   1.07692   0.91395
    5  C   1.06860   0.99166   0.88264   1.15116
    6  C   1.09760   1.08795   0.96099   0.90883
    7  H   0.81380
    8  H   0.81155
    9  H   0.80093
   10  H   0.80900
   11  N   1.44772   0.96106   1.00365   0.91408
   12  O   1.94050   1.04866   1.92929   1.54016
   13  O   1.94125   1.61723   1.30592   1.60022
   14  C   1.09581   0.93302   0.98643   1.03014
   15  H   0.75681
   16  C   1.05794   1.17400   1.02665   1.21529
   17  H   0.81687
   18  H   0.82699
   19  H   0.80719
   20  N   1.47905   0.97451   0.95163   0.97002
   21  O   1.93992   1.05281   1.68277   1.77768
   22  O   1.93955   1.69472   1.54231   1.27608
   23  O   1.87534   1.94299   1.66573   1.84669
   24  H   0.66969
   25  H   0.63051
   26  H   0.62792
   27  O   1.81766   1.42553   1.52111   1.96689

          BONDING CONTRIBUTION OF EACH M.O.

  1.3473  1.3143  1.8672  0.9959  1.0123  1.3460  1.5043  1.4984  1.4900  1.5407
  1.1015  1.0707  1.6275  1.4983  1.6042  1.5559  1.4106  1.2095  1.4009  1.6494
  1.5466  1.7210  1.7872  1.8781  1.8944  1.9426  0.7001  1.8191  1.8928  1.7770
  1.8532  0.7481  1.4083  1.9851  0.5885  0.8494  0.8750  0.3374  0.3075  0.6856
  0.7888  1.8999  1.9524  0.0002  0.0012 -2.1417 -1.9671 -2.3744 -2.1645 -2.1118
 -2.0784 -1.9827 -1.9638 -1.9716 -1.9550 -1.9583 -1.9387 -1.9517 -1.9144 -2.0262
 -1.9819 -1.9636 -1.9612 -1.9621 -1.9797 -1.8656 -1.9482 -1.9405 -1.9579 -1.9505
 -1.9502 -1.9431 -1.7201 -1.8851 -1.7745





            (VALENCIES)   BOND ORDERS

     1  C     (3.965)     2  C 1.445     6  C 1.445     7  H 0.952     4  C 0.101

     2  C     (3.951)     1  C 1.445     3  C 1.395     8  H 0.951     5  C 0.104     6  C 0.010

     3  C     (3.990)     4  C 1.456     2  C 1.395    14  C 0.999     6  C 0.101

     4  C     (3.950)     3  C 1.456     5  C 1.374     9  H 0.942     1  C 0.101    12  O 0.018    13  O 0.011

     5  C     (3.928)     6  C 1.386     4  C 1.374    11  N 0.906     2  C 0.104    13  O 0.068    12  O 0.068

     6  C     (3.950)     1  C 1.445     5  C 1.386    10  H 0.949     3  C 0.101    13  O 0.018    12  O 0.012
                          2  C 0.010

     7  H     (0.965)     1  C 0.952

     8  H     (0.964)     2  C 0.951

     9  H     (0.960)     4  C 0.942

    10  H     (0.964)     6  C 0.949

    11  N     (3.781)    12  O 1.426    13  O 1.418     5  C 0.906

    12  O     (1.818)    11  N 1.426    13  O 0.285     5  C 0.068     4  C 0.018     6  C 0.012

    13  O     (1.810)    11  N 1.418    12  O 0.285     5  C 0.068     6  C 0.018     4  C 0.011

    14  C     (3.891)     3  C 0.999    16  C 0.995    15  H 0.895    20  N 0.822    22  O 0.071    21  O 0.069

    15  H     (0.941)    14  C 0.895    27  O 0.015

    16  C     (3.893)    14  C 0.995    18  H 0.960    17  H 0.955    19  H 0.947

    17  H     (0.966)    16  C 0.955

    18  H     (0.970)    16  C 0.960

    19  H     (0.963)    16  C 0.947

    20  N     (3.742)    22  O 1.445    21  O 1.440    14  C 0.822

    21  O     (1.830)    20  N 1.440    22  O 0.298    14  C 0.069

    22  O     (1.837)    20  N 1.445    21  O 0.298    14  C 0.071

    23  O     (0.891)    24  H 0.886

    24  H     (0.891)    23  O 0.886

    25  H     (0.863)    27  O 0.859

    26  H     (0.862)    27  O 0.857

    27  O     (1.747)    25  H 0.859    26  H 0.857    15  H 0.015


 **********************
 *                    *
 * JOB ENDED NORMALLY *
 *                    *
 **********************



 TOTAL JOB TIME:             0.92 SECONDS

 == MOPAC DONE ==
