 *******************************************************************************
 **                                                                           **
 **                              MOPAC v22.0.6                                **
 **                                                                           **
 *******************************************************************************
 **          Digital Object Identifier (DOI): 10.5281/zenodo.6511958          **
 **    Visit the DOI location for information on how to cite this program.    **
 *******************************************************************************

                              PM7 CALCULATION RESULTS

 *******************************************************************************
 *  CALCULATION DONE:                                Mon Mar 25 22:33:28 2024  *
 *  PM7        - The PM7 Hamiltonian to be used
 *  SINGLET    - SPIN STATE DEFINED AS A SINGLET
 *
 *
 *
 *                 CHARGE ON SYSTEM = -1
 *
 *
 *
 *  EPS=78.4   - USE ANDREAS KLAMT'S COSMO IMPLICIT SOLVATION MODEL
 *  T=         - A TIME OF 14.0 DAYS REQUESTED
 *  DUMP=N     - RESTART FILE WRITTEN EVERY 30.0 MINUTES REQUESTED
 *  RELSCF     - DEFAULT SCF CRITERION MULTIPLIED BY 1.0000
 *              (DEFAULT SCF CRITERION = 0.00010)
 *  ITRY=      - DO A MAXIMUM OF 15000 ITERATIONS FOR SCF
 *  AUX        - OUTPUT AUXILIARY INFORMATION
 *  BONDS      - FINAL BOND-ORDER MATRIX TO BE PRINTED
 *******************************************************************************
PM7 BONDS AUX DUMP=30M ITRY=15000 T=14D CHARGE=-1 SINGLET eps=78.4 RELSCF=1
 Title: ASE calculation

   ATOM   CHEMICAL          X               Y               Z
  NUMBER   SYMBOL      (ANGSTROMS)     (ANGSTROMS)     (ANGSTROMS)

     1       C         -0.77463000  *   1.15981000  *  -0.03181000  *
     2       C          0.57960000  *   1.17834000  *   0.32139000  *
     3       C          1.31750000  *  -0.01022000  *   0.30630000  *
     4       C          0.69150000  *  -1.20409000  *  -0.04863000  *
     5       C         -0.67107000  *  -1.20107000  *  -0.38372000  *
     6       C         -1.42389000  *  -0.02537000  *  -0.38728000  *
     7       H          1.05198000  *   2.13250000  *   0.60762000  *
     8       H          1.24662000  *  -2.15508000  *  -0.06567000  *
     9       H         -2.49401000  *  -0.02996000  *  -0.65583000  *
    10       N         -1.31123000  *  -2.45023000  *  -0.73645000  *
    11       O         -2.49482000  *  -2.44517000  *  -1.04224000  *
    12       O         -0.64787000  *  -3.47722000  *  -0.71843000  *
    13       C          2.77024000  *   0.04019000  *   0.70776000  *
    14       H          2.84763000  *   0.52252000  *   1.73199000  *
    15       C          3.49427000  *  -1.29826000  *   0.74480000  *
    16       H          4.55145000  *  -1.18730000  *   1.04584000  *
    17       H          3.50459000  *  -1.80825000  *  -0.23040000  *
    18       H          3.04441000  *  -1.99109000  *   1.47332000  *
    19       N          3.54254000  *   0.93088000  *  -0.23578000  *
    20       O          4.73738000  *   1.07220000  *  -0.03253000  *
    21       O          2.95902000  *   1.47957000  *  -1.15142000  *
    22       O          2.58941000  *   3.45965000  *   7.41931000  *
    23       H          2.89024000  *   2.66993000  *   7.71263000  *
    24       N         -1.52429000  *   2.39881000  *  -0.02955000  *
    25       O         -2.70108000  *   2.37641000  *  -0.35677000  *
    26       O         -0.95515000  *   3.42987000  *   0.29670000  *
    27       H          2.39957000  *   1.76825000  *   4.27873000  *
    28       H          2.91304000  *   2.35123000  *   5.58678000  *
    29       O          3.20087000  *   1.84688000  *   4.80336000  *



          CARTESIAN COORDINATES 

    NO.       ATOM           X           Y           Z

     1         C         -0.7746      1.1598     -0.0318
     2         C          0.5796      1.1783      0.3214
     3         C          1.3175     -0.0102      0.3063
     4         C          0.6915     -1.2041     -0.0486
     5         C         -0.6711     -1.2011     -0.3837
     6         C         -1.4239     -0.0254     -0.3873
     7         H          1.0520      2.1325      0.6076
     8         H          1.2466     -2.1551     -0.0657
     9         H         -2.4940     -0.0300     -0.6558
    10         N         -1.3112     -2.4502     -0.7365
    11         O         -2.4948     -2.4452     -1.0422
    12         O         -0.6479     -3.4772     -0.7184
    13         C          2.7702      0.0402      0.7078
    14         H          2.8476      0.5225      1.7320
    15         C          3.4943     -1.2983      0.7448
    16         H          4.5514     -1.1873      1.0458
    17         H          3.5046     -1.8083     -0.2304
    18         H          3.0444     -1.9911      1.4733
    19         N          3.5425      0.9309     -0.2358
    20         O          4.7374      1.0722     -0.0325
    21         O          2.9590      1.4796     -1.1514
    22         O          2.5894      3.4596      7.4193
    23         H          2.8902      2.6699      7.7126
    24         N         -1.5243      2.3988     -0.0296
    25         O         -2.7011      2.3764     -0.3568
    26         O         -0.9552      3.4299      0.2967
    27         H          2.3996      1.7683      4.2787
    28         H          2.9130      2.3512      5.5868
    29         O          3.2009      1.8469      4.8034

 General Reference for PM7:
 "Optimization of Parameters for Semiempirical Methods VI: More Modifications to the 
 NDDO Approximations and Re-optimization of Parameters", J. J. P. Stewart, J. Mol. Mod., 1:32, 19 (2013)
 https://link.springer.com/article/10.1007/s00894-012-1667-x

           Empirical Formula: C8 H10 N3 O8  =    29 atoms



      MOLECULAR POINT GROUP   :   C1  


 SINGLET STATE CALCULATION


      RHF CALCULATION, NO. OF DOUBLY OCCUPIED LEVELS = 53


          Geometry optimization using EF
  SCF CRITERION =    0.1000E-03

          DIAGONAL MATRIX USED AS START HESSIAN

 CYCLE:     1 TIME:   0.180 TIME LEFT:  2.00W  GRAD.:     8.775 HEAT: -216.3931

     TRUST RADIUS NOW LESS THAN  0.00010 OPTIMIZATION TERMINATING
      THE GEOMETRY MAY NOT BE COMPLETELY OPTIMIZED
      (TO CONTINUE, ADD 'LET DDMIN=0.0' TO THE KEYWORD LINE)

 -------------------------------------------------------------------------------
 PM7 BONDS AUX DUMP=30M ITRY=15000 T=14D CHARGE=-1 SINGLET eps=78.4 RELSCF=1
 Title: ASE calculation



     GEOMETRY OPTIMISED USING EIGENVECTOR FOLLOWING (EF).     
     SCF FIELD WAS ACHIEVED                                   


                              PM7 CALCULATION
                                                       MOPAC v22.0.6 Linux
                                                       Mon Mar 25 22:33:29 2024




          FINAL HEAT OF FORMATION =       -216.39311 KCAL/MOL =    -905.38878 KJ/MOL
          VAN DER WAALS AREA      =        305.94 SQUARE ANGSTROMS



          DIELECTRIC ENERGY       =         -4.90809 EV
          COSMO AREA              =        305.94 SQUARE ANGSTROMS
          COSMO VOLUME            =        301.20 CUBIC ANGSTROMS

          GRADIENT NORM           =          8.77531          =       1.62953 PER ATOM
          IONIZATION POTENTIAL    =         10.258560 EV
          HOMO LUMO ENERGIES (EV) =        -10.259 -1.930
          NO. OF FILLED LEVELS    =         53
          MOLECULAR WEIGHT        =        276.1823         POINT GROUP:  C1  

          MOLECULAR DIMENSIONS (Angstroms)

            Atom       Atom       Distance
            O    22    O    11    11.50279
            O    25    H    16     7.84016
            O    21    H    23     5.30351


          SCF CALCULATIONS        =         12

          WALL-CLOCK TIME         =      0.656 SECONDS
          COMPUTATION TIME        =     55.315 SECONDS



       FINAL  POINT  AND  DERIVATIVES

   PARAMETER     ATOM    TYPE            VALUE        GRADIENT
      1          1  C    CARTESIAN X    -0.774630     -0.058523  KCAL/ANGSTROM
      2          1  C    CARTESIAN Y     1.159810     -0.000450  KCAL/ANGSTROM
      3          1  C    CARTESIAN Z    -0.031810     -0.153738  KCAL/ANGSTROM
      4          2  C    CARTESIAN X     0.579600      0.037742  KCAL/ANGSTROM
      5          2  C    CARTESIAN Y     1.178340     -0.251074  KCAL/ANGSTROM
      6          2  C    CARTESIAN Z     0.321390      0.051177  KCAL/ANGSTROM
      7          3  C    CARTESIAN X     1.317500     -0.376018  KCAL/ANGSTROM
      8          3  C    CARTESIAN Y    -0.010220      0.471663  KCAL/ANGSTROM
      9          3  C    CARTESIAN Z     0.306300      0.261152  KCAL/ANGSTROM
     10          4  C    CARTESIAN X     0.691500     -0.090764  KCAL/ANGSTROM
     11          4  C    CARTESIAN Y    -1.204090     -0.132823  KCAL/ANGSTROM
     12          4  C    CARTESIAN Z    -0.048630     -0.045631  KCAL/ANGSTROM
     13          5  C    CARTESIAN X    -0.671070     -0.567525  KCAL/ANGSTROM
     14          5  C    CARTESIAN Y    -1.201070     -0.021560  KCAL/ANGSTROM
     15          5  C    CARTESIAN Z    -0.383720     -0.057161  KCAL/ANGSTROM
     16          6  C    CARTESIAN X    -1.423890     -0.167410  KCAL/ANGSTROM
     17          6  C    CARTESIAN Y    -0.025370      0.118331  KCAL/ANGSTROM
     18          6  C    CARTESIAN Z    -0.387280      0.010571  KCAL/ANGSTROM
     19          7  H    CARTESIAN X     1.051980     -0.842508  KCAL/ANGSTROM
     20          7  H    CARTESIAN Y     2.132500      0.358939  KCAL/ANGSTROM
     21          7  H    CARTESIAN Z     0.607620     -0.184341  KCAL/ANGSTROM
     22          8  H    CARTESIAN X     1.246620     -0.515184  KCAL/ANGSTROM
     23          8  H    CARTESIAN Y    -2.155080     -0.130921  KCAL/ANGSTROM
     24          8  H    CARTESIAN Z    -0.065670      0.052148  KCAL/ANGSTROM
     25          9  H    CARTESIAN X    -2.494010     -0.201242  KCAL/ANGSTROM
     26          9  H    CARTESIAN Y    -0.029960      0.470766  KCAL/ANGSTROM
     27          9  H    CARTESIAN Z    -0.655830      0.167668  KCAL/ANGSTROM
     28         10  N    CARTESIAN X    -1.311230      0.475704  KCAL/ANGSTROM
     29         10  N    CARTESIAN Y    -2.450230      0.140259  KCAL/ANGSTROM
     30         10  N    CARTESIAN Z    -0.736450      0.336486  KCAL/ANGSTROM
     31         11  O    CARTESIAN X    -2.494820     -1.118134  KCAL/ANGSTROM
     32         11  O    CARTESIAN Y    -2.445170     -0.455681  KCAL/ANGSTROM
     33         11  O    CARTESIAN Z    -1.042240     -0.383465  KCAL/ANGSTROM
     34         12  O    CARTESIAN X    -0.647870     -0.026427  KCAL/ANGSTROM
     35         12  O    CARTESIAN Y    -3.477220     -0.150465  KCAL/ANGSTROM
     36         12  O    CARTESIAN Z    -0.718430     -0.069202  KCAL/ANGSTROM
     37         13  C    CARTESIAN X     2.770240     -0.328503  KCAL/ANGSTROM
     38         13  C    CARTESIAN Y     0.040190     -0.662779  KCAL/ANGSTROM
     39         13  C    CARTESIAN Z     0.707760      0.279328  KCAL/ANGSTROM
     40         14  H    CARTESIAN X     2.847630     -0.209706  KCAL/ANGSTROM
     41         14  H    CARTESIAN Y     0.522520     -0.511275  KCAL/ANGSTROM
     42         14  H    CARTESIAN Z     1.731990     -1.147212  KCAL/ANGSTROM
     43         15  C    CARTESIAN X     3.494270      0.453620  KCAL/ANGSTROM
     44         15  C    CARTESIAN Y    -1.298260      0.695242  KCAL/ANGSTROM
     45         15  C    CARTESIAN Z     0.744800      1.332245  KCAL/ANGSTROM
     46         16  H    CARTESIAN X     4.551450      0.960715  KCAL/ANGSTROM
     47         16  H    CARTESIAN Y    -1.187300      0.201437  KCAL/ANGSTROM
     48         16  H    CARTESIAN Z     1.045840     -0.424175  KCAL/ANGSTROM
     49         17  H    CARTESIAN X     3.504590      0.398489  KCAL/ANGSTROM
     50         17  H    CARTESIAN Y    -1.808250      0.423612  KCAL/ANGSTROM
     51         17  H    CARTESIAN Z    -0.230400     -0.419640  KCAL/ANGSTROM
     52         18  H    CARTESIAN X     3.044410      0.936358  KCAL/ANGSTROM
     53         18  H    CARTESIAN Y    -1.991090     -0.516185  KCAL/ANGSTROM
     54         18  H    CARTESIAN Z     1.473320     -0.221384  KCAL/ANGSTROM
     55         19  N    CARTESIAN X     3.542540     -0.228372  KCAL/ANGSTROM
     56         19  N    CARTESIAN Y     0.930880      1.231417  KCAL/ANGSTROM
     57         19  N    CARTESIAN Z    -0.235780     -2.240904  KCAL/ANGSTROM
     58         20  O    CARTESIAN X     4.737380      0.736391  KCAL/ANGSTROM
     59         20  O    CARTESIAN Y     1.072200     -0.672282  KCAL/ANGSTROM
     60         20  O    CARTESIAN Z    -0.032530      0.762893  KCAL/ANGSTROM
     61         21  O    CARTESIAN X     2.959020      1.315914  KCAL/ANGSTROM
     62         21  O    CARTESIAN Y     1.479570     -1.045418  KCAL/ANGSTROM
     63         21  O    CARTESIAN Z    -1.151420      1.721526  KCAL/ANGSTROM
     64         22  O    CARTESIAN X     2.589410     -1.305293  KCAL/ANGSTROM
     65         22  O    CARTESIAN Y     3.459650      2.791077  KCAL/ANGSTROM
     66         22  O    CARTESIAN Z     7.419310      4.294729  KCAL/ANGSTROM
     67         23  H    CARTESIAN X     2.890240     -0.119263  KCAL/ANGSTROM
     68         23  H    CARTESIAN Y     2.669930      0.724781  KCAL/ANGSTROM
     69         23  H    CARTESIAN Z     7.712630     -0.434041  KCAL/ANGSTROM
     70         24  N    CARTESIAN X    -1.524290     -0.522423  KCAL/ANGSTROM
     71         24  N    CARTESIAN Y     2.398810     -0.345552  KCAL/ANGSTROM
     72         24  N    CARTESIAN Z    -0.029550     -0.391542  KCAL/ANGSTROM
     73         25  O    CARTESIAN X    -2.701080     -0.123820  KCAL/ANGSTROM
     74         25  O    CARTESIAN Y     2.376410      0.108989  KCAL/ANGSTROM
     75         25  O    CARTESIAN Z    -0.356770     -0.078769  KCAL/ANGSTROM
     76         26  O    CARTESIAN X    -0.955150     -0.031421  KCAL/ANGSTROM
     77         26  O    CARTESIAN Y     3.429870      0.565142  KCAL/ANGSTROM
     78         26  O    CARTESIAN Z     0.296700     -0.002667  KCAL/ANGSTROM
     79         27  H    CARTESIAN X     2.399570      0.132177  KCAL/ANGSTROM
     80         27  H    CARTESIAN Y     1.768250     -0.112073  KCAL/ANGSTROM
     81         27  H    CARTESIAN Z     4.278730      1.495306  KCAL/ANGSTROM
     82         28  H    CARTESIAN X     2.913040      0.034430  KCAL/ANGSTROM
     83         28  H    CARTESIAN Y     2.351230     -1.624709  KCAL/ANGSTROM
     84         28  H    CARTESIAN Z     5.586780     -1.288478  KCAL/ANGSTROM
     85         29  O    CARTESIAN X     3.200870      1.351053  KCAL/ANGSTROM
     86         29  O    CARTESIAN Y     1.846880     -1.668343  KCAL/ANGSTROM
     87         29  O    CARTESIAN Z     4.803360     -3.222824  KCAL/ANGSTROM




   ATOM   CHEMICAL          X               Y               Z
  NUMBER   SYMBOL      (ANGSTROMS)     (ANGSTROMS)     (ANGSTROMS)

     1       C         -0.77463000  *   1.15981000  *  -0.03181000  *
     2       C          0.57960000  *   1.17834000  *   0.32139000  *
     3       C          1.31750000  *  -0.01022000  *   0.30630000  *
     4       C          0.69150000  *  -1.20409000  *  -0.04863000  *
     5       C         -0.67107000  *  -1.20107000  *  -0.38372000  *
     6       C         -1.42389000  *  -0.02537000  *  -0.38728000  *
     7       H          1.05198000  *   2.13250000  *   0.60762000  *
     8       H          1.24662000  *  -2.15508000  *  -0.06567000  *
     9       H         -2.49401000  *  -0.02996000  *  -0.65583000  *
    10       N         -1.31123000  *  -2.45023000  *  -0.73645000  *
    11       O         -2.49482000  *  -2.44517000  *  -1.04224000  *
    12       O         -0.64787000  *  -3.47722000  *  -0.71843000  *
    13       C          2.77024000  *   0.04019000  *   0.70776000  *
    14       H          2.84763000  *   0.52252000  *   1.73199000  *
    15       C          3.49427000  *  -1.29826000  *   0.74480000  *
    16       H          4.55145000  *  -1.18730000  *   1.04584000  *
    17       H          3.50459000  *  -1.80825000  *  -0.23040000  *
    18       H          3.04441000  *  -1.99109000  *   1.47332000  *
    19       N          3.54254000  *   0.93088000  *  -0.23578000  *
    20       O          4.73738000  *   1.07220000  *  -0.03253000  *
    21       O          2.95902000  *   1.47957000  *  -1.15142000  *
    22       O          2.58941000  *   3.45965000  *   7.41931000  *
    23       H          2.89024000  *   2.66993000  *   7.71263000  *
    24       N         -1.52429000  *   2.39881000  *  -0.02955000  *
    25       O         -2.70108000  *   2.37641000  *  -0.35677000  *
    26       O         -0.95515000  *   3.42987000  *   0.29670000  *
    27       H          2.39957000  *   1.76825000  *   4.27873000  *
    28       H          2.91304000  *   2.35123000  *   5.58678000  *
    29       O          3.20087000  *   1.84688000  *   4.80336000  *

                             CARTESIAN COORDINATES

   1    C       -0.774630000     1.159810000    -0.031810000
   2    C        0.579600000     1.178340000     0.321390000
   3    C        1.317500000    -0.010220000     0.306300000
   4    C        0.691500000    -1.204090000    -0.048630000
   5    C       -0.671070000    -1.201070000    -0.383720000
   6    C       -1.423890000    -0.025370000    -0.387280000
   7    H        1.051980000     2.132500000     0.607620000
   8    H        1.246620000    -2.155080000    -0.065670000
   9    H       -2.494010000    -0.029960000    -0.655830000
  10    N       -1.311230000    -2.450230000    -0.736450000
  11    O       -2.494820000    -2.445170000    -1.042240000
  12    O       -0.647870000    -3.477220000    -0.718430000
  13    C        2.770240000     0.040190000     0.707760000
  14    H        2.847630000     0.522520000     1.731990000
  15    C        3.494270000    -1.298260000     0.744800000
  16    H        4.551450000    -1.187300000     1.045840000
  17    H        3.504590000    -1.808250000    -0.230400000
  18    H        3.044410000    -1.991090000     1.473320000
  19    N        3.542540000     0.930880000    -0.235780000
  20    O        4.737380000     1.072200000    -0.032530000
  21    O        2.959020000     1.479570000    -1.151420000
  22    O        2.589410000     3.459650000     7.419310000
  23    H        2.890240000     2.669930000     7.712630000
  24    N       -1.524290000     2.398810000    -0.029550000
  25    O       -2.701080000     2.376410000    -0.356770000
  26    O       -0.955150000     3.429870000     0.296700000
  27    H        2.399570000     1.768250000     4.278730000
  28    H        2.913040000     2.351230000     5.586780000
  29    O        3.200870000     1.846880000     4.803360000


           Empirical Formula: C8 H10 N3 O8  =    29 atoms



      MOLECULAR POINT GROUP   :   C1  


                  EIGENVALUES  
 -37.75085 -37.68819 -37.59387 -32.23618 -31.16497 -31.11079 -31.06523 -29.67428
 -29.11873 -28.49298 -27.15212 -25.66103 -25.55760 -24.68999 -24.59465 -22.93465
 -21.80105 -21.02386 -19.94013 -18.87622 -18.74548 -18.37690 -18.09373 -17.94297
 -17.81299 -17.68675 -17.60145 -17.52199 -17.33981 -16.44385 -15.83745 -14.63096
 -14.40266 -14.35330 -14.12347 -13.88155 -13.60943 -13.15884 -13.02881 -12.33735
 -12.07520 -12.07204 -12.06436 -12.04093 -12.00607 -11.99675 -11.94463 -11.79700
 -11.70011 -11.30072 -11.03275 -10.27683 -10.25856  -1.93033  -1.64226  -0.56574
  -0.52840   0.09555   0.12460   0.23142   0.30057   1.30358   2.04933   2.66592
   2.88125   2.97076   3.11205   3.36819   3.51366   3.58754   3.76300   3.97022
   3.99220   4.20349   4.39945   4.40960   4.43050   4.50701   4.87826   4.97488
   5.03301   5.24140   5.28729   6.47414   6.61682   8.18953


              NET ATOMIC CHARGES AND DIPOLE CONTRIBUTIONS

  ATOM NO.   TYPE          CHARGE      No. of ELECS.   s-Pop       p-Pop       
    1          C          -0.099885        4.0999     1.06652     3.03337
    2          C           0.009543        3.9905     1.10587     2.88459
    3          C          -0.089197        4.0892     1.06319     3.02601
    4          C           0.011544        3.9885     1.10523     2.88323
    5          C          -0.103688        4.1037     1.06782     3.03587
    6          C           0.017679        3.9823     1.10438     2.87795
    7          H           0.216064        0.7839     0.78394
    8          H           0.208003        0.7920     0.79200
    9          H           0.223361        0.7766     0.77664
   10          N           0.677556        4.3224     1.44382     2.87863
   11          O          -0.439747        6.4397     1.94089     4.49886
   12          O          -0.448239        6.4482     1.94085     4.50739
   13          C          -0.019661        4.0197     1.09170     2.92796
   14          H           0.213678        0.7863     0.78632
   15          C          -0.484142        4.4841     1.05854     3.42560
   16          H           0.189912        0.8101     0.81009
   17          H           0.179863        0.8201     0.82014
   18          H           0.193373        0.8066     0.80663
   19          N           0.620247        4.3798     1.47837     2.90138
   20          O          -0.441651        6.4417     1.93982     4.50184
   21          O          -0.435971        6.4360     1.93895     4.49702
   22          O          -1.321567        7.3216     1.87345     5.44812
   23          H           0.329637        0.6704     0.67036
   24          N           0.683280        4.3167     1.44207     2.87465
   25          O          -0.443446        6.4434     1.94065     4.50280
   26          O          -0.438449        6.4384     1.94063     4.49782
   27          H           0.368242        0.6318     0.63176
   28          H           0.383105        0.6169     0.61689
   29          O          -0.759444        6.7594     1.81766     4.94179
 DIPOLE           X         Y         Z       TOTAL
 POINT-CHG.    -6.508   -18.111   -26.418    32.685
 HYBRID        -0.577     0.018    -0.487     0.755
 SUM           -7.085   -18.093   -26.905    33.188


          ATOMIC ORBITAL ELECTRON POPULATIONS

     Atom    s        px        py        pz   
    1  C   1.06652   0.97966   0.89862   1.15508
    2  C   1.10587   0.96041   1.07002   0.85416
    3  C   1.06319   0.97928   0.97976   1.06697
    4  C   1.10523   0.97247   1.07538   0.83538
    5  C   1.06782   0.99102   0.89633   1.14852
    6  C   1.10438   1.09260   0.93969   0.84565
    7  H   0.78394
    8  H   0.79200
    9  H   0.77664
   10  N   1.44382   0.96393   0.99560   0.91910
   11  O   1.94089   1.03791   1.92199   1.53896
   12  O   1.94085   1.62062   1.28732   1.59946
   13  C   1.09170   0.92405   0.98482   1.01908
   14  H   0.78632
   15  C   1.05854   1.16838   1.03651   1.22071
   16  H   0.81009
   17  H   0.82014
   18  H   0.80663
   19  N   1.47837   0.97723   0.95295   0.97120
   20  O   1.93982   1.03960   1.69147   1.77077
   21  O   1.93895   1.68325   1.52257   1.29120
   22  O   1.87345   1.93817   1.57267   1.93728
   23  H   0.67036
   24  N   1.44207   0.96611   0.99231   0.91622
   25  O   1.94065   1.04975   1.91905   1.53400
   26  O   1.94063   1.68939   1.27419   1.53424
   27  H   0.63176
   28  H   0.61689
   29  O   1.81766   1.53297   1.85884   1.54997

          BONDING CONTRIBUTION OF EACH M.O.

  1.3519  1.3496  1.3152  1.8598  1.0327  1.0011  0.9910  1.6955  1.1271  1.4438
  1.3822  1.2398  1.1883  1.1474  1.0874  1.5646  1.2834  1.3647  1.4596  1.3062
  1.4220  1.2136  1.3679  1.5740  1.6456  1.5177  1.7308  1.6327  1.7065  1.8374
  1.8994  1.8542  0.6610  1.8663  1.9233  1.7966  1.9278  0.6999  1.8724  0.0002
  0.8064  0.8632  0.8644  0.4612  0.3225  0.2856  0.5696  0.6550  0.8625  1.7909
  1.8442  0.0000  0.0242 -2.0366 -2.0344 -2.3824 -2.1836 -2.1664 -2.2428 -2.1040
 -2.0941 -2.0040 -1.9611 -1.9717 -1.9633 -1.9777 -1.9715 -1.9901 -1.9726 -2.0125
 -2.0523 -2.0130 -1.9845 -1.9287 -1.9523 -1.8837 -1.9350 -1.8248 -1.9155 -1.9281
 -1.9324 -1.9446 -1.9518 -1.8806 -1.7205 -1.7739





            (VALENCIES)   BOND ORDERS

     1  C     (3.941)     6  C 1.395     2  C 1.384    24  N 0.899     4  C 0.094    26  O 0.072    25  O 0.071

     2  C     (3.921)     3  C 1.417     1  C 1.384     7  H 0.938     5  C 0.095    25  O 0.017     4  C 0.013
                         26  O 0.011

     3  C     (3.988)     4  C 1.435     2  C 1.417    13  C 0.998     6  C 0.096

     4  C     (3.924)     3  C 1.435     5  C 1.369     8  H 0.939     1  C 0.094    11  O 0.017     2  C 0.013
                         12  O 0.010

     5  C     (3.937)     6  C 1.407     4  C 1.369    10  N 0.900     2  C 0.095    11  O 0.071    12  O 0.070

     6  C     (3.918)     5  C 1.407     1  C 1.395     9  H 0.933     3  C 0.096    12  O 0.018    26  O 0.018
                         11  O 0.012    25  O 0.011

     7  H     (0.953)     2  C 0.938

     8  H     (0.957)     4  C 0.939

     9  H     (0.950)     6  C 0.933

    10  N     (3.788)    11  O 1.433    12  O 1.428     5  C 0.900

    11  O     (1.831)    10  N 1.433    12  O 0.290     5  C 0.071     4  C 0.017     6  C 0.012

    12  O     (1.825)    10  N 1.428    11  O 0.290     5  C 0.070     6  C 0.018     4  C 0.010

    13  C     (3.912)     3  C 0.998    15  C 0.998    14  H 0.925    19  N 0.817    21  O 0.075    20  O 0.072

    14  H     (0.954)    13  C 0.925

    15  C     (3.887)    13  C 0.998    17  H 0.957    16  H 0.951    18  H 0.947

    16  H     (0.964)    15  C 0.951

    17  H     (0.968)    15  C 0.957

    18  H     (0.963)    15  C 0.947

    19  N     (3.745)    21  O 1.452    20  O 1.443    13  C 0.817

    20  O     (1.839)    19  N 1.443    21  O 0.301    13  C 0.072

    21  O     (1.850)    19  N 1.452    20  O 0.301    13  C 0.075

    22  O     (0.906)    23  H 0.890    28  H 0.010

    23  H     (0.891)    22  O 0.890

    24  N     (3.790)    26  O 1.432    25  O 1.431     1  C 0.899

    25  O     (1.830)    24  N 1.431    26  O 0.290     1  C 0.071     2  C 0.017     6  C 0.011

    26  O     (1.831)    24  N 1.432    25  O 0.290     1  C 0.072     6  C 0.018     2  C 0.011

    27  H     (0.864)    29  O 0.863

    28  H     (0.853)    29  O 0.840    22  O 0.010

    29  O     (1.709)    27  H 0.863    28  H 0.840


 **********************
 *                    *
 * JOB ENDED NORMALLY *
 *                    *
 **********************



 TOTAL JOB TIME:             0.67 SECONDS

 == MOPAC DONE ==
