 *******************************************************************************
 **                                                                           **
 **                              MOPAC v22.1.0                                **
 **                                                                           **
 *******************************************************************************
 **          Digital Object Identifier (DOI): 10.5281/zenodo.6511958          **
 **    Visit the DOI location for information on how to cite this program.    **
 *******************************************************************************

                              PM7 CALCULATION RESULTS

 *******************************************************************************
 *  CALCULATION DONE:                                Sat Mar 23 21:53:01 2024  *
 *  PM7        - The PM7 Hamiltonian to be used
 *  SINGLET    - SPIN STATE DEFINED AS A SINGLET
 *
 *
 *
 *                 CHARGE ON SYSTEM = -1
 *
 *
 *
 *  EPS=78.4   - USE ANDREAS KLAMT'S COSMO IMPLICIT SOLVATION MODEL
 *  THREADS    - USE A MAXIMUM OF 40 THREADS
 *  T=         - A TIME OF 14.0 DAYS REQUESTED
 *  DUMP=N     - RESTART FILE WRITTEN EVERY 30.0 MINUTES REQUESTED
 *  ITRY=      - DO A MAXIMUM OF 15000 ITERATIONS FOR SCF
 *  AUX        - OUTPUT AUXILIARY INFORMATION
 *  PL         - MONITOR CONVERGENCE IN DENSITY MATRIX
 *******************************************************************************
PM7 CHARGE=-1 SINGLET AUX DUMP=30M ITRY=15000 eps=78.4 T=14D PL THREADS=40

 Mopac file generated by Gabedit
   ATOM   CHEMICAL          X               Y               Z
  NUMBER   SYMBOL      (ANGSTROMS)     (ANGSTROMS)     (ANGSTROMS)

     1       C         -0.76846000  *   1.17204000  *  -0.02419000  *
     2       C          0.57863000  *   1.18404000  *   0.33181000  *
     3       C          1.32765000  *   0.00015000  *   0.32820000  *
     4       C          0.71456000  *  -1.20045000  *  -0.01999000  *
     5       C         -0.64112000  *  -1.20021000  *  -0.36018000  *
     6       C         -1.39269000  *  -0.02096000  *  -0.37791000  *
     7       H         -1.34003000  *   2.10448000  *  -0.03517000  *
     8       H          1.05291000  *   2.13189000  *   0.60680000  *
     9       H          1.26227000  *  -2.15220000  *  -0.03521000  *
    10       H         -2.44892000  *  -0.03736000  *  -0.66450000  *
    11       N         -1.25596000  *  -2.45669000  *  -0.70862000  *
    12       O         -2.43864000  *  -2.47932000  *  -1.01748000  *
    13       O         -0.57948000  *  -3.47669000  *  -0.68282000  *
    14       C          2.78302000  *   0.03241000  *   0.71122000  *
    15       H          2.89922000  *   0.49279000  *   1.74246000  *
    16       C          3.41897000  *  -1.35279000  *   0.68886000  *
    17       H          4.47850000  *  -1.35267000  *   0.97591000  *
    18       H          3.35891000  *  -1.82432000  *  -0.30637000  *
    19       H          2.90498000  *  -2.02725000  *   1.39639000  *
    20       N          3.54748000  *   0.93078000  *  -0.22537000  *
    21       O          4.74140000  *   1.08316000  *  -0.02379000  *
    22       O          2.96152000  *   1.49745000  *  -1.13166000  *
    23       O          2.63329000  *   2.32925100  *   5.44994100  *
    24       H          2.98898000  *   1.74650100  *   6.02560100  *
    25       H          2.24514200  *   0.90321800  *   3.19319300  *
    26       H          3.40359800  *   1.25003700  *   3.12503000  *
    27       O          2.87052500  *   1.03387800  *   3.22381800  *



          CARTESIAN COORDINATES 

    NO.       ATOM           X           Y           Z

     1         C         -0.7685      1.1720     -0.0242
     2         C          0.5786      1.1840      0.3318
     3         C          1.3276      0.0002      0.3282
     4         C          0.7146     -1.2005     -0.0200
     5         C         -0.6411     -1.2002     -0.3602
     6         C         -1.3927     -0.0210     -0.3779
     7         H         -1.3400      2.1045     -0.0352
     8         H          1.0529      2.1319      0.6068
     9         H          1.2623     -2.1522     -0.0352
    10         H         -2.4489     -0.0374     -0.6645
    11         N         -1.2560     -2.4567     -0.7086
    12         O         -2.4386     -2.4793     -1.0175
    13         O         -0.5795     -3.4767     -0.6828
    14         C          2.7830      0.0324      0.7112
    15         H          2.8992      0.4928      1.7425
    16         C          3.4190     -1.3528      0.6889
    17         H          4.4785     -1.3527      0.9759
    18         H          3.3589     -1.8243     -0.3064
    19         H          2.9050     -2.0272      1.3964
    20         N          3.5475      0.9308     -0.2254
    21         O          4.7414      1.0832     -0.0238
    22         O          2.9615      1.4974     -1.1317
    23         O          2.6333      2.3293      5.4499
    24         H          2.9890      1.7465      6.0256
    25         H          2.2451      0.9032      3.1932
    26         H          3.4036      1.2500      3.1250
    27         O          2.8705      1.0339      3.2238

 General Reference for PM7:
 "Optimization of Parameters for Semiempirical Methods VI: More Modifications to the 
 NDDO Approximations and Re-optimization of Parameters", J. J. P. Stewart, J. Mol. Mod., 1:32, 19 (2013)
 https://link.springer.com/article/10.1007/s00894-012-1667-x

           Empirical Formula: C8 H11 N2 O6  =    27 atoms



      MOLECULAR POINT GROUP   :   C1  


 SINGLET STATE CALCULATION


      RHF CALCULATION, NO. OF DOUBLY OCCUPIED LEVELS = 45


          Geometry optimization using EF
 ITERATION   1 PLS= 0.100E+01 0.000E+00 ENERGY    13593.142246 DELTAE    0.0000000
 ITERATION   2 PLS= 0.119E+01 0.000E+00 ENERGY      407.864935 DELTAE    0.0000000
 ITERATION   3 PLS= 0.117E+00 0.000E+00 ENERGY      205.987352 DELTAE -201.8775834
 ITERATION   4 PLS= 0.761E-01 0.000E+00 ENERGY      -83.510020 DELTAE -289.4973718
 ITERATION   5 PLS= 0.287E-01 0.000E+00 ENERGY       67.309510 DELTAE  150.8195297
 ITERATION   6 PLS= 0.176E-01 0.000E+00 ENERGY       62.035807 DELTAE   -5.2737028
 ITERATION   7 PLS= 0.350E-01 0.000E+00 ENERGY       28.116354 DELTAE  -33.9194525
 ITERATION   8 PLS= 0.225E-01 0.000E+00 ENERGY       53.759105 DELTAE   25.6427503
 ITERATION   9 PLS= 0.785E-02 0.000E+00 ENERGY       53.238903 DELTAE   -0.5202019
 ITERATION  10 PLS= 0.355E-02 0.000E+00 ENERGY       52.969682 DELTAE   -0.2692206
 ITERATION  11 PLS= 0.822E-03 0.000E+00 ENERGY       53.106694 DELTAE    0.1370123
 ITERATION  12 PLS= 0.423E-03 0.000E+00 ENERGY       53.106005 DELTAE   -0.0006896
 ITERATION  13 PLS= 0.278E-03 0.000E+00 ENERGY       53.105434 DELTAE   -0.0005705
 ITERATION  14 PLS= 0.108E-03 0.000E+00 ENERGY       53.105757 DELTAE    0.0003226
 ITERATION   1 PLS= 0.773E-04 0.000E+00 ENERGY      -44.493591 DELTAE -144.4935914
 ITERATION   2 PLS= 0.273E-01 0.000E+00 ENERGY      -46.325877 DELTAE   -1.8322856
 ITERATION   3 PLS= 0.106E-01 0.000E+00 ENERGY      -46.646789 DELTAE   -0.3209116
 ITERATION   4 PLS= 0.496E-02 0.000E+00 ENERGY      -46.901326 DELTAE   -0.2545373
 ITERATION   5 PLS= 0.146E-02 0.000E+00 ENERGY      -46.774845 DELTAE    0.1264810
 ITERATION   6 PLS= 0.106E-02 0.000E+00 ENERGY      -46.776388 DELTAE   -0.0015430
 ITERATION   7 PLS= 0.797E-03 0.000E+00 ENERGY      -46.783704 DELTAE   -0.0073163
 ITERATION   8 PLS= 0.101E-03 0.000E+00 ENERGY      -46.778191 DELTAE    0.0055137

          DIAGONAL MATRIX USED AS START HESSIAN

 CYCLE:     1 TIME:   0.195 TIME LEFT:  2.00W  GRAD.:  2151.410 HEAT: -46.77821
 ITERATION   1 PLS= 0.738E-04 0.000E+00 ENERGY     -102.085601 DELTAE -202.0856014
 ITERATION   2 PLS= 0.836E-01 0.000E+00 ENERGY     -118.826357 DELTAE  -16.7407553
 ITERATION   3 PLS= 0.181E-01 0.000E+00 ENERGY     -119.988430 DELTAE   -1.1620736
 ITERATION   4 PLS= 0.519E-02 0.000E+00 ENERGY     -120.151537 DELTAE   -0.1631070
 ITERATION   5 PLS= 0.600E-03 0.000E+00 ENERGY     -120.107603 DELTAE    0.0439343
 CYCLE:     2 TIME:   0.078 TIME LEFT:  2.00W  GRAD.:  1386.461 HEAT: -120.1078
 ITERATION   1 PLS= 0.169E-03 0.000E+00 ENERGY     -162.521228 DELTAE -262.5212281
 ITERATION   2 PLS= 0.107E+00 0.000E+00 ENERGY     -176.319386 DELTAE  -13.7981577
 ITERATION   3 PLS= 0.311E-01 0.000E+00 ENERGY     -177.670897 DELTAE   -1.3515114
 ITERATION   4 PLS= 0.107E-01 0.000E+00 ENERGY     -178.010810 DELTAE   -0.3399128
 ITERATION   5 PLS= 0.145E-02 0.000E+00 ENERGY     -177.919210 DELTAE    0.0915997
 CYCLE:     3 TIME:   0.086 TIME LEFT:  2.00W  GRAD.:    54.032 HEAT: -177.9218
 ITERATION   1 PLS= 0.609E-03 0.000E+00 ENERGY     -174.323539 DELTAE -274.3235394
 ITERATION   2 PLS= 0.301E-01 0.000E+00 ENERGY     -180.282482 DELTAE   -5.9589430
 ITERATION   3 PLS= 0.147E-01 0.000E+00 ENERGY     -181.542566 DELTAE   -1.2600832
 ITERATION   4 PLS= 0.724E-02 0.000E+00 ENERGY     -182.542582 DELTAE   -1.0000159
 ITERATION   5 PLS= 0.146E-02 0.000E+00 ENERGY     -181.991411 DELTAE    0.5511710
 ITERATION   6 PLS= 0.587E-03 0.000E+00 ENERGY     -181.992810 DELTAE   -0.0013991
 CYCLE:     4 TIME:   0.047 TIME LEFT:  2.00W  GRAD.:    89.796 HEAT: -181.9938
 ITERATION   1 PLS= 0.235E-03 0.000E+00 ENERGY     -176.968659 DELTAE -276.9686592
 ITERATION   2 PLS= 0.588E-01 0.000E+00 ENERGY     -187.701296 DELTAE  -10.7326372
 ITERATION   3 PLS= 0.289E-01 0.000E+00 ENERGY     -190.395773 DELTAE   -2.6944766
 ITERATION   4 PLS= 0.156E-01 0.000E+00 ENERGY     -193.521228 DELTAE   -3.1254549
 ITERATION   5 PLS= 0.457E-02 0.000E+00 ENERGY     -191.670561 DELTAE    1.8506666
 ITERATION   6 PLS= 0.191E-02 0.000E+00 ENERGY     -191.675696 DELTAE   -0.0051348
 CYCLE:     5 TIME:   0.062 TIME LEFT:  2.00W  GRAD.:    77.533 HEAT: -191.6785
 ITERATION   1 PLS= 0.839E-03 0.000E+00 ENERGY     -158.899199 DELTAE -258.8991995
 ITERATION   2 PLS= 0.840E-01 0.000E+00 ENERGY     -179.786877 DELTAE  -20.8876774
 ITERATION   3 PLS= 0.413E-01 0.000E+00 ENERGY     -183.790034 DELTAE   -4.0031575
 ITERATION   4 PLS= 0.255E-01 0.000E+00 ENERGY     -187.379113 DELTAE   -3.5890787
 ITERATION   5 PLS= 0.650E-02 0.000E+00 ENERGY     -185.373673 DELTAE    2.0054402
 ITERATION   6 PLS= 0.280E-02 0.000E+00 ENERGY     -185.380210 DELTAE   -0.0065369
 ITERATION   1 PLS= 0.128E-02 0.000E+00 ENERGY     -189.445216 DELTAE -289.4452160
 ITERATION   2 PLS= 0.329E-01 0.000E+00 ENERGY     -193.659011 DELTAE   -4.2137950
 ITERATION   3 PLS= 0.171E-01 0.000E+00 ENERGY     -194.432294 DELTAE   -0.7732828
 ITERATION   4 PLS= 0.100E-01 0.000E+00 ENERGY     -195.036614 DELTAE   -0.6043197
 ITERATION   5 PLS= 0.321E-02 0.000E+00 ENERGY     -194.730283 DELTAE    0.3063306
 ITERATION   6 PLS= 0.153E-02 0.000E+00 ENERGY     -194.732610 DELTAE   -0.0023267
 CYCLE:     6 TIME:   0.156 TIME LEFT:  2.00W  GRAD.:   109.869 HEAT: -194.7350
 ITERATION   1 PLS= 0.760E-03 0.000E+00 ENERGY     -184.690386 DELTAE -284.6903860
 ITERATION   2 PLS= 0.291E-01 0.000E+00 ENERGY     -192.501974 DELTAE   -7.8115882
 ITERATION   3 PLS= 0.162E-01 0.000E+00 ENERGY     -193.516752 DELTAE   -1.0147778
 ITERATION   4 PLS= 0.944E-02 0.000E+00 ENERGY     -194.122899 DELTAE   -0.6061469
 ITERATION   5 PLS= 0.167E-02 0.000E+00 ENERGY     -193.827682 DELTAE    0.2952168
 ITERATION   6 PLS= 0.832E-03 0.000E+00 ENERGY     -193.829246 DELTAE   -0.0015643
 ITERATION   1 PLS= 0.472E-03 0.000E+00 ENERGY     -195.351198 DELTAE -295.3511976
 ITERATION   2 PLS= 0.160E-01 0.000E+00 ENERGY     -196.924813 DELTAE   -1.5736159
 ITERATION   3 PLS= 0.942E-02 0.000E+00 ENERGY     -197.195070 DELTAE   -0.2702569
 ITERATION   4 PLS= 0.542E-02 0.000E+00 ENERGY     -197.383678 DELTAE   -0.1886078
 ITERATION   5 PLS= 0.121E-02 0.000E+00 ENERGY     -197.286882 DELTAE    0.0967962
 CYCLE:     7 TIME:   0.156 TIME LEFT:  2.00W  GRAD.:    67.032 HEAT: -197.2874
 ITERATION   1 PLS= 0.587E-03 0.000E+00 ENERGY     -194.634915 DELTAE -294.6349152
 ITERATION   2 PLS= 0.284E-01 0.000E+00 ENERGY     -197.433724 DELTAE   -2.7988086
 ITERATION   3 PLS= 0.151E-01 0.000E+00 ENERGY     -198.028334 DELTAE   -0.5946104
 ITERATION   4 PLS= 0.813E-02 0.000E+00 ENERGY     -198.483857 DELTAE   -0.4555230
 ITERATION   5 PLS= 0.137E-02 0.000E+00 ENERGY     -198.246603 DELTAE    0.2372541
 ITERATION   6 PLS= 0.676E-03 0.000E+00 ENERGY     -198.247764 DELTAE   -0.0011610
 CYCLE:     8 TIME:   0.078 TIME LEFT:  2.00W  GRAD.:    61.377 HEAT: -198.2493
 ITERATION   1 PLS= 0.364E-03 0.000E+00 ENERGY     -197.850415 DELTAE -297.8504150
 ITERATION   2 PLS= 0.228E-01 0.000E+00 ENERGY     -200.290787 DELTAE   -2.4403722
 ITERATION   3 PLS= 0.121E-01 0.000E+00 ENERGY     -200.788517 DELTAE   -0.4977300
 ITERATION   4 PLS= 0.645E-02 0.000E+00 ENERGY     -201.110041 DELTAE   -0.3215240
 ITERATION   5 PLS= 0.471E-03 0.000E+00 ENERGY     -200.951528 DELTAE    0.1585130
 ITERATION   6 PLS= 0.273E-03 0.000E+00 ENERGY     -200.951874 DELTAE   -0.0003463
 CYCLE:     9 TIME:   0.078 TIME LEFT:  2.00W  GRAD.:    46.771 HEAT: -200.9524
 ITERATION   1 PLS= 0.175E-03 0.000E+00 ENERGY     -197.388503 DELTAE -297.3885029
 ITERATION   2 PLS= 0.337E-01 0.000E+00 ENERGY     -201.257245 DELTAE   -3.8687425
 ITERATION   3 PLS= 0.190E-01 0.000E+00 ENERGY     -202.078276 DELTAE   -0.8210304
 ITERATION   4 PLS= 0.106E-01 0.000E+00 ENERGY     -202.686170 DELTAE   -0.6078943
 ITERATION   5 PLS= 0.145E-02 0.000E+00 ENERGY     -202.359140 DELTAE    0.3270307
 ITERATION   6 PLS= 0.686E-03 0.000E+00 ENERGY     -202.359876 DELTAE   -0.0007369
 CYCLE:    10 TIME:   0.070 TIME LEFT:  2.00W  GRAD.:    69.065 HEAT: -202.3606
 ITERATION   1 PLS= 0.335E-03 0.000E+00 ENERGY     -197.820837 DELTAE -297.8208368
 ITERATION   2 PLS= 0.207E-01 0.000E+00 ENERGY     -202.738177 DELTAE   -4.9173402
 ITERATION   3 PLS= 0.938E-02 0.000E+00 ENERGY     -203.884763 DELTAE   -1.1465857
 ITERATION   4 PLS= 0.458E-02 0.000E+00 ENERGY     -204.624846 DELTAE   -0.7400831
 ITERATION   5 PLS= 0.712E-03 0.000E+00 ENERGY     -204.279157 DELTAE    0.3456892
 ITERATION   6 PLS= 0.506E-03 0.000E+00 ENERGY     -204.279840 DELTAE   -0.0006839
 CYCLE:    11 TIME:   0.086 TIME LEFT:  2.00W  GRAD.:    71.318 HEAT: -204.2818
 ITERATION   1 PLS= 0.368E-03 0.000E+00 ENERGY     -190.135494 DELTAE -290.1354937
 ITERATION   2 PLS= 0.159E-01 0.000E+00 ENERGY     -201.312517 DELTAE  -11.1770230
 ITERATION   3 PLS= 0.102E-01 0.000E+00 ENERGY     -203.774398 DELTAE   -2.4618816
 ITERATION   4 PLS= 0.614E-02 0.000E+00 ENERGY     -205.809439 DELTAE   -2.0350405
 ITERATION   5 PLS= 0.151E-02 0.000E+00 ENERGY     -204.585949 DELTAE    1.2234903
 ITERATION   6 PLS= 0.114E-02 0.000E+00 ENERGY     -204.591690 DELTAE   -0.0057416
 ITERATION   7 PLS= 0.857E-03 0.000E+00 ENERGY     -204.602158 DELTAE   -0.0104677
 CYCLE:    12 TIME:   0.086 TIME LEFT:  2.00W  GRAD.:   135.405 HEAT: -204.5946
 ITERATION   1 PLS= 0.219E-03 0.000E+00 ENERGY     -201.937429 DELTAE -301.9374285
 ITERATION   2 PLS= 0.161E-01 0.000E+00 ENERGY     -205.813705 DELTAE   -3.8762769
 ITERATION   3 PLS= 0.902E-02 0.000E+00 ENERGY     -206.412572 DELTAE   -0.5988664
 ITERATION   4 PLS= 0.474E-02 0.000E+00 ENERGY     -206.770577 DELTAE   -0.3580050
 ITERATION   5 PLS= 0.142E-02 0.000E+00 ENERGY     -206.578077 DELTAE    0.1925002
 ITERATION   6 PLS= 0.979E-03 0.000E+00 ENERGY     -206.579897 DELTAE   -0.0018205
 CYCLE:    13 TIME:   0.078 TIME LEFT:  2.00W  GRAD.:    93.980 HEAT: -206.5858
 ITERATION   1 PLS= 0.745E-03 0.000E+00 ENERGY     -197.155336 DELTAE -297.1553359
 ITERATION   2 PLS= 0.307E-01 0.000E+00 ENERGY     -204.618490 DELTAE   -7.4631539
 ITERATION   3 PLS= 0.180E-01 0.000E+00 ENERGY     -205.913839 DELTAE   -1.2953492
 ITERATION   4 PLS= 0.978E-02 0.000E+00 ENERGY     -206.784861 DELTAE   -0.8710225
 ITERATION   5 PLS= 0.148E-02 0.000E+00 ENERGY     -206.325169 DELTAE    0.4596925
 ITERATION   6 PLS= 0.796E-03 0.000E+00 ENERGY     -206.327728 DELTAE   -0.0025589
 ITERATION   1 PLS= 0.590E-03 0.000E+00 ENERGY     -205.119196 DELTAE -305.1191965
 ITERATION   2 PLS= 0.252E-01 0.000E+00 ENERGY     -206.637900 DELTAE   -1.5187037
 ITERATION   3 PLS= 0.117E-01 0.000E+00 ENERGY     -206.963655 DELTAE   -0.3257548
 ITERATION   4 PLS= 0.559E-02 0.000E+00 ENERGY     -207.157036 DELTAE   -0.1933813
 ITERATION   5 PLS= 0.510E-03 0.000E+00 ENERGY     -207.066987 DELTAE    0.0900496
 CYCLE:    14 TIME:   0.156 TIME LEFT:  2.00W  GRAD.:    89.234 HEAT: -207.0672
 ITERATION   1 PLS= 0.319E-03 0.000E+00 ENERGY     -204.604004 DELTAE -304.6040041
 ITERATION   2 PLS= 0.118E-01 0.000E+00 ENERGY     -207.325582 DELTAE   -2.7215782
 ITERATION   3 PLS= 0.630E-02 0.000E+00 ENERGY     -207.837864 DELTAE   -0.5122817
 ITERATION   4 PLS= 0.326E-02 0.000E+00 ENERGY     -208.254941 DELTAE   -0.4170765
 ITERATION   5 PLS= 0.164E-02 0.000E+00 ENERGY     -208.024953 DELTAE    0.2299871
 ITERATION   6 PLS= 0.119E-02 0.000E+00 ENERGY     -208.027685 DELTAE   -0.0027320
 ITERATION   7 PLS= 0.894E-03 0.000E+00 ENERGY     -208.038398 DELTAE   -0.0107130
 CYCLE:    15 TIME:   0.062 TIME LEFT:  2.00W  GRAD.:    57.652 HEAT: -208.0304
 ITERATION   1 PLS= 0.910E-04 0.000E+00 ENERGY     -203.184997 DELTAE -303.1849966
 ITERATION   2 PLS= 0.246E-01 0.000E+00 ENERGY     -206.599264 DELTAE   -3.4142675
 ITERATION   3 PLS= 0.103E-01 0.000E+00 ENERGY     -207.136470 DELTAE   -0.5372054
 ITERATION   4 PLS= 0.607E-02 0.000E+00 ENERGY     -207.476543 DELTAE   -0.3400736
 ITERATION   5 PLS= 0.125E-02 0.000E+00 ENERGY     -207.301716 DELTAE    0.1748267
 ITERATION   6 PLS= 0.607E-03 0.000E+00 ENERGY     -207.302739 DELTAE   -0.0010226
 ITERATION   1 PLS= 0.371E-03 0.000E+00 ENERGY     -207.716483 DELTAE -307.7164827
 ITERATION   2 PLS= 0.132E-01 0.000E+00 ENERGY     -208.641245 DELTAE   -0.9247620
 ITERATION   3 PLS= 0.605E-02 0.000E+00 ENERGY     -208.808962 DELTAE   -0.1677173
 ITERATION   4 PLS= 0.347E-02 0.000E+00 ENERGY     -208.920979 DELTAE   -0.1120172
 ITERATION   5 PLS= 0.701E-03 0.000E+00 ENERGY     -208.862391 DELTAE    0.0585882
 CYCLE:    16 TIME:   0.156 TIME LEFT:  2.00W  GRAD.:    36.155 HEAT: -208.8626
 ITERATION   1 PLS= 0.339E-03 0.000E+00 ENERGY     -207.946447 DELTAE -307.9464469
 ITERATION   2 PLS= 0.109E-01 0.000E+00 ENERGY     -208.859718 DELTAE   -0.9132713
 ITERATION   3 PLS= 0.558E-02 0.000E+00 ENERGY     -209.002740 DELTAE   -0.1430215
 ITERATION   4 PLS= 0.279E-02 0.000E+00 ENERGY     -209.086745 DELTAE   -0.0840053
 ITERATION   5 PLS= 0.244E-03 0.000E+00 ENERGY     -209.045788 DELTAE    0.0409569
 CYCLE:    17 TIME:   0.070 TIME LEFT:  2.00W  GRAD.:    44.159 HEAT: -209.0460
 ITERATION   1 PLS= 0.174E-03 0.000E+00 ENERGY     -208.105115 DELTAE -308.1051146
 ITERATION   2 PLS= 0.127E-01 0.000E+00 ENERGY     -209.186684 DELTAE   -1.0815697
 ITERATION   3 PLS= 0.664E-02 0.000E+00 ENERGY     -209.357787 DELTAE   -0.1711025
 ITERATION   4 PLS= 0.339E-02 0.000E+00 ENERGY     -209.463368 DELTAE   -0.1055807
 ITERATION   5 PLS= 0.473E-03 0.000E+00 ENERGY     -209.410736 DELTAE    0.0526316
 CYCLE:    18 TIME:   0.078 TIME LEFT:  2.00W  GRAD.:    39.120 HEAT: -209.4110
 ITERATION   1 PLS= 0.361E-03 0.000E+00 ENERGY     -208.005269 DELTAE -308.0052685
 ITERATION   2 PLS= 0.108E-01 0.000E+00 ENERGY     -208.984041 DELTAE   -0.9787727
 ITERATION   3 PLS= 0.541E-02 0.000E+00 ENERGY     -209.138546 DELTAE   -0.1545050
 ITERATION   4 PLS= 0.269E-02 0.000E+00 ENERGY     -209.231931 DELTAE   -0.0933850
 ITERATION   5 PLS= 0.507E-03 0.000E+00 ENERGY     -209.185000 DELTAE    0.0469308
 ITERATION   1 PLS= 0.382E-03 0.000E+00 ENERGY     -209.305936 DELTAE -309.3059356
 ITERATION   2 PLS= 0.776E-02 0.000E+00 ENERGY     -209.565652 DELTAE   -0.2597159
 ITERATION   3 PLS= 0.399E-02 0.000E+00 ENERGY     -209.614879 DELTAE   -0.0492274
 ITERATION   4 PLS= 0.201E-02 0.000E+00 ENERGY     -209.645330 DELTAE   -0.0304507
 ITERATION   5 PLS= 0.176E-03 0.000E+00 ENERGY     -209.630048 DELTAE    0.0152815
 CYCLE:    19 TIME:   0.148 TIME LEFT:  2.00W  GRAD.:    21.752 HEAT: -209.6301
 ITERATION   1 PLS= 0.948E-04 0.000E+00 ENERGY     -209.435661 DELTAE -309.4356614
 ITERATION   2 PLS= 0.403E-02 0.000E+00 ENERGY     -209.674885 DELTAE   -0.2392235
 ITERATION   3 PLS= 0.190E-02 0.000E+00 ENERGY     -209.709664 DELTAE   -0.0347791
 ITERATION   4 PLS= 0.947E-03 0.000E+00 ENERGY     -209.730394 DELTAE   -0.0207300
 ITERATION   5 PLS= 0.256E-03 0.000E+00 ENERGY     -209.719863 DELTAE    0.0105311
 CYCLE:    20 TIME:   0.086 TIME LEFT:  2.00W  GRAD.:    18.074 HEAT: -209.7200
 ITERATION   1 PLS= 0.194E-03 0.000E+00 ENERGY     -209.664616 DELTAE -309.6646160
 ITERATION   2 PLS= 0.521E-02 0.000E+00 ENERGY     -209.830619 DELTAE   -0.1660032
 ITERATION   3 PLS= 0.268E-02 0.000E+00 ENERGY     -209.860111 DELTAE   -0.0294921
 ITERATION   4 PLS= 0.136E-02 0.000E+00 ENERGY     -209.881016 DELTAE   -0.0209049
 ITERATION   5 PLS= 0.410E-03 0.000E+00 ENERGY     -209.870227 DELTAE    0.0107892
 CYCLE:    21 TIME:   0.078 TIME LEFT:  2.00W  GRAD.:    13.838 HEAT: -209.8704
 ITERATION   1 PLS= 0.298E-03 0.000E+00 ENERGY     -209.369731 DELTAE -309.3697311
 ITERATION   2 PLS= 0.391E-02 0.000E+00 ENERGY     -209.586739 DELTAE   -0.2170078
 ITERATION   3 PLS= 0.188E-02 0.000E+00 ENERGY     -209.621266 DELTAE   -0.0345267
 ITERATION   4 PLS= 0.944E-03 0.000E+00 ENERGY     -209.642488 DELTAE   -0.0212228
 ITERATION   5 PLS= 0.168E-03 0.000E+00 ENERGY     -209.631686 DELTAE    0.0108021
 ITERATION   1 PLS= 0.105E-03 0.000E+00 ENERGY     -209.554571 DELTAE -309.5545706
 ITERATION   2 PLS= 0.381E-02 0.000E+00 ENERGY     -209.595641 DELTAE   -0.0410703
 ITERATION   3 PLS= 0.186E-02 0.000E+00 ENERGY     -209.604585 DELTAE   -0.0089437
 ITERATION   4 PLS= 0.913E-03 0.000E+00 ENERGY     -209.610206 DELTAE   -0.0056211
 ITERATION   1 PLS= 0.552E-04 0.000E+00 ENERGY     -209.595894 DELTAE -309.5958938
 ITERATION   2 PLS= 0.803E-03 0.000E+00 ENERGY     -209.618554 DELTAE   -0.0226597
 ITERATION   3 PLS= 0.447E-03 0.000E+00 ENERGY     -209.622073 DELTAE   -0.0035198
 ITERATION   4 PLS= 0.238E-03 0.000E+00 ENERGY     -209.624507 DELTAE   -0.0024340
 ITERATION   1 PLS= 0.520E-04 0.000E+00 ENERGY     -209.910515 DELTAE -309.9105149
 ITERATION   2 PLS= 0.170E-02 0.000E+00 ENERGY     -209.921079 DELTAE   -0.0105639
 ITERATION   3 PLS= 0.723E-03 0.000E+00 ENERGY     -209.922591 DELTAE   -0.0015120
 ITERATION   4 PLS= 0.329E-03 0.000E+00 ENERGY     -209.923492 DELTAE   -0.0009014
 CYCLE:    22 TIME:   0.289 TIME LEFT:  2.00W  GRAD.:     6.995 HEAT: -209.9231
 ITERATION   1 PLS= 0.649E-04 0.000E+00 ENERGY     -209.627221 DELTAE -309.6272210
 ITERATION   2 PLS= 0.163E-02 0.000E+00 ENERGY     -209.643803 DELTAE   -0.0165818
 ITERATION   3 PLS= 0.694E-03 0.000E+00 ENERGY     -209.646465 DELTAE   -0.0026623
 ITERATION   4 PLS= 0.310E-03 0.000E+00 ENERGY     -209.648029 DELTAE   -0.0015634
 ITERATION   1 PLS= 0.803E-04 0.000E+00 ENERGY     -209.626266 DELTAE -309.6262659
 ITERATION   2 PLS= 0.406E-03 0.000E+00 ENERGY     -209.630022 DELTAE   -0.0037566
 ITERATION   3 PLS= 0.230E-03 0.000E+00 ENERGY     -209.630634 DELTAE   -0.0006112
 ITERATION   4 PLS= 0.123E-03 0.000E+00 ENERGY     -209.631003 DELTAE   -0.0003698
 ITERATION   1 PLS= 0.158E-04 0.000E+00 ENERGY     -209.626584 DELTAE -309.6265838
 ITERATION   2 PLS= 0.307E-03 0.000E+00 ENERGY     -209.627618 DELTAE   -0.0010340
 ITERATION   3 PLS= 0.100E-03 0.000E+00 ENERGY     -209.627782 DELTAE   -0.0001646
 ITERATION   4 PLS= 0.516E-04 0.000E+00 ENERGY     -209.627893 DELTAE   -0.0001102
 ITERATION   1 PLS= 0.190E-04 0.000E+00 ENERGY     -209.620043 DELTAE -309.6200427
 ITERATION   2 PLS= 0.178E-03 0.000E+00 ENERGY     -209.620318 DELTAE   -0.0002749
 ITERATION   3 PLS= 0.585E-04 0.000E+00 ENERGY     -209.620362 DELTAE   -0.0000445
 ITERATION   4 PLS= 0.407E-04 0.000E+00 ENERGY     -209.620405 DELTAE   -0.0000433
 ITERATION   1 PLS= 0.200E-04 0.000E+00 ENERGY     -209.616162 DELTAE -309.6161624
 ITERATION   2 PLS= 0.908E-04 0.000E+00 ENERGY     -209.616234 DELTAE   -0.0000716
 ITERATION   3 PLS= 0.335E-04 0.000E+00 ENERGY     -209.616246 DELTAE   -0.0000116
 ITERATION   4 PLS= 0.284E-04 0.000E+00 ENERGY     -209.616260 DELTAE   -0.0000149
 ITERATION   1 PLS= 0.123E-04 0.000E+00 ENERGY     -209.614235 DELTAE -309.6142352
 ITERATION   2 PLS= 0.446E-04 0.000E+00 ENERGY     -209.614254 DELTAE   -0.0000185
 ITERATION   3 PLS= 0.190E-04 0.000E+00 ENERGY     -209.614257 DELTAE   -0.0000029
 ITERATION   4 PLS= 0.158E-04 0.000E+00 ENERGY     -209.614261 DELTAE   -0.0000040
 ITERATION   1 PLS= 0.631E-05 0.000E+00 ENERGY     -209.613229 DELTAE -309.6132288
 ITERATION   2 PLS= 0.220E-04 0.000E+00 ENERGY     -209.613234 DELTAE   -0.0000048
 ITERATION   3 PLS= 0.984E-05 0.000E+00 ENERGY     -209.613234 DELTAE   -0.0000007
 ITERATION   4 PLS= 0.817E-05 0.000E+00 ENERGY     -209.613235 DELTAE   -0.0000002

     TRUST RADIUS NOW LESS THAN  0.00010 OPTIMIZATION TERMINATING
      THE GEOMETRY MAY NOT BE COMPLETELY OPTIMIZED
      (TO CONTINUE, ADD 'LET DDMIN=0.0' TO THE KEYWORD LINE)
 ITERATION   1 PLS= 0.650E-05 0.000E+00 ENERGY     -209.921007 DELTAE -309.9210068
 ITERATION   2 PLS= 0.173E-02 0.000E+00 ENERGY     -209.922625 DELTAE   -0.0016177
 ITERATION   3 PLS= 0.746E-03 0.000E+00 ENERGY     -209.922955 DELTAE   -0.0003310
 ITERATION   4 PLS= 0.347E-03 0.000E+00 ENERGY     -209.923182 DELTAE   -0.0002262

 -------------------------------------------------------------------------------
 PM7 CHARGE=-1 SINGLET AUX DUMP=30M ITRY=15000 eps=78.4 T=14D PL THREADS=40

 Mopac file generated by Gabedit


     GEOMETRY OPTIMISED USING EIGENVECTOR FOLLOWING (EF).     
     SCF FIELD WAS ACHIEVED                                   


                              PM7 CALCULATION
                                                       MOPAC v22.1.0 Linux
                                                       Sat Mar 23 21:53:04 2024




          FINAL HEAT OF FORMATION =       -209.92307 KCAL/MOL =    -878.31814 KJ/MOL
          VAN DER WAALS AREA      =        262.35 SQUARE ANGSTROMS



          DIELECTRIC ENERGY       =         -4.65161 EV
          COSMO AREA              =        262.35 SQUARE ANGSTROMS
          COSMO VOLUME            =        269.75 CUBIC ANGSTROMS

          GRADIENT NORM           =          6.99459          =       1.34611 PER ATOM
          IONIZATION POTENTIAL    =         10.301378 EV
          HOMO LUMO ENERGIES (EV) =        -10.301 -1.484
          NO. OF FILLED LEVELS    =         45
          MOLECULAR WEIGHT        =        231.1847         POINT GROUP:  C1  

          MOLECULAR DIMENSIONS (Angstroms)

            Atom       Atom       Distance
            O    23    O    12    10.07767
            H    17    H     7     6.54642
            O    13    O    22     4.78107


          SCF CALCULATIONS        =         39

          WALL-CLOCK TIME         =      2.766 SECONDS
          COMPUTATION TIME        =          1 MINUTE AND 47.640 SECONDS



       FINAL  POINT  AND  DERIVATIVES

   PARAMETER     ATOM    TYPE            VALUE        GRADIENT
      1          1  C    CARTESIAN X    -0.773733      0.472536  KCAL/ANGSTROM
      2          1  C    CARTESIAN Y     1.167681      0.865454  KCAL/ANGSTROM
      3          1  C    CARTESIAN Z    -0.079894     -0.524633  KCAL/ANGSTROM
      4          2  C    CARTESIAN X     0.582300     -0.172824  KCAL/ANGSTROM
      5          2  C    CARTESIAN Y     1.181213      0.279767  KCAL/ANGSTROM
      6          2  C    CARTESIAN Z     0.238951      1.088268  KCAL/ANGSTROM
      7          3  C    CARTESIAN X     1.331781     -0.598224  KCAL/ANGSTROM
      8          3  C    CARTESIAN Y    -0.002860      0.100652  KCAL/ANGSTROM
      9          3  C    CARTESIAN Z     0.211230     -1.262613  KCAL/ANGSTROM
     10          4  C    CARTESIAN X     0.705430     -0.922459  KCAL/ANGSTROM
     11          4  C    CARTESIAN Y    -1.203234      0.466882  KCAL/ANGSTROM
     12          4  C    CARTESIAN Z    -0.102263      0.430096  KCAL/ANGSTROM
     13          5  C    CARTESIAN X    -0.660924      0.798915  KCAL/ANGSTROM
     14          5  C    CARTESIAN Y    -1.205956      1.545942  KCAL/ANGSTROM
     15          5  C    CARTESIAN Z    -0.401094      0.478316  KCAL/ANGSTROM
     16          6  C    CARTESIAN X    -1.410564      0.169695  KCAL/ANGSTROM
     17          6  C    CARTESIAN Y    -0.026974     -1.588652  KCAL/ANGSTROM
     18          6  C    CARTESIAN Z    -0.409526      0.264033  KCAL/ANGSTROM
     19          7  H    CARTESIAN X    -1.347045     -0.150344  KCAL/ANGSTROM
     20          7  H    CARTESIAN Y     2.099736      0.202599  KCAL/ANGSTROM
     21          7  H    CARTESIAN Z    -0.065233      0.303547  KCAL/ANGSTROM
     22          8  H    CARTESIAN X     1.058949     -0.447920  KCAL/ANGSTROM
     23          8  H    CARTESIAN Y     2.131452      0.069738  KCAL/ANGSTROM
     24          8  H    CARTESIAN Z     0.505532     -0.005627  KCAL/ANGSTROM
     25          9  H    CARTESIAN X     1.255981     -0.445085  KCAL/ANGSTROM
     26          9  H    CARTESIAN Y    -2.153007     -0.088546  KCAL/ANGSTROM
     27          9  H    CARTESIAN Z    -0.114220      0.461201  KCAL/ANGSTROM
     28         10  H    CARTESIAN X    -2.474764      0.189879  KCAL/ANGSTROM
     29         10  H    CARTESIAN Y    -0.036230      0.345848  KCAL/ANGSTROM
     30         10  H    CARTESIAN Z    -0.668070     -0.442777  KCAL/ANGSTROM
     31         11  N    CARTESIAN X    -1.286445      0.136858  KCAL/ANGSTROM
     32         11  N    CARTESIAN Y    -2.471116      0.048878  KCAL/ANGSTROM
     33         11  N    CARTESIAN Z    -0.699276     -0.260232  KCAL/ANGSTROM
     34         12  O    CARTESIAN X    -2.469134      0.926728  KCAL/ANGSTROM
     35         12  O    CARTESIAN Y    -2.501624     -0.655730  KCAL/ANGSTROM
     36         12  O    CARTESIAN Z    -1.009876      0.389511  KCAL/ANGSTROM
     37         13  O    CARTESIAN X    -0.616165      1.394353  KCAL/ANGSTROM
     38         13  O    CARTESIAN Y    -3.495203     -0.350739  KCAL/ANGSTROM
     39         13  O    CARTESIAN Z    -0.626861      0.588110  KCAL/ANGSTROM
     40         14  C    CARTESIAN X     2.791205      0.158042  KCAL/ANGSTROM
     41         14  C    CARTESIAN Y     0.029493     -1.351188  KCAL/ANGSTROM
     42         14  C    CARTESIAN Z     0.574816     -0.387178  KCAL/ANGSTROM
     43         15  H    CARTESIAN X     2.907272      0.643436  KCAL/ANGSTROM
     44         15  H    CARTESIAN Y     0.513557     -0.070455  KCAL/ANGSTROM
     45         15  H    CARTESIAN Z     1.608858      1.080366  KCAL/ANGSTROM
     46         16  C    CARTESIAN X     3.454580     -0.810865  KCAL/ANGSTROM
     47         16  C    CARTESIAN Y    -1.341161     -0.972798  KCAL/ANGSTROM
     48         16  C    CARTESIAN Z     0.623953      0.234944  KCAL/ANGSTROM
     49         17  H    CARTESIAN X     4.510040     -0.794458  KCAL/ANGSTROM
     50         17  H    CARTESIAN Y    -1.280866     -0.221888  KCAL/ANGSTROM
     51         17  H    CARTESIAN Z     0.928007      0.033963  KCAL/ANGSTROM
     52         18  H    CARTESIAN X     3.429672     -0.554880  KCAL/ANGSTROM
     53         18  H    CARTESIAN Y    -1.874081     -0.499250  KCAL/ANGSTROM
     54         18  H    CARTESIAN Z    -0.336050      0.612893  KCAL/ANGSTROM
     55         19  H    CARTESIAN X     2.953994     -0.851225  KCAL/ANGSTROM
     56         19  H    CARTESIAN Y    -1.985562      0.748456  KCAL/ANGSTROM
     57         19  H    CARTESIAN Z     1.366228     -0.608011  KCAL/ANGSTROM
     58         20  N    CARTESIAN X     3.558243      0.070653  KCAL/ANGSTROM
     59         20  N    CARTESIAN Y     0.905027      0.735972  KCAL/ANGSTROM
     60         20  N    CARTESIAN Z    -0.373062      0.554910  KCAL/ANGSTROM
     61         21  O    CARTESIAN X     4.746206      0.125102  KCAL/ANGSTROM
     62         21  O    CARTESIAN Y     1.085820      0.531465  KCAL/ANGSTROM
     63         21  O    CARTESIAN Z    -0.152420      0.253110  KCAL/ANGSTROM
     64         22  O    CARTESIAN X     2.989547      0.413117  KCAL/ANGSTROM
     65         22  O    CARTESIAN Y     1.427708      1.355729  KCAL/ANGSTROM
     66         22  O    CARTESIAN Z    -1.317330     -0.567037  KCAL/ANGSTROM
     67         23  O    CARTESIAN X     2.634216     -1.226535  KCAL/ANGSTROM
     68         23  O    CARTESIAN Y     2.555929      1.306750  KCAL/ANGSTROM
     69         23  O    CARTESIAN Z     6.056692     -0.236440  KCAL/ANGSTROM
     70         24  H    CARTESIAN X     2.925835      1.122720  KCAL/ANGSTROM
     71         24  H    CARTESIAN Y     1.851691     -1.902537  KCAL/ANGSTROM
     72         24  H    CARTESIAN Z     5.581864     -1.650623  KCAL/ANGSTROM
     73         25  H    CARTESIAN X     2.048864      1.830698  KCAL/ANGSTROM
     74         25  H    CARTESIAN Y     1.123436      0.373389  KCAL/ANGSTROM
     75         25  H    CARTESIAN Z     3.701273     -0.456366  KCAL/ANGSTROM
     76         26  H    CARTESIAN X     3.489350     -1.963384  KCAL/ANGSTROM
     77         26  H    CARTESIAN Y     1.573488     -1.049932  KCAL/ANGSTROM
     78         26  H    CARTESIAN Z     3.563311      0.180514  KCAL/ANGSTROM
     79         27  O    CARTESIAN X     2.934720      0.485472  KCAL/ANGSTROM
     80         27  O    CARTESIAN Y     0.783735     -0.225806  KCAL/ANGSTROM
     81         27  O    CARTESIAN Z     3.523980     -0.552246  KCAL/ANGSTROM




   ATOM   CHEMICAL          X               Y               Z
  NUMBER   SYMBOL      (ANGSTROMS)     (ANGSTROMS)     (ANGSTROMS)

     1       C         -0.77373254  *   1.16768111  *  -0.07989376  *
     2       C          0.58229955  *   1.18121332  *   0.23895142  *
     3       C          1.33178053  *  -0.00286016  *   0.21123032  *
     4       C          0.70542954  *  -1.20323380  *  -0.10226258  *
     5       C         -0.66092412  *  -1.20595618  *  -0.40109427  *
     6       C         -1.41056419  *  -0.02697358  *  -0.40952558  *
     7       H         -1.34704458  *   2.09973566  *  -0.06523339  *
     8       H          1.05894853  *   2.13145219  *   0.50553196  *
     9       H          1.25598071  *  -2.15300683  *  -0.11421983  *
    10       H         -2.47476386  *  -0.03622976  *  -0.66806955  *
    11       N         -1.28644548  *  -2.47111621  *  -0.69927578  *
    12       O         -2.46913362  *  -2.50162391  *  -1.00987631  *
    13       O         -0.61616479  *  -3.49520338  *  -0.62686133  *
    14       C          2.79120497  *   0.02949326  *   0.57481571  *
    15       H          2.90727202  *   0.51355709  *   1.60885765  *
    16       C          3.45458001  *  -1.34116094  *   0.62395256  *
    17       H          4.51003958  *  -1.28086593  *   0.92800663  *
    18       H          3.42967249  *  -1.87408120  *  -0.33604988  *
    19       H          2.95399406  *  -1.98556204  *   1.36622801  *
    20       N          3.55824268  *   0.90502655  *  -0.37306183  *
    21       O          4.74620605  *   1.08581993  *  -0.15242021  *
    22       O          2.98954674  *   1.42770760  *  -1.31732971  *
    23       O          2.63421595  *   2.55592882  *   6.05669216  *
    24       H          2.92583453  *   1.85169071  *   5.58186374  *
    25       H          2.04886430  *   1.12343613  *   3.70127267  *
    26       H          3.48935039  *   1.57348770  *   3.56331096  *
    27       O          2.93471965  *   0.78373482  *   3.52398017  *

                             CARTESIAN COORDINATES

   1    C       -0.773732544     1.167681107    -0.079893761
   2    C        0.582299545     1.181213318     0.238951415
   3    C        1.331780534    -0.002860159     0.211230320
   4    C        0.705429544    -1.203233802    -0.102262581
   5    C       -0.660924125    -1.205956184    -0.401094269
   6    C       -1.410564188    -0.026973580    -0.409525578
   7    H       -1.347044583     2.099735659    -0.065233392
   8    H        1.058948529     2.131452186     0.505531957
   9    H        1.255980711    -2.153006825    -0.114219830
  10    H       -2.474763858    -0.036229757    -0.668069553
  11    N       -1.286445485    -2.471116213    -0.699275781
  12    O       -2.469133618    -2.501623913    -1.009876314
  13    O       -0.616164790    -3.495203380    -0.626861335
  14    C        2.791204971     0.029493261     0.574815706
  15    H        2.907272017     0.513557090     1.608857648
  16    C        3.454580007    -1.341160935     0.623952556
  17    H        4.510039580    -1.280865934     0.928006635
  18    H        3.429672494    -1.874081200    -0.336049876
  19    H        2.953994058    -1.985562044     1.366228011
  20    N        3.558242681     0.905026548    -0.373061825
  21    O        4.746206045     1.085819934    -0.152420214
  22    O        2.989546740     1.427707604    -1.317329708
  23    O        2.634215947     2.555928823     6.056692164
  24    H        2.925834529     1.851690706     5.581863737
  25    H        2.048864304     1.123436130     3.701272670
  26    H        3.489350393     1.573487705     3.563310955
  27    O        2.934719648     0.783734818     3.523980174


           Empirical Formula: C8 H11 N2 O6  =    27 atoms



      MOLECULAR POINT GROUP   :   C1  


                  EIGENVALUES  
 -37.51272 -37.38690 -31.65880 -30.85239 -30.83743 -29.57609 -29.21725 -27.71239
 -26.25243 -25.26055 -24.65067 -24.52869 -22.65725 -21.41878 -20.63219 -19.44044
 -18.56407 -18.32790 -17.91174 -17.67194 -17.64910 -17.39012 -17.00073 -16.13726
 -15.44233 -15.23060 -14.58935 -14.30449 -13.99359 -13.67929 -13.48399 -13.19832
 -12.96238 -12.66693 -12.13785 -11.96995 -11.95267 -11.88083 -11.86026 -11.69808
 -11.53797 -10.70879 -10.50648 -10.30614 -10.30138  -1.48388  -0.68911  -0.44828
   0.14931   0.44425   0.52706   1.78400   2.53504   3.05370   3.32497   3.60390
   3.79883   3.98341   4.04141   4.08015   4.23882   4.28587   4.51608   4.65284
   4.83380   4.93864   5.33414   5.37636   5.42961   5.47892   5.57355   5.80230
   6.47078   6.59101   8.14153


              NET ATOMIC CHARGES AND DIPOLE CONTRIBUTIONS

  ATOM NO.   TYPE          CHARGE      No. of ELECS.   s-Pop       p-Pop       
    1          C          -0.168884        4.1689     1.08691     3.08197
    2          C          -0.057618        4.0576     1.09948     2.95814
    3          C          -0.073070        4.0731     1.06489     3.00818
    4          C          -0.067737        4.0677     1.09559     2.97214
    5          C          -0.094056        4.0941     1.06860     3.02545
    6          C          -0.055375        4.0554     1.09760     2.95777
    7          H           0.186200        0.8138     0.81380
    8          H           0.188454        0.8115     0.81155
    9          H           0.199067        0.8009     0.80093
   10          H           0.190999        0.8090     0.80900
   11          N           0.673474        4.3265     1.44773     2.87880
   12          O          -0.458623        6.4586     1.94050     4.51812
   13          O          -0.464606        6.4646     1.94125     4.52336
   14          C          -0.045409        4.0454     1.09581     2.94960
   15          H           0.243189        0.7568     0.75681
   16          C          -0.473871        4.4739     1.05794     3.41594
   17          H           0.183125        0.8169     0.81688
   18          H           0.173014        0.8270     0.82699
   19          H           0.192813        0.8072     0.80719
   20          N           0.624799        4.3752     1.47905     2.89615
   21          O          -0.453171        6.4532     1.93992     4.51325
   22          O          -0.452665        6.4527     1.93955     4.51312
   23          O          -1.330738        7.3307     1.87534     5.45540
   24          H           0.330306        0.6697     0.66969
   25          H           0.369492        0.6305     0.63051
   26          H           0.372079        0.6279     0.62792
   27          O          -0.731186        6.7312     1.81766     4.91353
 DIPOLE           X         Y         Z       TOTAL
 POINT-CHG.    -6.530    -9.084   -21.457    24.199
 HYBRID        -0.088    -0.337    -0.834     0.904
 SUM           -6.618    -9.421   -22.291    25.089


          ATOMIC ORBITAL ELECTRON POPULATIONS

     Atom    s        px        py        pz   
    1  C   1.08691   1.01466   1.06295   1.00436
    2  C   1.09948   0.99403   1.05460   0.90951
    3  C   1.06489   0.96826   0.98750   1.05242
    4  C   1.09559   0.98127   1.07692   0.91395
    5  C   1.06860   0.99166   0.88263   1.15116
    6  C   1.09760   1.08795   0.96099   0.90883
    7  H   0.81380
    8  H   0.81155
    9  H   0.80093
   10  H   0.80900
   11  N   1.44773   0.96106   1.00365   0.91408
   12  O   1.94050   1.04866   1.92929   1.54016
   13  O   1.94125   1.61724   1.30591   1.60021
   14  C   1.09581   0.93303   0.98643   1.03014
   15  H   0.75681
   16  C   1.05794   1.17400   1.02665   1.21529
   17  H   0.81688
   18  H   0.82699
   19  H   0.80719
   20  N   1.47905   0.97451   0.95163   0.97002
   21  O   1.93992   1.05282   1.68276   1.77767
   22  O   1.93955   1.69472   1.54231   1.27609
   23  O   1.87534   1.94298   1.66573   1.84669
   24  H   0.66969
   25  H   0.63051
   26  H   0.62792
   27  O   1.81766   1.42553   1.52112   1.96689

 **********************
 *                    *
 * JOB ENDED NORMALLY *
 *                    *
 **********************



 TOTAL JOB TIME:             2.77 SECONDS

 == MOPAC DONE ==
