 *******************************************************************************
 **                                                                           **
 **                              MOPAC v22.0.6                                **
 **                                                                           **
 *******************************************************************************
 **          Digital Object Identifier (DOI): 10.5281/zenodo.6511958          **
 **    Visit the DOI location for information on how to cite this program.    **
 *******************************************************************************

                              PM7 CALCULATION RESULTS

 *******************************************************************************
 *  CALCULATION DONE:                                Tue Mar 26 12:10:26 2024  *
 *  PM7        - The PM7 Hamiltonian to be used
 *  SINGLET    - SPIN STATE DEFINED AS A SINGLET
 *
 *
 *
 *                 CHARGE ON SYSTEM = -1
 *
 *
 *
 *  EPS=78.4   - USE ANDREAS KLAMT'S COSMO IMPLICIT SOLVATION MODEL
 *  LET        - OVERRIDE SOME SAFETY CHECKS
 *  THREADS    - USE A MAXIMUM OF 30 THREADS
 *  T=         - A TIME OF 14.0 DAYS REQUESTED
 *  DUMP=N     - RESTART FILE WRITTEN EVERY 30.0 MINUTES REQUESTED
 *  RELSCF     - DEFAULT SCF CRITERION MULTIPLIED BY 1.0000
 *              (DEFAULT SCF CRITERION = 0.00010)
 *  ITRY=      - DO A MAXIMUM OF 15000 ITERATIONS FOR SCF
 *  AUX        - OUTPUT AUXILIARY INFORMATION
 *  ISOTOPE    - SAVE THE FORCE MATRIX FOR USE LATER
 *  BONDS      - FINAL BOND-ORDER MATRIX TO BE PRINTED
 *  LARGE      - EXPANDED OUTPUT TO BE PRINTED
 *  THERMO     - THERMODYNAMIC QUANTITIES TO BE CALCULATED
 *******************************************************************************
PM7 AUX LARGE THERMO(298,298) LET ISOTOPE BONDS DUMP=30M ITRY=15000 T=14D THREADS=30 CHARGE=-1 SINGLET eps=78.4 RELSCF=1
 Title: ASE calculation

   ATOM   CHEMICAL          X               Y               Z
  NUMBER   SYMBOL      (ANGSTROMS)     (ANGSTROMS)     (ANGSTROMS)

     1       C          0.57973994  *  -0.76362469  *   0.69813387  *
     2       H          1.17293621  *  -1.12859217  *  -0.16894498  *
     3       D          0.73605111  *   0.33785492  *   0.76576871  *
     4       H          0.97374709  *  -1.23324771  *   1.62231330  *
     5       N         -0.83995426  *  -1.03657934  *   0.52491079  *
     6       O         -1.50837471  *  -1.35701815  *   1.49631575  *
     7       O         -1.33425465  *  -0.91971890  *  -0.58774774  *
     8       C          5.69815585  *   0.38047125  *   0.14629882  *
     9       O          5.72489782  *   0.30285292  *  -1.09626280  *
    10       O          5.79523150  *  -0.59284346  *   0.91121640  *
    11       C          5.55624779  *   1.78459916  *   0.72491847  *
    12      Cl          6.07210729  *   1.79993530  *   2.42551792  *
    13       H          4.50299831  *   2.11974537  *   0.69821107  *
    14       H          6.18176326  *   2.51574147  *   0.18721436  *
    15       H          2.67468839  *   0.61101640  *   1.61738584  *
    16       O          3.03161126  *   0.33785492  *   0.76576871  *
    17       H          3.59715137  *  -0.41810632  *   0.97617468  *


                                Isotopes Used

              Atom:    3  H  Default mass  1.0079,  mass used:  2.0140 amu


          CARTESIAN COORDINATES 

    NO.       ATOM           X           Y           Z

     1         C          0.5797     -0.7636      0.6981
     2         H          1.1729     -1.1286     -0.1689
     3         H          0.7361      0.3379      0.7658
     4         H          0.9737     -1.2332      1.6223
     5         N         -0.8400     -1.0366      0.5249
     6         O         -1.5084     -1.3570      1.4963
     7         O         -1.3343     -0.9197     -0.5877
     8         C          5.6982      0.3805      0.1463
     9         O          5.7249      0.3029     -1.0963
    10         O          5.7952     -0.5928      0.9112
    11         C          5.5562      1.7846      0.7249
    12        Cl          6.0721      1.7999      2.4255
    13         H          4.5030      2.1197      0.6982
    14         H          6.1818      2.5157      0.1872
    15         H          2.6747      0.6110      1.6174
    16         O          3.0316      0.3379      0.7658
    17         H          3.5972     -0.4181      0.9762

 General Reference for PM7:
 "Optimization of Parameters for Semiempirical Methods VI: More Modifications to the 
 NDDO Approximations and Re-optimization of Parameters", J. J. P. Stewart, J. Mol. Mod., 1:32, 19 (2013)
 https://link.springer.com/article/10.1007/s00894-012-1667-x

           Empirical Formula: C3 H7 N O5 Cl  =    17 atoms



      MOLECULAR POINT GROUP   :   C1  


 SINGLET STATE CALCULATION


      RHF CALCULATION, NO. OF DOUBLY OCCUPIED LEVELS = 31

  SCF CRITERION =    0.1000E-03


          HEAT OF FORMATION =    -303.528185 KCALS/MOLE


          CARTESIAN COORDINATE DERIVATIVES

   NUMBER  ATOM         X            Y            Z

     1       C     -0.398118     0.675461     0.763954
     2       H      0.394955    -0.189479    -0.125868
     3       H      0.285360    -0.239738    -0.008348
     4       H     -0.165419    -0.674544    -0.198960
     5       N     -0.436305    -0.108483     0.942334
     6       O      0.826004     1.206723     0.913981
     7       O      0.223581     1.007367     0.888806
     8       C      0.099104    -1.836718    -0.277243
     9       O     -0.807873    -0.884511    -1.043508
    10       O     -0.840305     0.817792    -0.451804
    11       C     -1.250553    -0.047832     0.381213
    12      Cl      0.017124     0.195891     0.331823
    13       H     -0.396558     0.046518     0.179277
    14       H      0.168348    -0.234920    -0.027597
    15       H      0.291724    -1.746866    -2.312933
    16       O      1.367596     1.983355     1.127573
    17       H      0.621367     0.029960    -1.082710

 DIPOLE           X         Y         Z       TOTAL
 POINT-CHG.   -13.978    -7.796   -12.498    20.307
 HYBRID        -0.265    -0.462    -0.277     0.601
 SUM          -14.243    -8.258   -12.775    20.839


          GRADIENT NORM =   5.89966


                              **** WARNING ****

           GRADIENT IS VERY LARGE FOR A THERMO CALCULATION
           RESULTS ARE LIKELY TO BE INACCURATE IF THERE ARE
           ANY LOW-LYING VIBRATIONS (LESS THAN ABOUT 400CM-1)
           GRADIENT NORM SHOULD BE LESS THAN ABOUT 1.0 FOR THERMO
           TO GIVE ACCURATE RESULTS


          TIME FOR SCF CALCULATION =    0.14

          TIME FOR DERIVATIVES     =    0.02

          MOLECULAR WEIGHT =  173.55



          ROTATIONAL CONSTANTS IN CM(-1)

          A =    0.06363549   B =    0.00886146   C =    0.00823399



           PRINCIPAL MOMENTS OF INERTIA IN UNITS OF 10**(-40)*GRAM-CM**2

          A =      439.8922   B =     3158.9323   C =     3399.6598


          ORIENTATION OF MOLECULE IN FORCE CALCULATION

    NO.       ATOM         X         Y         Z

     1          C      -0.9823   -1.6874   -1.9839
     2          H       0.1298   -1.6874   -1.9839
     3          H      -1.3132   -0.6231   -1.9839
     4          H      -1.3386   -2.1676   -1.0499
     5          N      -1.5149   -2.3549   -3.1632
     6          O      -2.5236   -3.0365   -3.0580
     7          O      -0.9495   -2.2015   -4.2369
     8          C       1.8025    1.0788    1.5381
     9          O       2.8109    1.2369    0.8249
    10          O       1.5773    0.0644    2.2179
    11          C       0.8149    2.2409    1.5655
    12         Cl      -0.2408    2.1125    2.9893
    13          H       0.1640    2.2290    0.6719
    14          H       1.3278    3.2147    1.6259
    15          H      -1.0327    0.0856    0.0104
    16          O      -0.0888    0.0946   -0.1796
    17          H       0.2969   -0.4714    0.5033


    FIRST DERIVATIVES WILL BE USED IN THE CALCULATION OF SECOND DERIVATIVES

          ESTIMATED TIME TO COMPLETE CALCULATION =       16.34 SECONDS

    FOR POINT-GROUP C1   THERE ARE   1 UNIQUE SYMMETRY FUNCTIONS.

 STEP:   1 TIME =     0.50 SECS, INTEGRAL =      0.50 TIME LEFT:1209599.34
 STEP:   2 TIME =     0.14 SECS, INTEGRAL =      0.64 TIME LEFT:1209599.20
 STEP:   3 TIME =     0.15 SECS, INTEGRAL =      0.79 TIME LEFT:1209599.05
 STEP:   4 TIME =     0.17 SECS, INTEGRAL =      0.96 TIME LEFT:1209598.88
 STEP:   5 TIME =     0.50 SECS, INTEGRAL =      1.46 TIME LEFT:1209598.38
 STEP:   6 TIME =     0.40 SECS, INTEGRAL =      1.86 TIME LEFT:1209597.98
 STEP:   7 TIME =     0.23 SECS, INTEGRAL =      2.09 TIME LEFT:1209597.75
 STEP:   8 TIME =     0.26 SECS, INTEGRAL =      2.36 TIME LEFT:1209597.48
 STEP:   9 TIME =     0.11 SECS, INTEGRAL =      2.47 TIME LEFT:1209597.37
 STEP:  10 TIME =     0.50 SECS, INTEGRAL =      2.96 TIME LEFT:1209596.88
 STEP:  11 TIME =     0.34 SECS, INTEGRAL =      3.31 TIME LEFT:1209596.53
 STEP:  12 TIME =     0.63 SECS, INTEGRAL =      3.94 TIME LEFT:1209595.90
 STEP:  13 TIME =     0.86 SECS, INTEGRAL =      4.79 TIME LEFT:1209595.05
 STEP:  14 TIME =     0.36 SECS, INTEGRAL =      5.16 TIME LEFT:1209594.68
 STEP:  15 TIME =     1.67 SECS, INTEGRAL =      6.82 TIME LEFT:1209593.02
 STEP:  16 TIME =     1.02 SECS, INTEGRAL =      7.84 TIME LEFT:1209592.00
 STEP:  17 TIME =     0.62 SECS, INTEGRAL =      8.46 TIME LEFT:1209591.38
 STEP:  18 TIME =     0.34 SECS, INTEGRAL =      8.80 TIME LEFT:1209591.04
 STEP:  19 TIME =     0.24 SECS, INTEGRAL =      9.04 TIME LEFT:1209590.80
 STEP:  20 TIME =     0.29 SECS, INTEGRAL =      9.33 TIME LEFT:1209590.51
 STEP:  21 TIME =     0.27 SECS, INTEGRAL =      9.59 TIME LEFT:1209590.25
 STEP:  22 TIME =     0.11 SECS, INTEGRAL =      9.70 TIME LEFT:1209590.14
 STEP:  23 TIME =     0.16 SECS, INTEGRAL =      9.86 TIME LEFT:1209589.98
 STEP:  24 TIME =     0.28 SECS, INTEGRAL =     10.14 TIME LEFT:1209589.70
 STEP:  25 TIME =     0.08 SECS, INTEGRAL =     10.22 TIME LEFT:1209589.62
 STEP:  26 TIME =     0.06 SECS, INTEGRAL =     10.28 TIME LEFT:1209589.56
 STEP:  27 TIME =     0.05 SECS, INTEGRAL =     10.32 TIME LEFT:1209589.52
 STEP:  28 TIME =     0.05 SECS, INTEGRAL =     10.38 TIME LEFT:1209589.46
 STEP:  29 TIME =     0.05 SECS, INTEGRAL =     10.43 TIME LEFT:1209589.41
 STEP:  30 TIME =     0.04 SECS, INTEGRAL =     10.47 TIME LEFT:1209589.37
 STEP:  31 TIME =     0.05 SECS, INTEGRAL =     10.52 TIME LEFT:1209589.32
 STEP:  32 TIME =     0.04 SECS, INTEGRAL =     10.56 TIME LEFT:1209589.28
 STEP:  33 TIME =     0.05 SECS, INTEGRAL =     10.61 TIME LEFT:1209589.23
 STEP:  34 TIME =     0.07 SECS, INTEGRAL =     10.67 TIME LEFT:1209589.17
 STEP:  35 TIME =     0.04 SECS, INTEGRAL =     10.71 TIME LEFT:1209589.12
 STEP:  36 TIME =     0.04 SECS, INTEGRAL =     10.76 TIME LEFT:1209589.08
 STEP:  37 TIME =     0.04 SECS, INTEGRAL =     10.80 TIME LEFT:1209589.04
 STEP:  38 TIME =     0.03 SECS, INTEGRAL =     10.83 TIME LEFT:1209589.01
 STEP:  39 TIME =     0.03 SECS, INTEGRAL =     10.86 TIME LEFT:1209588.98
 STEP:  40 TIME =     0.04 SECS, INTEGRAL =     10.89 TIME LEFT:1209588.95
 STEP:  41 TIME =     0.03 SECS, INTEGRAL =     10.93 TIME LEFT:1209588.91
 STEP:  42 TIME =     0.04 SECS, INTEGRAL =     10.96 TIME LEFT:1209588.88
 STEP:  43 TIME =     0.03 SECS, INTEGRAL =     10.99 TIME LEFT:1209588.85
 STEP:  44 TIME =     0.04 SECS, INTEGRAL =     11.03 TIME LEFT:1209588.81
 STEP:  45 TIME =     0.03 SECS, INTEGRAL =     11.06 TIME LEFT:1209588.78
 STEP:  46 TIME =     0.03 SECS, INTEGRAL =     11.09 TIME LEFT:1209588.75
 STEP:  47 TIME =     0.03 SECS, INTEGRAL =     11.12 TIME LEFT:1209588.72
 STEP:  48 TIME =     0.03 SECS, INTEGRAL =     11.15 TIME LEFT:1209588.69
 STEP:  49 TIME =     0.03 SECS, INTEGRAL =     11.18 TIME LEFT:1209588.66
 STEP:  50 TIME =     0.03 SECS, INTEGRAL =     11.21 TIME LEFT:1209588.62
 STEP:  51 TIME =     0.03 SECS, INTEGRAL =     11.25 TIME LEFT:1209588.59

(To convert to Hartree/Bohr^2, multiply by (10^(-21) x N x a0^2)/(4.184 x 627.51) =  0.0642)


           FORCE MATRIX IN MILLIDYNES/ANGSTROM


                  C  1       H  2       H  3       H  4       N  5       O  6
 ------------------------------------------------------------------------------
     C    1  11.044743
     H    2   3.110346   3.963497
     H    3   3.119085   0.428852   3.976562
     H    4   3.215049   0.424632   0.426775   4.047652
     N    5   3.431460   0.909595   0.937533   0.887032  19.043875
     O    6   1.284517   0.084880   0.075994   0.049842   9.360593  12.146857
     O    7   1.262029   0.060981   0.072712   0.088436   9.289064   2.748177
     C    8   0.025185   0.006134   0.005059   0.002851   0.010782   0.002654
     O    9   0.012783   0.003867   0.002754   0.001819   0.007395   0.002221
     O   10   0.046331   0.004215   0.003234   0.002671   0.006945   0.001395
     C   11   0.003877   0.001615   0.001673   0.001587   0.004307   0.001805
    Cl   12   0.001913   0.001250   0.000949   0.001615   0.002882   0.000957
     H   13   0.006889   0.003079   0.010459   0.002540   0.003152   0.001998
     H   14   0.001487   0.000780   0.001070   0.000811   0.001780   0.001035
     H   15   0.040529   0.014995   0.048051   0.024769   0.031553   0.013229
     O   16   0.109852   0.017334   0.059544   0.018636   0.040457   0.029979
     H   17   0.083645   0.016344   0.023144   0.014185   0.017532   0.010916


                  O  7       C  8       O  9       O 10       C 11      Cl 12
 ------------------------------------------------------------------------------
     O    7  12.057722
     C    8   0.004571  17.899926
     O    9   0.001443   9.105664  11.561026
     O   10   0.001992   9.295734   2.322091  11.694267
     C   11   0.002071   2.597066   1.186353   1.213769   9.666810
    Cl   12   0.001834   0.582640   0.132130   0.101027   2.103525   3.570675
     H   13   0.001266   0.758524   0.064668   0.071230   3.254202   0.608784
     H   14   0.000892   0.726144   0.048141   0.073116   3.302212   0.617133
     H   15   0.012662   0.050474   0.019090   0.029022   0.017396   0.006653
     O   16   0.028596   0.159902   0.080804   0.119792   0.091690   0.020413
     H   17   0.010309   0.248210   0.062589   0.104176   0.029982   0.009911


                  H 13       H 14       H 15       O 16       H 17
 ------------------------------------------------------------------
     H   13   4.024045
     H   14   0.443192   4.088812
     H   15   0.061945   0.004729   4.327211
     O   16   0.061073   0.012165   3.936538   6.265948
     H   17   0.032553   0.006999   0.822126   3.857932   4.246467


          HEAT OF FORMATION =    -303.528185 KCALS/MOLE


          TRIVIAL VIBRATIONS, SHOULD BE ZERO

 -25.6042=TX  24.8762=TY -15.5768=TZ  38.6569=RX  19.8761=RY -42.2542=RZ


      MOLECULAR POINT GROUP   :   C1  


           EIGENVECTORS  


   Root No.       1         2         3         4         5         6         7         8

                 1 A       2 A       3 A       4 A       5 A       6 A       7 A       8 A   

                  -0.1      -0.0      -0.0      -0.0      -0.0      -0.0      -0.0      -0.0
  
           1   -0.0030   -0.0253   -0.0074   -0.0116    0.0550   -0.0217   -0.2102    0.0818
           2   -0.0091   -0.0119    0.0009    0.0051   -0.0240    0.0747   -0.0558    0.0161
           3    0.0215   -0.0072   -0.0471    0.0468   -0.0281   -0.0306    0.0998   -0.0448
           4   -0.0037   -0.0249   -0.0076   -0.0117    0.0580   -0.0237   -0.2062    0.0806
           5    0.0010    0.0453    0.0201    0.1134   -0.1141    0.5473   -0.0217   -0.0902
           6    0.0078   -0.0506   -0.0438    0.0943   -0.0681   -0.2488    0.3044   -0.1716
           7   -0.0145   -0.0825   -0.0282   -0.1179    0.1620   -0.4892   -0.2512    0.1886
           8   -0.0152   -0.0304   -0.0052   -0.0284    0.0081   -0.0714   -0.0690    0.0505
           9    0.0497   -0.0120   -0.0547    0.1315   -0.0314    0.1519    0.1572    0.0566
          10    0.0168    0.0380    0.0011   -0.0142    0.0574    0.3594   -0.3609    0.1413
          11   -0.0075   -0.0161    0.0016   -0.1166    0.0059   -0.1678   -0.1679   -0.0058
          12    0.0285    0.0143   -0.0425   -0.0190   -0.0139   -0.0072   -0.0168   -0.0342
          13   -0.0130   -0.0376    0.0032    0.1089   -0.0225    0.0129    0.0431   -0.1177
          14   -0.0046   -0.0529   -0.0161    0.0737    0.0118   -0.0301    0.0569    0.1395
          15    0.0266    0.0206   -0.0411   -0.0496   -0.0136    0.0125   -0.0768   -0.0245
          16   -0.0030    0.0128    0.0082    0.0452    0.3006    0.0449    0.1716   -0.2122
          17   -0.0200   -0.1201   -0.0230    0.1427   -0.4435   -0.0710   -0.1698    0.2885
          18    0.0328    0.0700   -0.0372   -0.2105    0.1322    0.0588   -0.3073    0.0336
          19   -0.0326   -0.1015    0.0059    0.2759   -0.4131    0.0030    0.1230   -0.1868
          20    0.0101   -0.0173   -0.0216    0.0579    0.4956   -0.0718    0.3701    0.0935
          21    0.0172   -0.0081   -0.0404    0.0358   -0.1507    0.0019    0.0097   -0.0677
          22   -0.0876    0.1096   -0.0235    0.0119   -0.0483   -0.0252    0.0786    0.0276
          23   -0.0330    0.0330   -0.0055   -0.0089   -0.0404   -0.0635    0.0584    0.0731
          24   -0.0248    0.0006    0.0824   -0.1258    0.0436    0.0922    0.0362    0.0730
          25   -0.0634    0.2943    0.0886   -0.1451   -0.0989    0.0135    0.1625    0.1004
          26   -0.0065    0.2828    0.0479   -0.0993   -0.1979   -0.1874    0.1136    0.1049
          27    0.0154    0.3196    0.2555   -0.3672   -0.0627    0.1200    0.1668    0.1818
          28   -0.0990   -0.0380   -0.1677    0.1901   -0.0535   -0.1277    0.0244    0.0243
          29   -0.0448   -0.1573   -0.0723    0.0919    0.0642    0.0051    0.0298    0.0963
          30   -0.0462   -0.3348   -0.0660    0.0864    0.1991    0.1604   -0.0263    0.1053
          31   -0.0949    0.0238   -0.0271    0.0016    0.0305    0.0510    0.0291   -0.0744
          32   -0.0354   -0.0301    0.0001   -0.0226    0.0255    0.0040    0.0202   -0.0080
          33   -0.0210    0.0032    0.0317   -0.0644   -0.0085   -0.0357   -0.0722   -0.1394
          34   -0.0465   -0.0443    0.4108    0.1605    0.0083   -0.0776   -0.0545   -0.1710
          35   -0.0306   -0.1880    0.3738    0.0313    0.1546    0.1310    0.0321    0.0697
          36    0.0168   -0.0641    0.3880    0.0589   -0.0115   -0.1178   -0.1331   -0.2033
          37   -0.1239    0.0826   -0.2887   -0.0997    0.0350    0.1231    0.0855   -0.0076
          38   -0.0301   -0.0243   -0.2749   -0.0668    0.0323    0.0087   -0.0477   -0.1835
          39   -0.0058   -0.0374    0.2239    0.0111   -0.0106   -0.0878   -0.1141   -0.1880
          40   -0.0880   -0.0502   -0.0337   -0.0013    0.0938    0.1076   -0.0178   -0.1695
          41   -0.0363    0.0033    0.0285   -0.0144   -0.0057   -0.0265    0.0446    0.0458
          42   -0.0318    0.0843   -0.4094   -0.1662   -0.0431   -0.0325   -0.0822   -0.2259
          43    0.3326    0.0224    0.0107   -0.0421   -0.0236    0.0082    0.1005    0.1041
          44    0.7142    0.2316   -0.0674    0.1626    0.0755   -0.0442   -0.1355   -0.2273
          45    0.2625   -0.3609   -0.0918   -0.0896   -0.0976    0.0210    0.1241    0.2085
          46    0.2436    0.0905    0.0152    0.0169    0.0071   -0.0012    0.0707    0.0978
          47   -0.1770   -0.1149   -0.0261   -0.1789   -0.0172   -0.0329   -0.0564   -0.2746
          48   -0.1785   -0.0374   -0.0739    0.1905    0.0453   -0.0273   -0.0189    0.1815
          49    0.0799   -0.2697    0.0405   -0.3676   -0.1478    0.0428    0.2119    0.0926
          50   -0.2753    0.1673    0.0393   -0.1427   -0.0308   -0.0042   -0.0019   -0.1884
          51   -0.1707    0.4001   -0.0336    0.4369    0.1195   -0.0309   -0.0504    0.2591


   Root No.       9        10        11        12        13        14        15        16

                 9 A      10 A      11 A      12 A      13 A      14 A      15 A      16 A   

                   0.0       0.0       0.0       0.1       0.2       0.3       0.5       0.6
  
           1   -0.0572   -0.1250   -0.0431   -0.0461   -0.0189   -0.0439    0.0043   -0.0004
           2    0.2628   -0.0036    0.0017   -0.0960   -0.0255   -0.0069    0.0002   -0.0004
           3   -0.0360   -0.0862   -0.0712   -0.1913   -0.0687   -0.0263   -0.0007   -0.0001
           4   -0.0582   -0.1243   -0.0435   -0.0492   -0.0211   -0.0435    0.0042   -0.0000
           5    0.2741   -0.0130    0.0074   -0.0849   -0.0332    0.0320   -0.0014    0.0070
           6    0.0944   -0.0637   -0.0513   -0.1835   -0.0597   -0.0680    0.0015    0.0027
           7   -0.0567   -0.1188   -0.0410   -0.0482   -0.0095   -0.0205   -0.0016   -0.0030
           8    0.2633   -0.0027    0.0020   -0.0988   -0.0258   -0.0080   -0.0009   -0.0018
           9   -0.3449   -0.1765   -0.1106   -0.1915   -0.0429   -0.0084    0.0013   -0.0077
          10   -0.1678   -0.1524   -0.0619   -0.0520   -0.0278   -0.0485    0.0086   -0.0009
          11    0.4980    0.0619    0.0346   -0.0680   -0.0185   -0.0503    0.0030   -0.0071
          12    0.0431   -0.0628   -0.0616   -0.1806   -0.0682   -0.0493    0.0019   -0.0033
          13    0.0887   -0.1018   -0.0152   -0.0295   -0.0141   -0.0303    0.0034   -0.0017
          14   -0.0454   -0.0842   -0.0476   -0.1416   -0.0422   -0.0385    0.0014    0.0002
          15    0.0718   -0.0535   -0.0566   -0.1735   -0.0627   -0.0271   -0.0003   -0.0003
          16    0.2248   -0.1167   -0.0035   -0.0248   -0.0052   -0.0046    0.0039   -0.0031
          17   -0.2314   -0.0581   -0.0639   -0.1490   -0.0551   -0.0717    0.0004    0.0027
          18    0.1776   -0.0315   -0.0466   -0.1606   -0.0527   -0.0078   -0.0008    0.0035
          19    0.0677   -0.0678   -0.0009   -0.0177   -0.0115   -0.0185    0.0003   -0.0078
          20   -0.1130   -0.1751   -0.0796   -0.1927   -0.0664   -0.0700    0.0055    0.0029
          21    0.0508   -0.0480   -0.0535   -0.1750   -0.0645   -0.0226   -0.0016   -0.0028
          22    0.0394    0.0556   -0.1468    0.1457   -0.0705   -0.0137   -0.0242   -0.0738
          23   -0.0469    0.0943    0.0424    0.1090   -0.0943   -0.0155   -0.0835   -0.0643
          24   -0.0298    0.1690   -0.1213    0.1128   -0.0616   -0.0097    0.0401   -0.0315
          25    0.0406   -0.0932   -0.1055    0.1423   -0.0968    0.0292   -0.1918    0.0859
          26   -0.0074    0.0117    0.0250    0.1375   -0.1909    0.0682    0.3035    0.1710
          27   -0.0196   -0.0566   -0.0675    0.1128   -0.1088    0.0528   -0.1311    0.2352
          28    0.0844    0.2623   -0.3032    0.1868   -0.1108    0.0121    0.2990    0.2181
          29   -0.0457    0.2203   -0.0386    0.1202   -0.0803   -0.0521   -0.2728    0.0355
          30   -0.0140    0.4300   -0.2915    0.1380   -0.0353   -0.0654   -0.1600    0.2093
          31   -0.0246   -0.0225    0.0315    0.1043   -0.0516   -0.0115   -0.0603   -0.1566
          32   -0.0994    0.0229    0.1912    0.0751   -0.0797   -0.0154   -0.1157   -0.1256
          33   -0.0729    0.1225    0.0722    0.0752   -0.0526   -0.0104    0.1472   -0.1851
          34   -0.0141   -0.0654    0.0646    0.0800   -0.0114   -0.0498   -0.3560    0.0214
          35   -0.1047   -0.0031    0.1549    0.0669   -0.0864    0.0215    0.5564   -0.1291
          36   -0.0658    0.0874    0.0950    0.0558   -0.0229   -0.0334   -0.0549   -0.0533
          37   -0.0266    0.0095    0.0002    0.1269   -0.0961    0.0006    0.0538   -0.4218
          38   -0.1711   -0.0444    0.4265    0.0431   -0.0517   -0.0855   -0.1889    0.4871
          39   -0.0723    0.1013    0.0982    0.0554   -0.0290   -0.0115    0.0615    0.0106
          40   -0.0797   -0.0884    0.1983    0.0723   -0.0393   -0.0357    0.2325    0.3477
          41   -0.0686    0.0593    0.0982    0.0935   -0.0886   -0.0072   -0.2549   -0.3786
          42   -0.1149    0.1125    0.2155    0.0779   -0.0834   -0.0543    0.0813   -0.1706
          43   -0.0223    0.2735    0.1756   -0.1915    0.1542    0.1324    0.0019   -0.0005
          44   -0.0935   -0.0370   -0.2472    0.2376    0.0942    0.0174    0.0163   -0.0225
          45    0.1791   -0.3846    0.0816    0.4579    0.2715   -0.1043    0.0209   -0.0137
          46   -0.0430    0.3279    0.1845   -0.2605    0.1263    0.2449   -0.0075    0.0042
          47   -0.1412   -0.0922   -0.2673   -0.0234    0.2316    0.6480   -0.0351    0.0215
          48    0.0851   -0.1309    0.1459    0.1260    0.1578    0.5262   -0.0333    0.0108
          49    0.0048    0.1475    0.1099   -0.1390    0.3040   -0.0987    0.0294   -0.0077
          50   -0.1298    0.0430   -0.2399   -0.0283    0.6128   -0.3659    0.0665    0.0014
          51    0.0682    0.0717    0.2235    0.0441    0.3838   -0.0804    0.0269   -0.0036


   Root No.      17        18        19        20        21        22        23        24

                17 A      18 A      19 A      20 A      21 A      22 A      23 A      24 A   

                   0.6       0.7       1.0       1.0       1.2       1.2       1.2       1.4
  
           1    0.1250   -0.0760   -0.1471   -0.0012    0.0027   -0.2189    0.0291   -0.0387
           2    0.0387    0.1277   -0.1049   -0.0013    0.0004    0.3018   -0.0406   -0.0996
           3   -0.0864   -0.0347    0.1082   -0.0000    0.0015   -0.0719    0.0095   -0.1361
           4    0.1008   -0.0722   -0.1482   -0.0013    0.0038   -0.2654    0.0353   -0.0677
           5    0.2530    0.0320    0.4908    0.0049   -0.0021   -0.3399    0.0451    0.2172
           6    0.4846   -0.3960   -0.0113    0.0009   -0.0069    0.2502   -0.0326    0.3814
           7    0.0475    0.2789    0.5497    0.0044   -0.0066   -0.0252    0.0049    0.2167
           8    0.0125    0.2285    0.1097    0.0007   -0.0035    0.4206   -0.0558   -0.0623
           9    0.0100    0.6177   -0.2849   -0.0026    0.0005   -0.0390    0.0043    0.3799
          10   -0.2171   -0.3274    0.0007    0.0034   -0.0076    0.4900   -0.0650    0.2515
          11   -0.3320   -0.0173   -0.3706   -0.0030    0.0014   -0.2559    0.0330    0.3806
          12   -0.3787   -0.1972    0.0403    0.0009   -0.0014   -0.1139    0.0150    0.1796
          13    0.1237   -0.0496   -0.1410   -0.0017    0.0019   -0.1304    0.0175   -0.0682
          14    0.0472    0.0972   -0.0851   -0.0006    0.0013    0.1537   -0.0208   -0.1090
          15   -0.0888   -0.0240    0.1060    0.0005    0.0010   -0.0455    0.0061   -0.1621
          16    0.0642    0.1519   -0.1476   -0.0015    0.0011    0.0711   -0.0098   -0.0954
          17    0.1639   -0.1893   -0.1192   -0.0015    0.0033   -0.1358    0.0181   -0.1284
          18    0.3625    0.0888   -0.1712   -0.0030    0.0046   -0.0002   -0.0007   -0.3574
          19   -0.2431    0.1225    0.0307   -0.0004   -0.0004    0.0802   -0.0097   -0.1965
          20   -0.1807   -0.2311    0.0753    0.0029    0.0020   -0.1380    0.0185   -0.1829
          21   -0.2882    0.0215    0.2147    0.0016   -0.0000    0.0253   -0.0028   -0.2595
          22    0.0016    0.0007    0.0030   -0.1730   -0.0588   -0.0218   -0.1670    0.0004
          23    0.0016   -0.0000    0.0016   -0.1219    0.0304    0.0206    0.1560    0.0011
          24    0.0003    0.0024   -0.0016    0.1593   -0.1485    0.0117    0.1000   -0.0022
          25   -0.0020   -0.0015    0.0033   -0.2858    0.0697   -0.0380   -0.2982    0.0013
          26   -0.0004    0.0019   -0.0034    0.1881    0.0672    0.0465    0.3426    0.0019
          27   -0.0045    0.0009   -0.0013    0.0670    0.0455   -0.0034   -0.0290   -0.0004
          28   -0.0004    0.0033   -0.0023    0.1299   -0.0664   -0.0346   -0.2578    0.0001
          29    0.0011    0.0012    0.0027   -0.2582    0.1848    0.0236    0.1587    0.0038
          30   -0.0005    0.0055   -0.0016    0.0627    0.0694    0.0092    0.0554    0.0023
          31    0.0016   -0.0019    0.0005   -0.1192   -0.1747   -0.0052   -0.0284   -0.0025
          32    0.0017   -0.0022   -0.0001   -0.0991   -0.0803    0.0181    0.1460   -0.0017
          33    0.0017    0.0002   -0.0009    0.0597   -0.2779    0.0047    0.0613   -0.0038
          34    0.0001    0.0004   -0.0003    0.2465    0.3148    0.0125    0.0725    0.0025
          35    0.0032   -0.0003    0.0045   -0.0254    0.2150   -0.0471   -0.3625    0.0003
          36    0.0001    0.0011    0.0005    0.2415    0.1539    0.0029    0.0178    0.0005
          37    0.0053   -0.0014   -0.0024    0.4547   -0.0560    0.0190    0.1549   -0.0025
          38   -0.0032    0.0060   -0.0053    0.3236   -0.2084   -0.0499   -0.3642   -0.0014
          39   -0.0010    0.0006   -0.0002   -0.3718   -0.4381   -0.0133   -0.0754   -0.0027
          40   -0.0029    0.0035    0.0017   -0.2689   -0.0331    0.0685    0.5174   -0.0005
          41    0.0042   -0.0043   -0.0013   -0.0160   -0.2395   -0.0142   -0.0842   -0.0041
          42    0.0015   -0.0006    0.0095   -0.2255    0.5807   -0.0133   -0.1363    0.0047
          43   -0.0022   -0.0172   -0.0007    0.0053    0.0051   -0.0017    0.0002   -0.0130
          44    0.0066   -0.0096    0.0077   -0.0049   -0.0095    0.0034    0.0044   -0.0048
          45   -0.0040   -0.0267    0.0141    0.0035   -0.0009   -0.0014    0.0037   -0.0307
          46   -0.0031   -0.0160   -0.0082    0.0049    0.0082    0.0008   -0.0000   -0.0025
          47   -0.0179   -0.0557   -0.0219    0.0018    0.0257   -0.0042   -0.0005    0.0020
          48   -0.0096   -0.0507   -0.0237   -0.0002    0.0099   -0.0014   -0.0004    0.0126
          49    0.0010    0.0021    0.0084    0.0037   -0.0037   -0.0009    0.0041    0.0149
          50    0.0004    0.0151    0.0194    0.0101    0.0117   -0.0035    0.0062   -0.0126
          51    0.0012   -0.0090    0.0035    0.0055    0.0066   -0.0009    0.0043   -0.0061


   Root No.      25        26        27        28        29        30        31        32

                25 A      26 A      27 A      28 A      29 A      30 A      31 A      32 A   

                   2.1       2.3       2.6       3.2       3.3       4.0       4.1       5.0
  
           1   -0.0006    0.0004   -0.1942   -0.1175   -0.0042    0.0010    0.0125    0.0000
           2   -0.0010    0.0007   -0.1010   -0.1622   -0.0053    0.0017   -0.0259    0.0005
           3   -0.0113   -0.0007    0.1348   -0.2859   -0.0106    0.0016    0.0058   -0.0020
           4   -0.0017    0.0010   -0.4167   -0.4011   -0.0153    0.0022    0.2099    0.0009
           5   -0.0055    0.0017   -0.0019    0.0335    0.0024   -0.0002    0.0658   -0.0010
           6   -0.0070    0.0009   -0.1721    0.0661    0.0035   -0.0004    0.0699    0.0003
           7   -0.0081    0.0005    0.1173    0.1460    0.0047   -0.0020    0.0217    0.0003
           8   -0.0091    0.0000   -0.0517   -0.3507   -0.0148    0.0023   -0.3394    0.0013
           9   -0.0121    0.0021   -0.0852    0.0628    0.0043   -0.0002   -0.1271   -0.0000
          10   -0.0052    0.0016   -0.0078    0.1719    0.0091   -0.0013   -0.0329   -0.0020
          11   -0.0091    0.0006   -0.1056    0.2278    0.0100   -0.0016    0.0041   -0.0007
          12   -0.0110   -0.0011    0.5035   -0.3086   -0.0146    0.0010    0.1305    0.0020
          13   -0.0044   -0.0011    0.2526   -0.0544   -0.0035    0.0012   -0.4717    0.0004
          14    0.0013   -0.0002    0.1261   -0.0631   -0.0027   -0.0026    0.6632   -0.0007
          15    0.0037   -0.0002   -0.1937   -0.1061   -0.0040    0.0005   -0.1670   -0.0001
          16   -0.0040    0.0001    0.2547   -0.0582   -0.0019    0.0001    0.1259   -0.0009
          17    0.0028   -0.0020    0.2328    0.0556   -0.0005   -0.0008   -0.1862    0.0013
          18    0.0110   -0.0013    0.2052    0.4158    0.0169   -0.0023    0.0552   -0.0009
          19    0.0149   -0.0009   -0.0056    0.3111    0.0114   -0.0009    0.1358    0.0008
          20    0.0183   -0.0003   -0.0985    0.2582    0.0096   -0.0009   -0.1810    0.0001
          21    0.0180   -0.0002   -0.3923    0.1536    0.0066   -0.0000    0.0298    0.0000
          22   -0.0196   -0.1765   -0.0007    0.0067   -0.0688    0.4417    0.0016    0.2717
          23   -0.0026   -0.1549    0.0001   -0.0060    0.1941    0.3150    0.0003   -0.3559
          24    0.0028    0.1819    0.0019    0.0027    0.0127    0.6569    0.0018   -0.0285
          25   -0.0138   -0.2474   -0.0010   -0.0041    0.1145   -0.1146   -0.0000    0.0977
          26   -0.0106    0.0132   -0.0020    0.0169   -0.4032   -0.0770    0.0004    0.2650
          27    0.0086    0.1428    0.0014   -0.0059    0.1141   -0.2206   -0.0006   -0.1952
          28    0.0088    0.2618    0.0005   -0.0131    0.3190   -0.1508   -0.0014   -0.2350
          29   -0.0189   -0.3781   -0.0020    0.0016   -0.0359   -0.1110   -0.0001   -0.1135
          30   -0.0080    0.0423   -0.0010    0.0098   -0.2173   -0.1738    0.0002    0.2237
          31   -0.0045    0.1341   -0.0005    0.0116   -0.2860    0.0040    0.0007    0.2302
          32    0.0103    0.2260    0.0011   -0.0100    0.2380   -0.0319   -0.0006   -0.0871
          33   -0.0221   -0.2395   -0.0005   -0.0038    0.0823   -0.0594    0.0005   -0.1962
          34    0.0120    0.2229   -0.0001    0.0102   -0.2705    0.0694   -0.0005   -0.3276
          35   -0.0020   -0.0487   -0.0001    0.0034   -0.0789    0.0007    0.0002   -0.0326
          36   -0.0135   -0.2791    0.0004   -0.0172    0.4192   -0.0506   -0.0004    0.4307
          37   -0.0165   -0.2937   -0.0008    0.0015   -0.0600   -0.2192   -0.0003   -0.1524
          38    0.0003   -0.1156   -0.0002    0.0028   -0.0607    0.1115    0.0002    0.0341
          39   -0.0140   -0.0518   -0.0017    0.0123   -0.3368   -0.1747   -0.0006   -0.2236
          40    0.0042    0.0966    0.0014   -0.0103    0.2588   -0.0246   -0.0003    0.1128
          41    0.0115    0.4503    0.0010   -0.0069    0.1544   -0.1870   -0.0004    0.2868
          42    0.0076    0.2087    0.0004    0.0035   -0.0684    0.0273   -0.0002   -0.0134
          43   -0.3657    0.0160   -0.0043    0.0100    0.0038    0.0143    0.0018   -0.0049
          44    0.3137   -0.0137    0.0042   -0.0082   -0.0044   -0.0018   -0.0012    0.0002
          45   -0.3581    0.0141   -0.0025    0.0049   -0.0005   -0.0108    0.0030   -0.0041
          46   -0.2163    0.0091   -0.0047    0.0054   -0.0004   -0.0084   -0.0007    0.0010
          47   -0.1935    0.0039   -0.0032    0.0058    0.0025    0.0130   -0.0013    0.0006
          48    0.3930   -0.0235    0.0012   -0.0036   -0.0064    0.0146    0.0005    0.0071
          49    0.6204   -0.0246    0.0098   -0.0156   -0.0108   -0.0121   -0.0020    0.0070
          50   -0.1058    0.0171    0.0010    0.0015   -0.0045   -0.0292    0.0018    0.0016
          51    0.0125    0.0044    0.0003   -0.0004   -0.0009   -0.0090   -0.0016    0.0002


   Root No.      33        34        35        36        37        38        39        40

                33 A      34 A      35 A      36 A      37 A      38 A      39 A      40 A   

                   5.9       7.1       7.2       8.4       8.6       8.8       9.0       9.1
  
           1   -0.1158   -0.0014    0.0030   -0.0086   -0.4300    0.0101    0.2400    0.6049
           2   -0.1626    0.0009    0.0079    0.0114    0.6711   -0.0105    0.1077    0.4004
           3   -0.2591   -0.0011   -0.0124    0.0033    0.0227   -0.0039   -0.1115   -0.2770
           4    0.3643    0.0010   -0.0063    0.0055    0.2710   -0.0065   -0.1311   -0.3171
           5    0.0289   -0.0001   -0.0006   -0.0002   -0.0342    0.0005   -0.0006   -0.0084
           6    0.0545   -0.0001    0.0003   -0.0000   -0.0073    0.0004    0.0096    0.0251
           7   -0.0793    0.0000    0.0028    0.0026    0.1578   -0.0024   -0.0055    0.0087
           8    0.3619   -0.0001   -0.0049   -0.0066   -0.4273    0.0069   -0.0189   -0.1068
           9    0.0551    0.0003    0.0019    0.0011    0.0206   -0.0002    0.0022    0.0187
          10   -0.0821   -0.0003   -0.0021    0.0011   -0.0061   -0.0008   -0.0518   -0.1402
          11   -0.1145   -0.0005   -0.0037   -0.0004   -0.0707    0.0003   -0.0572   -0.1634
          12    0.3415    0.0009    0.0050    0.0002    0.0705    0.0008    0.1006    0.2785
          13   -0.1545    0.0004    0.0054    0.0008    0.0748   -0.0010   -0.0307   -0.0818
          14   -0.2075   -0.0003    0.0023   -0.0047   -0.2095    0.0037   -0.0160   -0.0762
          15   -0.3518   -0.0001    0.0104   -0.0022   -0.0594    0.0019   -0.0107   -0.0506
          16   -0.2379   -0.0004    0.0054   -0.0021   -0.0815    0.0015   -0.0337   -0.1173
          17   -0.0991    0.0003    0.0034   -0.0005    0.0145   -0.0000   -0.0296   -0.0893
          18    0.2800    0.0001   -0.0081    0.0018    0.0211   -0.0011   -0.0152   -0.0287
          19    0.3041    0.0000   -0.0081    0.0008    0.0164   -0.0007    0.0105    0.0438
          20    0.1897    0.0006   -0.0025    0.0013    0.0587   -0.0011    0.0122    0.0449
          21   -0.1249    0.0001    0.0063   -0.0023   -0.0664    0.0022    0.0216    0.0379
          22   -0.0005    0.1850    0.0090   -0.2574    0.0040    0.0243   -0.0080    0.0018
          23    0.0012   -0.1953   -0.0231    0.2178   -0.0054   -0.1690    0.0216   -0.0049
          24   -0.0005   -0.0864   -0.0102   -0.0486    0.0001   -0.0810    0.0159   -0.0066
          25    0.0004    0.1685    0.0139   -0.1022    0.0020    0.0406   -0.0038    0.0007
          26   -0.0009    0.0593    0.0045   -0.0309    0.0010    0.0440   -0.0070    0.0022
          27    0.0010   -0.1164   -0.0072    0.1157   -0.0022   -0.0066   -0.0008    0.0009
          28    0.0014   -0.1121   -0.0093    0.0576   -0.0008    0.0127   -0.0041    0.0027
          29    0.0003   -0.0586   -0.0007    0.1514   -0.0032   -0.0760    0.0110   -0.0030
          30    0.0002    0.1273    0.0041   -0.0918    0.0016    0.0785   -0.0204    0.0068
          31   -0.0016   -0.3844   -0.0378    0.6020   -0.0048    0.3124   -0.0115    0.0041
          32    0.0011   -0.0612   -0.0053   -0.4088    0.0162    0.6982   -0.0707    0.0216
          33   -0.0002    0.6328    0.0374    0.3513   -0.0030    0.2339   -0.0024    0.0006
          34    0.0000    0.2036    0.0141   -0.0292    0.0002   -0.0222    0.0035   -0.0012
          35    0.0000    0.0333    0.0027    0.0131   -0.0005   -0.0261    0.0024   -0.0006
          36   -0.0005   -0.2884   -0.0198    0.0042    0.0002    0.0076   -0.0052    0.0017
          37    0.0007   -0.1744   -0.0054   -0.2555    0.0028   -0.1466   -0.0017    0.0012
          38   -0.0005    0.0094   -0.0018    0.0154   -0.0005   -0.0316    0.0045   -0.0014
          39    0.0005   -0.2642   -0.0121   -0.3178    0.0034   -0.1894   -0.0011    0.0010
          40    0.0000    0.1147    0.0109   -0.0142   -0.0033   -0.2214    0.0181   -0.0057
          41   -0.0004    0.2150    0.0211    0.0448   -0.0071   -0.4367    0.0366   -0.0114
          42    0.0003   -0.0058   -0.0004   -0.0124   -0.0007   -0.0413    0.0023   -0.0007
          43    0.0074   -0.0326    0.5095    0.0218   -0.0272   -0.0365   -0.4452    0.1579
          44    0.0007   -0.0013    0.0000   -0.0007   -0.0010   -0.0004   -0.0013   -0.0015
          45    0.0019    0.0030   -0.1077   -0.0069    0.0067    0.0064    0.0901   -0.0306
          46    0.0007    0.0134   -0.2913   -0.0257    0.0339    0.0516    0.6202   -0.2215
          47   -0.0029    0.0277   -0.3155    0.0031   -0.0161   -0.0302   -0.2363    0.0901
          48    0.0072   -0.0309    0.4958   -0.0024    0.0076    0.0218    0.2241   -0.0910
          49   -0.0073    0.0190   -0.2137    0.0028   -0.0091   -0.0153   -0.1653    0.0591
          50    0.0047   -0.0290    0.3162   -0.0053    0.0140    0.0282    0.2414   -0.0924
          51   -0.0052    0.0289   -0.3833    0.0070   -0.0156   -0.0299   -0.2990    0.1139


   Root No.      41        42        43        44        45

                41 A      42 A      43 A      44 A      45 A   

                   9.5      18.2      20.5      23.3      23.7
  
           1    0.2409    0.0001   -0.0249   -0.0202   -0.0004
           2    0.1010    0.0000   -0.0171   -0.0116   -0.0004
           3    0.7343    0.0012   -0.0586    0.0134   -0.0022
           4   -0.1011   -0.0002   -0.0205   -0.0056   -0.0002
           5    0.0103    0.0002   -0.0078   -0.0047   -0.0000
           6   -0.0187   -0.0001   -0.0075   -0.0138    0.0000
           7   -0.0057   -0.0001    0.0012    0.0025    0.0003
           8    0.0167    0.0001   -0.0262   -0.0010   -0.0000
           9   -0.0201   -0.0001   -0.0081   -0.0047    0.0000
          10    0.0671    0.0003    0.0015    0.0083   -0.0003
          11    0.1052    0.0000   -0.0007    0.0078   -0.0000
          12   -0.2050   -0.0002   -0.0208    0.0131    0.0008
          13   -0.1576    0.0001    0.2254    0.5843    0.0111
          14   -0.1400    0.0001    0.2799    0.3162    0.0059
          15   -0.3345    0.0003    0.5433   -0.4157   -0.0079
          16   -0.2145   -0.0002   -0.4292   -0.3751   -0.0069
          17   -0.1441   -0.0005   -0.2913   -0.2538   -0.0045
          18    0.0902    0.0001    0.0361    0.0376    0.0007
          19    0.1719    0.0002    0.2462   -0.1938   -0.0037
          20    0.0515    0.0000    0.0631   -0.0525   -0.0011
          21   -0.2439   -0.0007   -0.4845    0.3706    0.0076
          22    0.0008   -0.4179    0.0003    0.0078   -0.4156
          23   -0.0045    0.4187   -0.0003    0.0086   -0.4486
          24    0.0008    0.0430    0.0006   -0.0094    0.4946
          25    0.0011    0.4809   -0.0003   -0.0064    0.3318
          26    0.0013    0.0696   -0.0002   -0.0010    0.0518
          27   -0.0005   -0.3354   -0.0000    0.0045   -0.2388
          28   -0.0021   -0.0936    0.0001   -0.0016    0.0803
          29    0.0001   -0.4489    0.0004   -0.0073    0.3766
          30    0.0002    0.2950   -0.0004    0.0048   -0.2492
          31   -0.0018    0.0197   -0.0001    0.0002   -0.0034
          32    0.0020   -0.0045   -0.0000   -0.0004    0.0129
          33    0.0007   -0.0225   -0.0000   -0.0002   -0.0006
          34    0.0004    0.0024   -0.0001   -0.0004    0.0130
          35    0.0003   -0.0018   -0.0001    0.0001   -0.0063
          36   -0.0004    0.0004   -0.0000    0.0003   -0.0108
          37    0.0001    0.0169   -0.0002   -0.0000   -0.0045
          38    0.0003   -0.0082   -0.0000   -0.0000   -0.0002
          39    0.0000    0.0201   -0.0001   -0.0000    0.0013
          40    0.0000   -0.0056   -0.0000    0.0001   -0.0058
          41    0.0003   -0.0240   -0.0000   -0.0002    0.0097
          42   -0.0001    0.0017    0.0000    0.0000    0.0027
          43   -0.0003    0.0017   -0.0005   -0.0002    0.0020
          44    0.0027    0.0002   -0.0010   -0.0002    0.0004
          45   -0.0018    0.0002   -0.0010   -0.0001    0.0004
          46    0.0007   -0.0019    0.0020    0.0002   -0.0038
          47   -0.0142   -0.0038    0.0013   -0.0000    0.0021
          48    0.0115   -0.0007    0.0022    0.0000   -0.0079
          49   -0.0000   -0.0028   -0.0009   -0.0002    0.0061
          50    0.0110    0.0026    0.0002    0.0001    0.0019
          51   -0.0129   -0.0023   -0.0011   -0.0003    0.0092


          FORCE CONSTANTS IN MILLIDYNES/ANGSTROM (= 10**5 DYNES/CM)

  -0.09850  -0.04185  -0.03208  -0.02681  -0.02306  -0.01951  -0.01373  -0.00695
   0.00086   0.01335   0.03033   0.05482   0.17723   0.30116   0.45563   0.63347
   0.63889   0.74419   0.97515   1.02480   1.17110   1.21991   1.22938   1.40397
   2.12378   2.28839   2.55399   3.17770   3.25181   4.01428   4.14190   5.00598
   5.90765   7.10932   7.18069   8.39667   8.56271   8.75031   9.04555   9.13149
   9.53693  18.24938  20.47264  23.31221  23.73513


           ASSOCIATED EIGENVECTORS




    ROOT NO.    1           2           3           4           5           6

            -0.09850    -0.04185    -0.03208    -0.02681    -0.02306    -0.01951
  
         1  -0.00299    -0.02526    -0.00744    -0.01161     0.05498    -0.02172
         2  -0.00909    -0.01195     0.00086     0.00512    -0.02401     0.07474
         3   0.02150    -0.00722    -0.04714     0.04680    -0.02811    -0.03058
         4  -0.00371    -0.02494    -0.00761    -0.01172     0.05798    -0.02374
         5   0.00103     0.04526     0.02010     0.11344    -0.11411     0.54731
         6   0.00784    -0.05058    -0.04377     0.09428    -0.06808    -0.24878
         7  -0.01448    -0.08251    -0.02822    -0.11788     0.16199    -0.48919
         8  -0.01520    -0.03044    -0.00523    -0.02844     0.00806    -0.07143
         9   0.04968    -0.01205    -0.05474     0.13153    -0.03145     0.15186
        10   0.01676     0.03805     0.00110    -0.01416     0.05743     0.35940
        11  -0.00751    -0.01614     0.00164    -0.11664     0.00590    -0.16781
        12   0.02853     0.01429    -0.04253    -0.01898    -0.01391    -0.00720
        13  -0.01296    -0.03761     0.00321     0.10891    -0.02248     0.01291
        14  -0.00456    -0.05291    -0.01613     0.07369     0.01180    -0.03008
        15   0.02661     0.02060    -0.04110    -0.04957    -0.01361     0.01248
        16  -0.00296     0.01278     0.00821     0.04524     0.30063     0.04492
        17  -0.02001    -0.12005    -0.02301     0.14274    -0.44348    -0.07098
        18   0.03278     0.06997    -0.03723    -0.21050     0.13216     0.05876
        19  -0.03264    -0.10149     0.00591     0.27591    -0.41312     0.00300
        20   0.01006    -0.01728    -0.02165     0.05791     0.49559    -0.07184
        21   0.01723    -0.00807    -0.04036     0.03576    -0.15072     0.00186
        22  -0.08762     0.10960    -0.02349     0.01194    -0.04834    -0.02523
        23  -0.03298     0.03302    -0.00553    -0.00895    -0.04036    -0.06353
        24  -0.02484     0.00057     0.08244    -0.12575     0.04357     0.09219
        25  -0.06341     0.29426     0.08857    -0.14506    -0.09895     0.01350
        26  -0.00654     0.28275     0.04793    -0.09927    -0.19786    -0.18740
        27   0.01541     0.31960     0.25553    -0.36724    -0.06266     0.11995
        28  -0.09897    -0.03804    -0.16774     0.19011    -0.05345    -0.12772
        29  -0.04481    -0.15729    -0.07231     0.09186     0.06422     0.00514
        30  -0.04623    -0.33478    -0.06604     0.08640     0.19912     0.16042
        31  -0.09486     0.02383    -0.02715     0.00156     0.03045     0.05101
        32  -0.03538    -0.03009     0.00014    -0.02261     0.02551     0.00401
        33  -0.02099     0.00315     0.03166    -0.06443    -0.00850    -0.03569
        34  -0.04648    -0.04435     0.41075     0.16055     0.00831    -0.07763
        35  -0.03056    -0.18800     0.37379     0.03131     0.15464     0.13097
        36   0.01680    -0.06414     0.38803     0.05889    -0.01148    -0.11781
        37  -0.12390     0.08263    -0.28870    -0.09966     0.03501     0.12309
        38  -0.03007    -0.02433    -0.27487    -0.06676     0.03229     0.00868
        39  -0.00576    -0.03742     0.22393     0.01113    -0.01055    -0.08779
        40  -0.08795    -0.05018    -0.03372    -0.00126     0.09378     0.10756
        41  -0.03630     0.00334     0.02855    -0.01439    -0.00565    -0.02645
        42  -0.03183     0.08431    -0.40937    -0.16624    -0.04309    -0.03249
        43   0.33259     0.02238     0.01067    -0.04211    -0.02356     0.00818
        44   0.71418     0.23164    -0.06742     0.16260     0.07548    -0.04423
        45   0.26247    -0.36089    -0.09181    -0.08956    -0.09756     0.02099
        46   0.24364     0.09052     0.01517     0.01687     0.00710    -0.00115
        47  -0.17698    -0.11487    -0.02611    -0.17889    -0.01723    -0.03292
        48  -0.17847    -0.03741    -0.07394     0.19055     0.04533    -0.02727
        49   0.07994    -0.26966     0.04046    -0.36763    -0.14776     0.04279
        50  -0.27528     0.16735     0.03925    -0.14272    -0.03078    -0.00419
        51  -0.17074     0.40007    -0.03356     0.43693     0.11953    -0.03089




    ROOT NO.    7           8           9          10          11          12

            -0.01373    -0.00695     0.00086     0.01335     0.03033     0.05482
  
         1  -0.21025     0.08182    -0.05721    -0.12497    -0.04307    -0.04606
         2  -0.05579     0.01614     0.26280    -0.00362     0.00172    -0.09600
         3   0.09979    -0.04482    -0.03600    -0.08617    -0.07123    -0.19128
         4  -0.20624     0.08057    -0.05818    -0.12428    -0.04347    -0.04922
         5  -0.02169    -0.09019     0.27415    -0.01305     0.00742    -0.08493
         6   0.30438    -0.17156     0.09443    -0.06366    -0.05131    -0.18354
         7  -0.25125     0.18862    -0.05671    -0.11885    -0.04103    -0.04817
         8  -0.06895     0.05055     0.26333    -0.00267     0.00203    -0.09881
         9   0.15717     0.05655    -0.34488    -0.17651    -0.11063    -0.19145
        10  -0.36092     0.14129    -0.16784    -0.15244    -0.06190    -0.05200
        11  -0.16791    -0.00584     0.49798     0.06186     0.03464    -0.06805
        12  -0.01679    -0.03419     0.04315    -0.06277    -0.06161    -0.18056
        13   0.04310    -0.11765     0.08866    -0.10179    -0.01523    -0.02946
        14   0.05689     0.13950    -0.04542    -0.08425    -0.04760    -0.14164
        15  -0.07683    -0.02452     0.07179    -0.05348    -0.05663    -0.17345
        16   0.17162    -0.21216     0.22476    -0.11675    -0.00348    -0.02479
        17  -0.16980     0.28848    -0.23140    -0.05808    -0.06386    -0.14904
        18  -0.30726     0.03363     0.17761    -0.03154    -0.04655    -0.16056
        19   0.12300    -0.18676     0.06766    -0.06777    -0.00088    -0.01765
        20   0.37005     0.09345    -0.11296    -0.17506    -0.07961    -0.19270
        21   0.00966    -0.06773     0.05084    -0.04805    -0.05354    -0.17499
        22   0.07857     0.02762     0.03935     0.05559    -0.14680     0.14566
        23   0.05837     0.07306    -0.04692     0.09433     0.04237     0.10899
        24   0.03620     0.07299    -0.02985     0.16901    -0.12133     0.11280
        25   0.16248     0.10043     0.04062    -0.09320    -0.10550     0.14230
        26   0.11361     0.10489    -0.00744     0.01171     0.02501     0.13747
        27   0.16675     0.18181    -0.01965    -0.05664    -0.06748     0.11277
        28   0.02445     0.02435     0.08437     0.26230    -0.30319     0.18680
        29   0.02976     0.09627    -0.04574     0.22031    -0.03859     0.12019
        30  -0.02630     0.10528    -0.01403     0.42998    -0.29151     0.13798
        31   0.02906    -0.07445    -0.02457    -0.02249     0.03147     0.10434
        32   0.02015    -0.00799    -0.09942     0.02291     0.19121     0.07508
        33  -0.07219    -0.13940    -0.07285     0.12253     0.07220     0.07522
        34  -0.05447    -0.17096    -0.01412    -0.06541     0.06458     0.07995
        35   0.03215     0.06968    -0.10468    -0.00307     0.15494     0.06693
        36  -0.13309    -0.20328    -0.06581     0.08741     0.09504     0.05583
        37   0.08554    -0.00761    -0.02662     0.00953     0.00023     0.12692
        38  -0.04770    -0.18354    -0.17112    -0.04442     0.42646     0.04309
        39  -0.11413    -0.18800    -0.07230     0.10125     0.09821     0.05537
        40  -0.01783    -0.16955    -0.07969    -0.08840     0.19835     0.07228
        41   0.04463     0.04585    -0.06861     0.05934     0.09823     0.09346
        42  -0.08224    -0.22591    -0.11487     0.11249     0.21547     0.07793
        43   0.10051     0.10407    -0.02227     0.27349     0.17557    -0.19146
        44  -0.13554    -0.22726    -0.09354    -0.03699    -0.24717     0.23764
        45   0.12411     0.20853     0.17914    -0.38463     0.08156     0.45786
        46   0.07072     0.09780    -0.04304     0.32795     0.18450    -0.26046
        47  -0.05635    -0.27461    -0.14122    -0.09224    -0.26730    -0.02344
        48  -0.01888     0.18150     0.08511    -0.13091     0.14586     0.12598
        49   0.21192     0.09257     0.00483     0.14748     0.10988    -0.13899
        50  -0.00188    -0.18843    -0.12977     0.04298    -0.23991    -0.02826
        51  -0.05036     0.25910     0.06817     0.07168     0.22346     0.04411




    ROOT NO.   13          14          15          16          17          18

             0.17723     0.30116     0.45563     0.63347     0.63889     0.74419
  
         1  -0.01891    -0.04393     0.00431    -0.00041     0.12502    -0.07602
         2  -0.02547    -0.00690     0.00023    -0.00038     0.03874     0.12775
         3  -0.06866    -0.02630    -0.00072    -0.00011    -0.08644    -0.03466
         4  -0.02109    -0.04352     0.00422    -0.00004     0.10083    -0.07224
         5  -0.03322     0.03201    -0.00143     0.00704     0.25299     0.03202
         6  -0.05969    -0.06804     0.00152     0.00273     0.48455    -0.39596
         7  -0.00946    -0.02050    -0.00159    -0.00303     0.04747     0.27894
         8  -0.02576    -0.00801    -0.00094    -0.00177     0.01247     0.22855
         9  -0.04294    -0.00844     0.00132    -0.00767     0.01000     0.61774
        10  -0.02776    -0.04854     0.00865    -0.00091    -0.21709    -0.32743
        11  -0.01852    -0.05027     0.00305    -0.00708    -0.33201    -0.01730
        12  -0.06821    -0.04932     0.00190    -0.00332    -0.37869    -0.19720
        13  -0.01407    -0.03034     0.00343    -0.00170     0.12374    -0.04958
        14  -0.04225    -0.03845     0.00142     0.00023     0.04715     0.09723
        15  -0.06268    -0.02707    -0.00027    -0.00033    -0.08878    -0.02403
        16  -0.00520    -0.00460     0.00386    -0.00311     0.06418     0.15195
        17  -0.05508    -0.07171     0.00045     0.00266     0.16390    -0.18930
        18  -0.05270    -0.00779    -0.00081     0.00354     0.36246     0.08880
        19  -0.01145    -0.01847     0.00032    -0.00775    -0.24309     0.12246
        20  -0.06640    -0.07001     0.00551     0.00287    -0.18067    -0.23108
        21  -0.06455    -0.02263    -0.00159    -0.00284    -0.28818     0.02147
        22  -0.07054    -0.01369    -0.02421    -0.07377     0.00161     0.00067
        23  -0.09426    -0.01549    -0.08350    -0.06431     0.00161    -0.00001
        24  -0.06161    -0.00969     0.04013    -0.03151     0.00030     0.00244
        25  -0.09679     0.02916    -0.19184     0.08587    -0.00196    -0.00148
        26  -0.19086     0.06818     0.30353     0.17097    -0.00043     0.00188
        27  -0.10883     0.05276    -0.13110     0.23520    -0.00454     0.00088
        28  -0.11075     0.01214     0.29897     0.21814    -0.00036     0.00331
        29  -0.08027    -0.05214    -0.27280     0.03550     0.00105     0.00118
        30  -0.03534    -0.06543    -0.16002     0.20930    -0.00050     0.00551
        31  -0.05164    -0.01151    -0.06028    -0.15663     0.00161    -0.00192
        32  -0.07970    -0.01537    -0.11572    -0.12557     0.00175    -0.00218
        33  -0.05256    -0.01043     0.14716    -0.18512     0.00168     0.00023
        34  -0.01142    -0.04983    -0.35598     0.02143     0.00006     0.00039
        35  -0.08640     0.02147     0.55641    -0.12911     0.00322    -0.00027
        36  -0.02291    -0.03341    -0.05486    -0.05334     0.00014     0.00109
        37  -0.09608     0.00064     0.05380    -0.42181     0.00528    -0.00140
        38  -0.05174    -0.08548    -0.18894     0.48711    -0.00318     0.00603
        39  -0.02903    -0.01149     0.06146     0.01058    -0.00105     0.00064
        40  -0.03932    -0.03568     0.23247     0.34773    -0.00292     0.00345
        41  -0.08864    -0.00725    -0.25489    -0.37855     0.00420    -0.00435
        42  -0.08340    -0.05434     0.08132    -0.17063     0.00151    -0.00056
        43   0.15418     0.13238     0.00194    -0.00055    -0.00225    -0.01716
        44   0.09419     0.01740     0.01627    -0.02251     0.00665    -0.00960
        45   0.27149    -0.10427     0.02093    -0.01370    -0.00401    -0.02669
        46   0.12630     0.24493    -0.00750     0.00423    -0.00311    -0.01605
        47   0.23159     0.64797    -0.03510     0.02153    -0.01786    -0.05566
        48   0.15780     0.52624    -0.03327     0.01083    -0.00960    -0.05073
        49   0.30402    -0.09866     0.02943    -0.00767     0.00096     0.00212
        50   0.61279    -0.36595     0.06645     0.00136     0.00043     0.01510
        51   0.38381    -0.08035     0.02690    -0.00361     0.00116    -0.00898




    ROOT NO.   19          20          21          22          23          24

             0.97515     1.02480     1.17110     1.21991     1.22938     1.40397
  
         1  -0.14713    -0.00122     0.00266    -0.21886     0.02906    -0.03868
         2  -0.10485    -0.00134     0.00042     0.30181    -0.04057    -0.09960
         3   0.10822    -0.00004     0.00146    -0.07187     0.00948    -0.13607
         4  -0.14820    -0.00129     0.00376    -0.26543     0.03528    -0.06767
         5   0.49078     0.00486    -0.00214    -0.33986     0.04511     0.21719
         6  -0.01134     0.00090    -0.00693     0.25020    -0.03260     0.38140
         7   0.54965     0.00443    -0.00658    -0.02520     0.00487     0.21673
         8   0.10971     0.00071    -0.00347     0.42062    -0.05584    -0.06229
         9  -0.28493    -0.00262     0.00050    -0.03897     0.00426     0.37991
        10   0.00065     0.00343    -0.00758     0.48997    -0.06498     0.25146
        11  -0.37057    -0.00301     0.00144    -0.25586     0.03302     0.38056
        12   0.04026     0.00093    -0.00135    -0.11386     0.01497     0.17963
        13  -0.14101    -0.00166     0.00186    -0.13043     0.01747    -0.06816
        14  -0.08507    -0.00062     0.00132     0.15372    -0.02076    -0.10904
        15   0.10605     0.00050     0.00098    -0.04547     0.00615    -0.16213
        16  -0.14762    -0.00153     0.00114     0.07111    -0.00975    -0.09540
        17  -0.11918    -0.00150     0.00332    -0.13577     0.01814    -0.12838
        18  -0.17116    -0.00295     0.00463    -0.00022    -0.00074    -0.35737
        19   0.03069    -0.00038    -0.00042     0.08023    -0.00972    -0.19646
        20   0.07532     0.00289     0.00200    -0.13801     0.01845    -0.18288
        21   0.21470     0.00158    -0.00003     0.02533    -0.00275    -0.25950
        22   0.00301    -0.17296    -0.05882    -0.02177    -0.16696     0.00036
        23   0.00158    -0.12193     0.03044     0.02056     0.15598     0.00106
        24  -0.00164     0.15933    -0.14853     0.01172     0.09998    -0.00222
        25   0.00329    -0.28581     0.06972    -0.03802    -0.29823     0.00129
        26  -0.00344     0.18807     0.06715     0.04654     0.34263     0.00193
        27  -0.00130     0.06703     0.04554    -0.00337    -0.02901    -0.00039
        28  -0.00235     0.12987    -0.06639    -0.03459    -0.25780     0.00009
        29   0.00266    -0.25825     0.18483     0.02361     0.15867     0.00379
        30  -0.00163     0.06266     0.06941     0.00915     0.05538     0.00229
        31   0.00054    -0.11916    -0.17468    -0.00524    -0.02837    -0.00249
        32  -0.00009    -0.09908    -0.08030     0.01807     0.14598    -0.00174
        33  -0.00092     0.05968    -0.27785     0.00471     0.06126    -0.00376
        34  -0.00032     0.24652     0.31479     0.01252     0.07250     0.00255
        35   0.00449    -0.02536     0.21496    -0.04708    -0.36253     0.00031
        36   0.00048     0.24145     0.15392     0.00292     0.01782     0.00054
        37  -0.00243     0.45473    -0.05599     0.01902     0.15488    -0.00249
        38  -0.00527     0.32356    -0.20837    -0.04987    -0.36417    -0.00140
        39  -0.00016    -0.37181    -0.43807    -0.01330    -0.07543    -0.00273
        40   0.00171    -0.26894    -0.03312     0.06851     0.51741    -0.00049
        41  -0.00127    -0.01603    -0.23950    -0.01419    -0.08416    -0.00409
        42   0.00952    -0.22553     0.58075    -0.01329    -0.13631     0.00467
        43  -0.00066     0.00534     0.00512    -0.00167     0.00024    -0.01303
        44   0.00774    -0.00494    -0.00953     0.00336     0.00441    -0.00476
        45   0.01406     0.00353    -0.00090    -0.00140     0.00367    -0.03075
        46  -0.00825     0.00489     0.00823     0.00076    -0.00004    -0.00246
        47  -0.02194     0.00184     0.02571    -0.00420    -0.00054     0.00196
        48  -0.02371    -0.00018     0.00989    -0.00137    -0.00041     0.01263
        49   0.00843     0.00373    -0.00370    -0.00090     0.00414     0.01487
        50   0.01939     0.01012     0.01170    -0.00345     0.00618    -0.01262
        51   0.00353     0.00554     0.00659    -0.00089     0.00428    -0.00614




    ROOT NO.   25          26          27          28          29          30

             2.12378     2.28839     2.55399     3.17770     3.25181     4.01428
  
         1  -0.00057     0.00044    -0.19423    -0.11753    -0.00423     0.00102
         2  -0.00098     0.00067    -0.10102    -0.16221    -0.00526     0.00172
         3  -0.01130    -0.00069     0.13480    -0.28593    -0.01062     0.00159
         4  -0.00171     0.00099    -0.41674    -0.40115    -0.01532     0.00221
         5  -0.00551     0.00171    -0.00195     0.03352     0.00237    -0.00020
         6  -0.00703     0.00087    -0.17214     0.06609     0.00346    -0.00040
         7  -0.00805     0.00052     0.11730     0.14597     0.00472    -0.00204
         8  -0.00910     0.00000    -0.05167    -0.35071    -0.01484     0.00230
         9  -0.01209     0.00208    -0.08523     0.06278     0.00427    -0.00020
        10  -0.00516     0.00156    -0.00781     0.17185     0.00910    -0.00125
        11  -0.00905     0.00060    -0.10557     0.22777     0.00998    -0.00164
        12  -0.01099    -0.00108     0.50345    -0.30863    -0.01457     0.00101
        13  -0.00435    -0.00106     0.25257    -0.05441    -0.00349     0.00121
        14   0.00127    -0.00022     0.12613    -0.06309    -0.00267    -0.00256
        15   0.00372    -0.00016    -0.19369    -0.10614    -0.00397     0.00045
        16  -0.00396     0.00006     0.25472    -0.05816    -0.00190     0.00009
        17   0.00279    -0.00203     0.23275     0.05562    -0.00052    -0.00085
        18   0.01104    -0.00132     0.20523     0.41575     0.01688    -0.00226
        19   0.01491    -0.00091    -0.00562     0.31115     0.01139    -0.00091
        20   0.01828    -0.00030    -0.09852     0.25820     0.00958    -0.00093
        21   0.01796    -0.00017    -0.39230     0.15357     0.00657    -0.00004
        22  -0.01961    -0.17647    -0.00071     0.00666    -0.06876     0.44165
        23  -0.00263    -0.15495     0.00011    -0.00600     0.19405     0.31498
        24   0.00276     0.18193     0.00195     0.00270     0.01265     0.65693
        25  -0.01382    -0.24743    -0.00096    -0.00409     0.11451    -0.11463
        26  -0.01060     0.01324    -0.00204     0.01685    -0.40321    -0.07702
        27   0.00855     0.14285     0.00142    -0.00586     0.11413    -0.22061
        28   0.00879     0.26182     0.00054    -0.01314     0.31903    -0.15079
        29  -0.01893    -0.37807    -0.00198     0.00163    -0.03588    -0.11102
        30  -0.00802     0.04232    -0.00104     0.00984    -0.21735    -0.17375
        31  -0.00449     0.13414    -0.00053     0.01159    -0.28597     0.00403
        32   0.01025     0.22604     0.00106    -0.00996     0.23801    -0.03186
        33  -0.02206    -0.23950    -0.00048    -0.00383     0.08225    -0.05936
        34   0.01199     0.22294    -0.00006     0.01023    -0.27046     0.06936
        35  -0.00198    -0.04872    -0.00015     0.00340    -0.07892     0.00067
        36  -0.01354    -0.27909     0.00041    -0.01717     0.41924    -0.05064
        37  -0.01649    -0.29372    -0.00078     0.00150    -0.06002    -0.21920
        38   0.00032    -0.11562    -0.00019     0.00276    -0.06071     0.11149
        39  -0.01399    -0.05180    -0.00170     0.01228    -0.33682    -0.17474
        40   0.00419     0.09660     0.00141    -0.01031     0.25880    -0.02460
        41   0.01153     0.45033     0.00102    -0.00691     0.15440    -0.18702
        42   0.00765     0.20873     0.00039     0.00352    -0.06836     0.02730
        43  -0.36574     0.01602    -0.00425     0.01003     0.00383     0.01434
        44   0.31373    -0.01368     0.00420    -0.00821    -0.00437    -0.00179
        45  -0.35810     0.01411    -0.00249     0.00493    -0.00050    -0.01084
        46  -0.21629     0.00909    -0.00469     0.00539    -0.00039    -0.00835
        47  -0.19354     0.00390    -0.00321     0.00581     0.00253     0.01297
        48   0.39297    -0.02350     0.00116    -0.00355    -0.00641     0.01459
        49   0.62037    -0.02460     0.00984    -0.01559    -0.01083    -0.01214
        50  -0.10583     0.01712     0.00102     0.00151    -0.00452    -0.02921
        51   0.01248     0.00441     0.00025    -0.00037    -0.00086    -0.00905




    ROOT NO.   31          32          33          34          35          36

             4.14190     5.00598     5.90765     7.10932     7.18069     8.39667
  
         1   0.01248     0.00001    -0.11583    -0.00143     0.00298    -0.00862
         2  -0.02588     0.00050    -0.16262     0.00087     0.00792     0.01139
         3   0.00576    -0.00200    -0.25914    -0.00107    -0.01237     0.00326
         4   0.20991     0.00093     0.36427     0.00101    -0.00631     0.00546
         5   0.06577    -0.00102     0.02889    -0.00009    -0.00063    -0.00024
         6   0.06993     0.00029     0.05455    -0.00015     0.00028    -0.00003
         7   0.02166     0.00032    -0.07931     0.00001     0.00279     0.00258
         8  -0.33941     0.00129     0.36186    -0.00011    -0.00488    -0.00662
         9  -0.12705    -0.00002     0.05510     0.00030     0.00194     0.00114
        10  -0.03289    -0.00200    -0.08213    -0.00029    -0.00210     0.00105
        11   0.00414    -0.00068    -0.11450    -0.00050    -0.00374    -0.00038
        12   0.13052     0.00197     0.34149     0.00089     0.00496     0.00018
        13  -0.47173     0.00044    -0.15447     0.00036     0.00543     0.00080
        14   0.66316    -0.00072    -0.20749    -0.00033     0.00231    -0.00466
        15  -0.16703    -0.00007    -0.35178    -0.00006     0.01044    -0.00216
        16   0.12585    -0.00087    -0.23785    -0.00042     0.00543    -0.00215
        17  -0.18622     0.00130    -0.09905     0.00031     0.00339    -0.00050
        18   0.05522    -0.00087     0.28002     0.00011    -0.00811     0.00176
        19   0.13584     0.00077     0.30405     0.00003    -0.00808     0.00082
        20  -0.18101     0.00014     0.18973     0.00055    -0.00246     0.00130
        21   0.02980     0.00002    -0.12493     0.00014     0.00627    -0.00226
        22   0.00156     0.27168    -0.00050     0.18504     0.00900    -0.25736
        23   0.00032    -0.35590     0.00117    -0.19531    -0.02307     0.21783
        24   0.00184    -0.02853    -0.00052    -0.08644    -0.01016    -0.04862
        25  -0.00005     0.09774     0.00037     0.16846     0.01388    -0.10216
        26   0.00041     0.26504    -0.00089     0.05934     0.00448    -0.03088
        27  -0.00058    -0.19519     0.00098    -0.11644    -0.00722     0.11569
        28  -0.00137    -0.23503     0.00144    -0.11211    -0.00932     0.05760
        29  -0.00012    -0.11350     0.00033    -0.05857    -0.00069     0.15136
        30   0.00023     0.22371     0.00019     0.12730     0.00410    -0.09185
        31   0.00068     0.23021    -0.00162    -0.38437    -0.03779     0.60199
        32  -0.00058    -0.08711     0.00106    -0.06124    -0.00533    -0.40883
        33   0.00053    -0.19619    -0.00018     0.63285     0.03743     0.35126
        34  -0.00049    -0.32764     0.00001     0.20362     0.01415    -0.02923
        35   0.00022    -0.03257     0.00002     0.03328     0.00269     0.01306
        36  -0.00036     0.43069    -0.00053    -0.28842    -0.01979     0.00421
        37  -0.00029    -0.15237     0.00070    -0.17439    -0.00539    -0.25555
        38   0.00024     0.03406    -0.00051     0.00936    -0.00181     0.01535
        39  -0.00057    -0.22359     0.00052    -0.26418    -0.01213    -0.31785
        40  -0.00029     0.11275     0.00003     0.11472     0.01091    -0.01416
        41  -0.00036     0.28677    -0.00039     0.21501     0.02106     0.04478
        42  -0.00017    -0.01341     0.00029    -0.00579    -0.00041    -0.01241
        43   0.00180    -0.00492     0.00744    -0.03263     0.50949     0.02180
        44  -0.00117     0.00017     0.00066    -0.00126     0.00004    -0.00072
        45   0.00299    -0.00408     0.00188     0.00300    -0.10770    -0.00689
        46  -0.00068     0.00097     0.00069     0.01336    -0.29132    -0.02566
        47  -0.00127     0.00059    -0.00294     0.02775    -0.31551     0.00307
        48   0.00052     0.00712     0.00722    -0.03092     0.49577    -0.00244
        49  -0.00199     0.00701    -0.00730     0.01901    -0.21375     0.00277
        50   0.00177     0.00164     0.00467    -0.02904     0.31624    -0.00529
        51  -0.00159     0.00016    -0.00516     0.02888    -0.38332     0.00700




    ROOT NO.   37          38          39          40          41          42

             8.56271     8.75031     9.04555     9.13149     9.53693    18.24938
  
         1  -0.42999     0.01014     0.23998     0.60487     0.24088     0.00006
         2   0.67107    -0.01051     0.10775     0.40036     0.10102     0.00004
         3   0.02267    -0.00393    -0.11152    -0.27701     0.73428     0.00116
         4   0.27096    -0.00649    -0.13107    -0.31707    -0.10113    -0.00019
         5  -0.03420     0.00049    -0.00058    -0.00836     0.01034     0.00020
         6  -0.00731     0.00045     0.00962     0.02510    -0.01873    -0.00010
         7   0.15785    -0.00241    -0.00551     0.00867    -0.00570    -0.00009
         8  -0.42733     0.00692    -0.01886    -0.10676     0.01669     0.00011
         9   0.02063    -0.00020     0.00218     0.01866    -0.02007    -0.00006
        10  -0.00615    -0.00078    -0.05183    -0.14023     0.06714     0.00031
        11  -0.07070     0.00025    -0.05717    -0.16337     0.10519     0.00002
        12   0.07046     0.00081     0.10065     0.27849    -0.20503    -0.00018
        13   0.07481    -0.00100    -0.03073    -0.08179    -0.15762     0.00006
        14  -0.20953     0.00367    -0.01600    -0.07623    -0.14001     0.00010
        15  -0.05936     0.00185    -0.01065    -0.05062    -0.33449     0.00030
        16  -0.08154     0.00154    -0.03372    -0.11735    -0.21450    -0.00019
        17   0.01450    -0.00002    -0.02964    -0.08934    -0.14414    -0.00048
        18   0.02106    -0.00107    -0.01525    -0.02868     0.09019     0.00009
        19   0.01641    -0.00068     0.01053     0.04384     0.17190     0.00017
        20   0.05865    -0.00106     0.01218     0.04495     0.05154     0.00003
        21  -0.06642     0.00218     0.02157     0.03792    -0.24385    -0.00067
        22   0.00400     0.02427    -0.00801     0.00180     0.00083    -0.41786
        23  -0.00540    -0.16901     0.02159    -0.00487    -0.00447     0.41869
        24   0.00010    -0.08098     0.01587    -0.00656     0.00082     0.04302
        25   0.00202     0.04063    -0.00378     0.00073     0.00108     0.48093
        26   0.00105     0.04403    -0.00698     0.00217     0.00133     0.06961
        27  -0.00220    -0.00656    -0.00078     0.00093    -0.00048    -0.33544
        28  -0.00080     0.01273    -0.00409     0.00266    -0.00214    -0.09360
        29  -0.00319    -0.07604     0.01103    -0.00301     0.00009    -0.44887
        30   0.00160     0.07846    -0.02035     0.00683     0.00021     0.29498
        31  -0.00482     0.31243    -0.01153     0.00407    -0.00175     0.01967
        32   0.01622     0.69819    -0.07073     0.02158     0.00196    -0.00445
        33  -0.00296     0.23392    -0.00241     0.00060     0.00069    -0.02253
        34   0.00021    -0.02217     0.00353    -0.00122     0.00044     0.00236
        35  -0.00047    -0.02614     0.00240    -0.00061     0.00032    -0.00180
        36   0.00023     0.00757    -0.00524     0.00165    -0.00040     0.00042
        37   0.00279    -0.14661    -0.00166     0.00122     0.00015     0.01688
        38  -0.00048    -0.03164     0.00452    -0.00137     0.00031    -0.00823
        39   0.00340    -0.18944    -0.00112     0.00101     0.00003     0.02007
        40  -0.00328    -0.22139     0.01813    -0.00574     0.00000    -0.00557
        41  -0.00714    -0.43674     0.03663    -0.01141     0.00027    -0.02396
        42  -0.00067    -0.04132     0.00227    -0.00072    -0.00005     0.00171
        43  -0.02725    -0.03646    -0.44517     0.15789    -0.00027     0.00170
        44  -0.00098    -0.00035    -0.00128    -0.00150     0.00273     0.00019
        45   0.00673     0.00635     0.09006    -0.03060    -0.00180     0.00022
        46   0.03385     0.05155     0.62021    -0.22148     0.00069    -0.00189
        47  -0.01609    -0.03021    -0.23630     0.09014    -0.01420    -0.00376
        48   0.00763     0.02178     0.22411    -0.09096     0.01154    -0.00070
        49  -0.00907    -0.01531    -0.16528     0.05913    -0.00000    -0.00275
        50   0.01402     0.02818     0.24144    -0.09235     0.01105     0.00256
        51  -0.01559    -0.02989    -0.29901     0.11395    -0.01286    -0.00230




    ROOT NO.   43          44          45

            20.47264    23.31221    23.73513
  
         1  -0.02495    -0.02024    -0.00041
         2  -0.01711    -0.01160    -0.00038
         3  -0.05859     0.01336    -0.00222
         4  -0.02048    -0.00556    -0.00024
         5  -0.00783    -0.00468    -0.00003
         6  -0.00749    -0.01383     0.00002
         7   0.00118     0.00248     0.00035
         8  -0.02621    -0.00104    -0.00005
         9  -0.00813    -0.00467     0.00005
        10   0.00152     0.00831    -0.00027
        11  -0.00069     0.00784    -0.00003
        12  -0.02082     0.01307     0.00078
        13   0.22536     0.58429     0.01114
        14   0.27987     0.31617     0.00592
        15   0.54327    -0.41573    -0.00790
        16  -0.42918    -0.37507    -0.00690
        17  -0.29131    -0.25382    -0.00450
        18   0.03611     0.03760     0.00071
        19   0.24618    -0.19377    -0.00374
        20   0.06308    -0.05254    -0.00113
        21  -0.48446     0.37059     0.00762
        22   0.00034     0.00777    -0.41563
        23  -0.00029     0.00859    -0.44861
        24   0.00056    -0.00938     0.49456
        25  -0.00033    -0.00637     0.33181
        26  -0.00023    -0.00104     0.05179
        27  -0.00000     0.00447    -0.23880
        28   0.00006    -0.00156     0.08029
        29   0.00039    -0.00726     0.37659
        30  -0.00044     0.00476    -0.24921
        31  -0.00010     0.00018    -0.00337
        32  -0.00002    -0.00037     0.01291
        33  -0.00003    -0.00020    -0.00059
        34  -0.00006    -0.00035     0.01303
        35  -0.00009     0.00008    -0.00633
        36  -0.00004     0.00034    -0.01078
        37  -0.00017    -0.00002    -0.00448
        38  -0.00001    -0.00004    -0.00022
        39  -0.00006    -0.00004     0.00132
        40  -0.00003     0.00008    -0.00583
        41  -0.00000    -0.00015     0.00973
        42   0.00003     0.00003     0.00270
        43  -0.00048    -0.00021     0.00200
        44  -0.00101    -0.00016     0.00038
        45  -0.00103    -0.00006     0.00042
        46   0.00201     0.00024    -0.00381
        47   0.00128    -0.00005     0.00207
        48   0.00216     0.00001    -0.00790
        49  -0.00087    -0.00019     0.00607
        50   0.00017     0.00007     0.00188
        51  -0.00106    -0.00031     0.00921

          ZERO POINT ENERGY      61.662 KCAL/MOL

         NOTE: SYSTEM IS NOT A GROUND STATE, THEREFORE ZERO POINT
         ENERGY IS NOT MEANINGFULL. ZERO POINT ENERGY PRINTED
         DOES NOT INCLUDE THE  8 IMAGINARY FREQUENCIES


           FREQUENCIES, REDUCED MASSES AND VIBRATIONAL DIPOLES



   I         1         2         3         4         5         6
 FREQ(I) -459.8230 -238.2563 -146.5219 -105.2982  -69.7011  -59.0575

 MASS(I)   0.69428   0.88356   0.53953   4.13628   6.59622   2.88234

 DIPX(I)  -0.30555   0.62652   0.03953  -0.17734  -0.44927   0.58084
 DIPY(I)   0.77229  -0.12275  -0.15953  -0.62524  -0.18370   0.08689
 DIPZ(I)   0.26703   0.10834   0.01683  -0.15291  -0.36346  -0.35563

 DIPT(I)   0.87241   0.64756   0.16522   0.66766   0.60638   0.68659


   I         7         8         9        10        11        12
 FREQ(I)  -43.1586  -14.2205   30.2335   57.2950   97.7376  169.6111

 MASS(I)   4.95375   4.18797   2.52059   6.69419   1.91609   5.62811

 DIPX(I)  -0.50558  -0.15884  -0.21787  -0.73948  -0.13500   0.35896
 DIPY(I)  -0.28811  -0.69251   0.52251  -0.00853   0.21542  -0.40896
 DIPZ(I)   0.48145   0.01144  -0.13941  -0.83449  -0.04465  -0.01626

 DIPT(I)   0.75526   0.71059   0.58303   1.11502   0.25812   0.54439


   I        13        14        15        16        17        18
 FREQ(I)  197.6564  211.5812  401.5679  450.3134  480.1715  547.9615

 MASS(I)   8.87753   7.64519   5.46960   2.30247   0.55572   3.90501

 DIPX(I)  -0.55970  -0.25022   0.30159  -0.30200   0.52264  -0.36887
 DIPY(I)  -0.47864  -0.24619   0.85024  -0.30176   1.37843   0.40132
 DIPZ(I)  -0.72536   0.63447   0.17896  -0.07944   1.11892  -0.08173

 DIPT(I)   1.03368   0.72510   0.91972   0.43426   1.85073   0.55119


   I        19        20        21        22        23        24
 FREQ(I)  562.2684  636.3498  647.0394  773.7162  910.4473  934.9915

 MASS(I)   2.23090   3.14423   3.80365   6.43030   1.59601   1.69874

 DIPX(I)   0.36575   1.41741  -0.75713  -1.78044   0.50892   0.34822
 DIPY(I)  -0.61916  -0.99782  -0.63197   0.32834   0.26180  -0.41787
 DIPZ(I)   0.12616  -0.28692  -1.83517   1.38576   0.51639   0.11996

 DIPT(I)   0.73010   1.75699   2.08338   2.27993   0.77084   0.55701


   I        25        26        27        28        29        30
 FREQ(I)  993.5683  996.9551 1064.0019 1093.4039 1117.0561 1161.8185

 MASS(I)   3.32566   1.13652   3.99711   0.48828   0.47666   0.53190

 DIPX(I)   0.90838   0.84487  -0.42560  -0.21488   0.19493  -0.41482
 DIPY(I)  -0.85914   0.40550  -1.06854  -0.15143   0.38214   0.96961
 DIPZ(I)   0.15167  -0.31440  -1.10333  -0.31427  -0.16283   0.01138

 DIPT(I)   1.25948   0.98848   1.59382   0.40972   0.45885   1.05468


   I        31        32        33        34        35        36
 FREQ(I) 1231.7862 1255.3003 1297.7001 1399.3283 1477.9545 1523.6728

 MASS(I)   0.49029   0.62204   0.48034   0.54086   4.69488   4.97339

 DIPX(I)   0.20373   0.38551   0.28461  -0.48394   4.18173   1.16577
 DIPY(I)  -0.27811  -0.80337   0.22051  -0.33331  -3.25839   1.60738
 DIPZ(I)   0.09618   0.26688   0.70442   0.80736  -1.23201   2.90226

 DIPT(I)   0.35791   0.93019   0.79110   0.99856   5.44259   3.51651


   I        37        38        39        40        41        42
 FREQ(I) 1649.9631 1744.8636 1917.3154 2589.9432 2610.6593 2684.9823

 MASS(I)   6.66874   6.40329   1.69370   0.52940   0.52819   0.30301

[...]
 FREQUENCY            97.74         C  1 -- N  5         +12.1% (386.6%)      2.4%
 TRANSITION DIPOLE   0.2581         C  8 -- C 11          +9.4% (341.5%)      0.0%
 TRAVEL (Ang.)       0.6001         C 11 -- Cl12          +9.3% (339.4%)      5.0%
 REDUCED MASS        1.9161         H 15 -- O 16          +9.2% (336.6%)     12.0%
 EFFECTIVE MASS    235.8409
 FORCE CONSTANT      0.0108

 VIBRATION         12   12A           ATOM PAIR      ENERGY CONTRIBUTION    RADIAL
 FREQUENCY           169.61         O 16 -- H 17         +46.1% (248.3%)      3.0%
 TRANSITION DIPOLE   0.5444         H 15 -- O 16         +16.1% (146.7%)     50.9%
 TRAVEL (Ang.)       0.2658         C  1 -- N  5          +6.8% ( 95.3%)      5.5%
 REDUCED MASS        5.6281         O  6 -- O  7          +5.5% ( 85.5%)     18.9%
 EFFECTIVE MASS     55.9148
 FORCE CONSTANT      0.0954

 VIBRATION         13   13A           ATOM PAIR      ENERGY CONTRIBUTION    RADIAL
 FREQUENCY           197.66         O 16 -- H 17         +28.8% (186.1%)      1.8%
 TRANSITION DIPOLE   1.0337         C  8 -- C 11         +14.8% (133.6%)      0.0%
 TRAVEL (Ang.)       0.1960         C 11 -- Cl12         +14.4% (131.8%)      0.0%
 REDUCED MASS        8.8775         C 11 -- H 13         +11.2% (116.3%)     90.7%
 EFFECTIVE MASS     49.5136         C 11 -- H 14         +10.6% (113.2%)     97.7%
 FORCE CONSTANT      0.2043

 VIBRATION         14   14A           ATOM PAIR      ENERGY CONTRIBUTION    RADIAL
 FREQUENCY           211.58         C  8 -- C 11         +24.7% (165.6%)      0.9%
 TRANSITION DIPOLE   0.7251         C 11 -- Cl12         +18.2% (142.0%)      1.7%
 TRAVEL (Ang.)       0.2042         C  8 -- O  9         +17.0% (137.5%)      0.2%
 REDUCED MASS        7.6452         C 11 -- H 14         +14.1% (125.0%)     23.4%
 EFFECTIVE MASS     30.1225         C  8 -- O 10         +13.7% (123.2%)      0.1%
 FORCE CONSTANT      0.2016         C 11 -- H 13         +11.9% (115.1%)     42.5%

 VIBRATION         15   15A           ATOM PAIR      ENERGY CONTRIBUTION    RADIAL
 FREQUENCY           401.57         C  8 -- C 11         +35.9% (133.2%)      1.7%
 TRANSITION DIPOLE   0.9197         C  8 -- O 10         +27.9% (117.5%)      1.3%
 TRAVEL (Ang.)       0.1752         C  8 -- O  9         +24.4% (109.9%)      1.2%
 REDUCED MASS        5.4696         C 11 -- Cl12          +5.3% ( 51.3%)     88.2%
 EFFECTIVE MASS     21.2586
 FORCE CONSTANT      0.5197

 VIBRATION         16   16A           ATOM PAIR      ENERGY CONTRIBUTION    RADIAL
 FREQUENCY           450.31         C  1 -- N  5         +26.9% (134.8%)      0.0%
 TRANSITION DIPOLE   0.4343         O  6 -- O  7         +18.5% (111.9%)      0.0%
 TRAVEL (Ang.)       0.2550         N  5 -- O  6         +13.5% ( 95.7%)      0.0%
 REDUCED MASS        2.3025         N  5 -- O  7         +13.5% ( 95.7%)      0.0%
 EFFECTIVE MASS     16.4626         C  1 -- H  2         +10.1% ( 82.7%)     60.7%
 FORCE CONSTANT      0.2751

 VIBRATION         17   17A           ATOM PAIR      ENERGY CONTRIBUTION    RADIAL
 FREQUENCY           480.17         O 16 -- H 17         +55.0% ( 88.0%)      1.3%
 TRANSITION DIPOLE   1.8507         H 15 -- O 16         +11.7% ( 40.5%)      1.3%
 TRAVEL (Ang.)       0.5027         C  8 -- O  9          +8.6% ( 34.7%)      1.6%
 REDUCED MASS        0.5557         C  8 -- O 10          +7.9% ( 33.4%)      2.2%
 EFFECTIVE MASS      3.9629
 FORCE CONSTANT      0.0755

 VIBRATION         18   18A           ATOM PAIR      ENERGY CONTRIBUTION    RADIAL
 FREQUENCY           547.96         N  5 -- O  7         +26.1% ( 90.8%)      0.0%
 TRANSITION DIPOLE   0.5512         N  5 -- O  6         +26.0% ( 90.6%)      0.0%
 TRAVEL (Ang.)       0.1775         C  1 -- N  5         +19.9% ( 79.2%)      0.0%
 REDUCED MASS        3.9050         C  1 -- H  3         +18.0% ( 75.3%)      1.2%
 EFFECTIVE MASS     12.2390
 FORCE CONSTANT      0.6908

 VIBRATION         19   19A           ATOM PAIR      ENERGY CONTRIBUTION    RADIAL
 FREQUENCY           562.27         C  8 -- O 10         +20.4% ( 83.5%)      0.0%
 TRANSITION DIPOLE   0.7301         C  8 -- O  9         +20.3% ( 83.1%)      0.0%
 TRAVEL (Ang.)       0.2319         C 11 -- H 13         +18.4% ( 79.1%)     26.4%
 REDUCED MASS        2.2309         C  8 -- C 11         +17.2% ( 76.6%)      2.8%
 EFFECTIVE MASS     11.2672         C 11 -- H 14         +16.3% ( 74.5%)      0.5%
 FORCE CONSTANT      0.4155

 VIBRATION         20   20A           ATOM PAIR      ENERGY CONTRIBUTION    RADIAL
 FREQUENCY           636.35         C  8 -- C 11         +21.3% ( 82.2%)     12.3%
 TRANSITION DIPOLE   1.7570         C  8 -- O 10         +19.5% ( 78.5%)      0.0%
 TRAVEL (Ang.)       0.1836         C  8 -- O  9         +15.4% ( 69.7%)      0.6%
 REDUCED MASS        3.1442         C 11 -- Cl12         +14.7% ( 68.1%)      3.0%
 EFFECTIVE MASS     14.6528         C 11 -- H 13         +14.3% ( 67.2%)      3.3%
 FORCE CONSTANT      0.7502         C 11 -- H 14         +14.2% ( 67.1%)     67.9%

 VIBRATION         21   21A           ATOM PAIR      ENERGY CONTRIBUTION    RADIAL
 FREQUENCY           647.04         O  6 -- O  7         +18.4% ( 80.4%)    100.0%
 TRANSITION DIPOLE   2.0834         C  1 -- N  5         +15.6% ( 73.9%)     38.0%
 TRAVEL (Ang.)       0.1655         N  5 -- O  6         +15.1% ( 72.8%)      0.0%
 REDUCED MASS        3.8036         N  5 -- O  7         +15.0% ( 72.6%)      0.0%
 EFFECTIVE MASS     15.3920         C  1 -- H  2         +12.0% ( 65.0%)     12.7%
 FORCE CONSTANT      0.9382         C  1 -- H  3         +11.8% ( 64.3%)     10.0%
                            C  1 -- H  4         +11.7% ( 64.1%)     11.8%

 VIBRATION         22   22A           ATOM PAIR      ENERGY CONTRIBUTION    RADIAL
 FREQUENCY           773.72         C 11 -- Cl12         +30.0% ( 99.7%)     94.8%
 TRANSITION DIPOLE   2.2799         C  8 -- C 11         +25.9% ( 92.7%)      0.8%
 TRAVEL (Ang.)       0.1164         C 11 -- H 13         +20.1% ( 81.6%)     15.5%
 REDUCED MASS        6.4303         C 11 -- H 14         +19.4% ( 80.3%)     18.5%
 EFFECTIVE MASS     15.6008
 FORCE CONSTANT      2.2680

 VIBRATION         23   23A           ATOM PAIR      ENERGY CONTRIBUTION    RADIAL
 FREQUENCY           910.45         C 11 -- H 14         +26.7% ( 75.2%)     16.9%
 TRANSITION DIPOLE   0.7708         C 11 -- H 13         +25.6% ( 73.7%)     16.2%
 TRAVEL (Ang.)       0.2154         C  8 -- C 11         +22.3% ( 68.8%)      0.0%
 REDUCED MASS        1.5960         C 11 -- Cl12         +12.8% ( 52.1%)      0.7%
 EFFECTIVE MASS      6.9617
 FORCE CONSTANT      0.7795

 VIBRATION         24   24A           ATOM PAIR      ENERGY CONTRIBUTION    RADIAL
 FREQUENCY           934.99         C  1 -- H  3         +40.4% ( 77.1%)      5.8%
 TRANSITION DIPOLE   0.5570         C  1 -- N  5         +21.4% ( 56.1%)      1.0%
 TRAVEL (Ang.)       0.2060         N  5 -- O  6         +10.0% ( 38.3%)      1.3%
 REDUCED MASS        1.6987         N  5 -- O  7          +9.8% ( 37.9%)      0.2%
 EFFECTIVE MASS      6.5436
 FORCE CONSTANT      0.8750

 VIBRATION         25   25A           ATOM PAIR      ENERGY CONTRIBUTION    RADIAL
 FREQUENCY           993.57         C  8 -- C 11         +33.9% ( 89.5%)     99.5%
 TRANSITION DIPOLE   1.2595         C 11 -- Cl12         +16.0% ( 61.5%)     27.1%
 TRAVEL (Ang.)       0.1429         C 11 -- H 13         +14.7% ( 58.9%)     15.7%
 REDUCED MASS        3.3257         C 11 -- H 14         +14.5% ( 58.5%)     13.8%
 EFFECTIVE MASS     12.6915         C  8 -- O 10         +11.1% ( 51.2%)     18.1%
 FORCE CONSTANT      1.9343

 VIBRATION         26   26A           ATOM PAIR      ENERGY CONTRIBUTION    RADIAL
 FREQUENCY           996.96         C  1 -- H  3         +29.6% ( 68.0%)      0.1%
 TRANSITION DIPOLE   0.9885         C  1 -- H  2         +26.9% ( 64.8%)     18.3%
 TRAVEL (Ang.)       0.2440         C  1 -- H  4         +23.9% ( 61.0%)     18.8%
 REDUCED MASS        1.1365         C  1 -- N  5         +16.6% ( 51.0%)      3.7%
 EFFECTIVE MASS      4.7007
 FORCE CONSTANT      0.6655

 VIBRATION         27   27A           ATOM PAIR      ENERGY CONTRIBUTION    RADIAL
 FREQUENCY          1064.00         C  1 -- N  5         +28.0% ( 89.1%)     99.1%
 TRANSITION DIPOLE   1.5938         C  1 -- H  3         +15.0% ( 65.1%)      3.6%
 TRAVEL (Ang.)       0.1259         O  6 -- O  7         +14.4% ( 63.8%)     99.7%
 REDUCED MASS        3.9971         C  1 -- H  2         +14.1% ( 63.1%)      7.3%
 EFFECTIVE MASS     13.2013         C  1 -- H  4         +13.8% ( 62.4%)     24.3%
 FORCE CONSTANT      2.6661

 VIBRATION         28   28A           ATOM PAIR      ENERGY CONTRIBUTION    RADIAL
 FREQUENCY          1093.40         C 11 -- H 13         +49.0% ( 72.3%)      0.7%
 TRANSITION DIPOLE   0.4097         C 11 -- H 14         +41.1% ( 66.2%)      1.2%
 TRAVEL (Ang.)       0.3554         C  8 -- C 11          +3.6% ( 19.6%)      1.8%
 REDUCED MASS        0.4883         C  8 -- O 10          +3.0% ( 17.9%)      1.2%
 EFFECTIVE MASS      1.7862
 FORCE CONSTANT      0.3439

 VIBRATION         29   29A           ATOM PAIR      ENERGY CONTRIBUTION    RADIAL
 FREQUENCY          1117.06         C  1 -- H  2         +47.8% ( 77.4%)      7.8%
 TRANSITION DIPOLE   0.4589         C  1 -- H  4         +33.5% ( 64.8%)      5.0%
 TRAVEL (Ang.)       0.3559         C  1 -- N  5          +5.1% ( 25.3%)      4.0%
 REDUCED MASS        0.4767         C  1 -- H  3          +4.3% ( 23.2%)      8.8%
 EFFECTIVE MASS      2.7590
 FORCE CONSTANT      0.3504

 VIBRATION         30   30A           ATOM PAIR      ENERGY CONTRIBUTION    RADIAL
 FREQUENCY          1161.82         C  1 -- H  4         +47.7% ( 67.9%)      1.9%
 TRANSITION DIPOLE   1.0547         C  1 -- H  2         +34.9% ( 58.1%)      1.5%
 TRAVEL (Ang.)       0.3303         C  1 -- N  5          +9.0% ( 29.5%)      0.3%
 REDUCED MASS        0.5319         C  1 -- H  3          +5.2% ( 22.5%)     87.2%
 EFFECTIVE MASS      2.3871
 FORCE CONSTANT      0.4230

 VIBRATION         31   31A           ATOM PAIR      ENERGY CONTRIBUTION    RADIAL
 FREQUENCY          1231.79         C 11 -- H 14         +48.5% ( 65.5%)      0.9%
 TRANSITION DIPOLE   0.3579         C 11 -- H 13         +43.1% ( 61.7%)      0.5%
 TRAVEL (Ang.)       0.3341         C  8 -- C 11          +3.9% ( 18.6%)     10.1%
 REDUCED MASS        0.4903         C 11 -- Cl12          +3.5% ( 17.5%)     97.7%
 EFFECTIVE MASS      1.7846
 FORCE CONSTANT      0.4383

 VIBRATION         32   32A           ATOM PAIR      ENERGY CONTRIBUTION    RADIAL
 FREQUENCY          1255.30         C 11 -- H 14         +42.6% ( 68.1%)      1.0%
 TRANSITION DIPOLE   0.9302         C 11 -- H 13         +38.7% ( 64.9%)      1.1%
 TRAVEL (Ang.)       0.2939         C  8 -- C 11          +9.0% ( 31.3%)     99.3%
 REDUCED MASS        0.6220         C 11 -- Cl12          +7.5% ( 28.6%)     10.2%
 EFFECTIVE MASS      2.5370
 FORCE CONSTANT      0.5775

 VIBRATION         33   33A           ATOM PAIR      ENERGY CONTRIBUTION    RADIAL
 FREQUENCY          1297.70         C  1 -- H  4         +47.5% ( 68.6%)      0.4%
 TRANSITION DIPOLE   0.7911         C  1 -- H  2         +35.3% ( 59.1%)      0.9%
 TRAVEL (Ang.)       0.3289         C  1 -- H  3          +6.1% ( 24.5%)      3.2%
 REDUCED MASS        0.4803         C  1 -- N  5          +6.0% ( 24.4%)     92.9%
 EFFECTIVE MASS      2.1906
 FORCE CONSTANT      0.4766

 VIBRATION         34   34A           ATOM PAIR      ENERGY CONTRIBUTION    RADIAL
 FREQUENCY          1399.33         H 15 -- O 16         +54.1% ( 57.6%)      7.3%
 TRANSITION DIPOLE   0.9986         O 16 -- H 17         +45.3% ( 52.7%)      8.3%
 TRAVEL (Ang.)       0.2985         C  8 -- O 10          +0.1% (  2.6%)     85.7%
 REDUCED MASS        0.5409         C  1 -- H  2          +0.1% (  2.5%)      0.1%
 EFFECTIVE MASS      1.7107
 FORCE CONSTANT      0.6240

 VIBRATION         35   35A           ATOM PAIR      ENERGY CONTRIBUTION    RADIAL
 FREQUENCY          1477.95         C  8 -- O  9         +42.1% ( 79.9%)     68.2%
 TRANSITION DIPOLE   5.4426         C  8 -- O 10         +37.1% ( 75.0%)     57.9%
 TRAVEL (Ang.)       0.0986         C  8 -- C 11         +19.6% ( 54.5%)     99.1%
 REDUCED MASS        4.6949         C 11 -- H 13          +0.6% (  9.7%)     45.9%
 EFFECTIVE MASS     13.6785
 FORCE CONSTANT      6.0422

 VIBRATION         36   36A           ATOM PAIR      ENERGY CONTRIBUTION    RADIAL
 FREQUENCY          1523.67         N  5 -- O  7         +32.2% ( 77.1%)     64.7%
 TRANSITION DIPOLE   3.5165         N  5 -- O  6         +31.4% ( 76.2%)     62.3%
 TRAVEL (Ang.)       0.0943         C  1 -- N  5         +17.6% ( 57.0%)     99.9%
 REDUCED MASS        4.9734         O  6 -- O  7         +16.2% ( 54.8%)    100.0%
 EFFECTIVE MASS     14.3060
 FORCE CONSTANT      6.8028

 VIBRATION         37   37A           ATOM PAIR      ENERGY CONTRIBUTION    RADIAL
 FREQUENCY          1649.96         N  5 -- O  6         +36.1% ( 84.6%)     89.6%
 TRANSITION DIPOLE  11.2498         N  5 -- O  7         +35.0% ( 83.3%)     88.1%
 TRAVEL (Ang.)       0.0783         C  1 -- N  5         +21.7% ( 65.5%)      0.0%
 REDUCED MASS        6.6687         O  6 -- O  7          +6.3% ( 35.3%)      0.1%
 EFFECTIVE MASS     14.2637
 FORCE CONSTANT     10.6965

 VIBRATION         38   38A           ATOM PAIR      ENERGY CONTRIBUTION    RADIAL
 FREQUENCY          1744.86         C  8 -- O 10         +38.9% ( 87.5%)     91.8%
 TRANSITION DIPOLE   9.5946         C  8 -- O  9         +36.5% ( 84.8%)     86.5%
 TRAVEL (Ang.)       0.0777         C  8 -- C 11         +24.3% ( 69.2%)      0.9%
 REDUCED MASS        6.4033         C 11 -- H 14          +0.1% (  5.3%)     22.5%
 EFFECTIVE MASS     13.0753
 FORCE CONSTANT     11.4862

 VIBRATION         39   39A           ATOM PAIR      ENERGY CONTRIBUTION    RADIAL
 FREQUENCY          1917.32         C  1 -- H  3         +91.6% ( 99.2%)    100.0%
 TRANSITION DIPOLE   1.2113         C  1 -- H  2          +2.7% ( 16.9%)     18.6%
 TRAVEL (Ang.)       0.1441         C  1 -- H  4          +2.5% ( 16.4%)     18.6%
 REDUCED MASS        1.6937         C  1 -- N  5          +2.5% ( 16.4%)      0.2%
 EFFECTIVE MASS      2.8769
 FORCE CONSTANT      3.6684

 VIBRATION         40   40A           ATOM PAIR      ENERGY CONTRIBUTION    RADIAL
 FREQUENCY          2589.94         C  1 -- H  2         +60.9% ( 80.9%)     98.9%
 TRANSITION DIPOLE   1.3065         C  1 -- H  4         +37.1% ( 63.1%)     96.7%
 TRAVEL (Ang.)       0.2218         C  1 -- N  5          +1.0% ( 10.2%)      0.0%
 REDUCED MASS        0.5294         C  1 -- H  3          +1.0% ( 10.1%)      0.1%
 EFFECTIVE MASS      1.4599
 FORCE CONSTANT      2.0923

 VIBRATION         41   41A           ATOM PAIR      ENERGY CONTRIBUTION    RADIAL
 FREQUENCY          2610.66         C 11 -- H 13         +60.4% ( 80.5%)     98.8%
 TRANSITION DIPOLE   1.0566         C 11 -- H 14         +37.6% ( 63.5%)     96.8%
 TRAVEL (Ang.)       0.2211         C 11 -- Cl12          +0.9% (  9.7%)      0.2%
 REDUCED MASS        0.5282         C  8 -- C 11          +0.9% (  9.6%)      0.0%
 EFFECTIVE MASS      1.4639
 FORCE CONSTANT      2.1210

 VIBRATION         42   42A           ATOM PAIR      ENERGY CONTRIBUTION    RADIAL
 FREQUENCY          2684.98         C  1 -- H  4         +43.8% ( 65.6%)     98.0%
 TRANSITION DIPOLE   0.5208         C  1 -- H  2         +24.9% ( 49.4%)     94.3%
 TRAVEL (Ang.)       0.2879         O 16 -- H 17         +20.1% ( 44.5%)     97.7%
 REDUCED MASS        0.3030         H 15 -- O 16          +9.5% ( 30.6%)     95.6%
 EFFECTIVE MASS      1.2995
 FORCE CONSTANT      1.2871

 VIBRATION         43   43A           ATOM PAIR      ENERGY CONTRIBUTION    RADIAL
 FREQUENCY          2688.96         O 16 -- H 17         +39.7% ( 63.5%)     97.7%
 TRANSITION DIPOLE   1.8187         H 15 -- O 16         +22.1% ( 47.4%)     95.7%
 TRAVEL (Ang.)       0.3194         C  1 -- H  4         +16.0% ( 40.3%)     98.1%
 REDUCED MASS        0.2458         C  1 -- H  2          +9.3% ( 30.8%)     94.1%
 EFFECTIVE MASS      1.3933
 FORCE CONSTANT      1.0470

 VIBRATION         44   44A           ATOM PAIR      ENERGY CONTRIBUTION    RADIAL
 FREQUENCY          2698.06         C 11 -- H 14         +51.6% ( 70.7%)     97.8%
 TRANSITION DIPOLE   1.4327         C 11 -- H 13         +32.6% ( 56.2%)     94.8%
 TRAVEL (Ang.)       0.2562         O 16 -- H 17          +9.9% ( 31.0%)     97.9%
 REDUCED MASS        0.3808         H 15 -- O 16          +3.8% ( 19.2%)     93.7%
 EFFECTIVE MASS      1.2690
 FORCE CONSTANT      1.6334

 VIBRATION         45   45A           ATOM PAIR      ENERGY CONTRIBUTION    RADIAL
 FREQUENCY          2827.02         H 15 -- O 16         +68.5% ( 79.7%)     99.9%
 TRANSITION DIPOLE   0.8997         O 16 -- H 17         +31.4% ( 54.0%)     99.6%
 TRAVEL (Ang.)       0.2098
 REDUCED MASS        0.5417
 EFFECTIVE MASS      1.1844
 FORCE CONSTANT      2.5507

      SYMMETRY NUMBER FOR POINT-GROUP C1  =  1


          SYSTEM IS A GROUND STATE



 Title: ASE calculation


          MOLECULE IS NOT LINEAR

          THERE ARE 45 GENUINE VIBRATIONS IN THIS SYSTEM
          THIS THERMODYNAMICS CALCULATION IS LIMITED TO
          MOLECULES WHICH HAVE NO INTERNAL ROTATIONS




                    CALCULATED THERMODYNAMIC PROPERTIES
                                          *
   TEMP. (K)   PARTITION FUNCTION   H.O.F.    ENTHALPY  HEAT CAPACITY ENTROPY
                                   KCAL/MOL   CAL/MOLE    CAL/K/MOL  CAL/K/MOL


 298.00  VIB.     0.6856D+07                  7233.9788    38.9447    55.5551
         ROT.     0.2452D+07                   888.2803     2.9808    32.2173
         INT.     0.1681D+14                  8122.2591    41.9255    87.7724
         TRA.     0.2210D+28                  1480.4672     4.9680    41.3591
         TOT.                     -303.528    9602.7263    46.8935   129.1315

   *: NOTE: HEATS OF FORMATION ARE RELATIVE TO THE
            ELEMENTS IN THEIR STANDARD STATE AT 298K
              (=  Standard Enthalpy of Formation).

            Hvib:  Zero-point energy is not included.
                   frequencies of less than zero cm-1 are not included.
            Hrot = (3/2)RT
            Htra = (3/2)RT + pV = (5/2)RT

            Heat capacity is Cp, not Cv

          For more information, see: HTTP://OpenMOPAC.net/Manual/thermochemistry.html


           FORCE CONSTANT IN CARTESIAN COORDINATES (Millidynes/A)

    ATOM   CHEMICAL       X               Y               Z
   NUMBER   SYMBOL  FORCE CONSTANT  FORCE CONSTANT  FORCE CONSTANT

      1       C        6.345141        5.935097        6.811837
      2       H        3.853212        0.529782        0.690998
      3       H        0.766913        3.623659        0.705366
      4       H        0.878930        1.179871        3.146305
      5       N       10.633861        6.744125       12.219793
      6       O        8.303264        3.971865        1.594379
      7       O        3.482279        0.928663        9.378702
      8       C        9.369355       10.133355        7.798265
      9       O        7.659574        1.401340        4.157467
     10       O        1.511696        7.993099        3.877058
     11       C        5.640249        6.171097        4.903567
     12      Cl        1.448770        0.426729        2.386847
     13       H        1.839904        0.593752        2.776771
     14       H        1.341455        3.331843        0.623477
     15       H        4.253746        0.087160        0.518932
     16       O        4.721264        1.644718        2.601946
     17       H        1.324234        1.373704        2.098893

 **********************
 *                    *
 * JOB ENDED NORMALLY *
 *                    *
 **********************



 TOTAL JOB TIME:            11.62 SECONDS

 == MOPAC DONE ==
