 *******************************************************************************
 **                                                                           **
 **                              MOPAC v22.0.6                                **
 **                                                                           **
 *******************************************************************************
 **          Digital Object Identifier (DOI): 10.5281/zenodo.6511958          **
 **    Visit the DOI location for information on how to cite this program.    **
 *******************************************************************************

                              PM7 CALCULATION RESULTS

 *******************************************************************************
 *  CALCULATION DONE:                                Tue Mar 26 12:10:15 2024  *
 *  PM7        - The PM7 Hamiltonian to be used
 *  SINGLET    - SPIN STATE DEFINED AS A SINGLET
 *
 *
 *
 *                 CHARGE ON SYSTEM = -1
 *
 *
 *
 *  EPS=78.4   - USE ANDREAS KLAMT'S COSMO IMPLICIT SOLVATION MODEL
 *  LET        - OVERRIDE SOME SAFETY CHECKS
 *  THREADS    - USE A MAXIMUM OF 30 THREADS
 *  T=         - A TIME OF 14.0 DAYS REQUESTED
 *  DUMP=N     - RESTART FILE WRITTEN EVERY 30.0 MINUTES REQUESTED
 *  RELSCF     - DEFAULT SCF CRITERION MULTIPLIED BY 1.0000
 *              (DEFAULT SCF CRITERION = 0.00010)
 *  ITRY=      - DO A MAXIMUM OF 15000 ITERATIONS FOR SCF
 *  AUX        - OUTPUT AUXILIARY INFORMATION
 *  ISOTOPE    - SAVE THE FORCE MATRIX FOR USE LATER
 *  BONDS      - FINAL BOND-ORDER MATRIX TO BE PRINTED
 *  LARGE      - EXPANDED OUTPUT TO BE PRINTED
 *  THERMO     - THERMODYNAMIC QUANTITIES TO BE CALCULATED
 *******************************************************************************
PM7 AUX LARGE THERMO(298,298) LET ISOTOPE BONDS DUMP=30M ITRY=15000 T=14D THREADS=30 CHARGE=-1 SINGLET eps=78.4 RELSCF=1
 Title: ASE calculation

   ATOM   CHEMICAL          X               Y               Z
  NUMBER   SYMBOL      (ANGSTROMS)     (ANGSTROMS)     (ANGSTROMS)

     1       C          0.76989680  *  -0.67942832  *   0.58668530  *
     2       H          1.12896801  *  -1.64794937  *   0.23413373  *
     3       D          1.99501069  *  -0.02338013  *   0.46094768  *
     4       H          0.66799590  *  -0.61862278  *   1.66885521  *
     5       N         -0.22839191  *  -0.07157052  *  -0.16357905  *
     6       O         -0.95955621  *   0.78713740  *   0.34518811  *
     7       O         -0.37527247  *  -0.35098765  *  -1.35889039  *
     8       C          6.02030728  *   0.28391273  *  -0.56700976  *
     9       O          7.10754833  *  -0.03009526  *  -1.04724727  *
    10       O          5.06053517  *  -0.54497907  *  -0.45287123  *
    11       C          5.79029395  *   1.70453386  *  -0.07670174  *
    12      Cl          6.05853153  *   1.66231027  *   1.67825378  *
    13       H          4.75899552  *   2.06657473  *  -0.25576944  *
    14       H          6.49910997  *   2.42874859  *  -0.51138929  *
    15       H          3.24826609  *   0.07577384  *   1.65619807  *
    16       O          3.11638169  *   0.42529566  *   0.75521768  *
    17       H          3.92792939  *  -0.05695908  *   0.17546559  *


                                Isotopes Used

              Atom:    3  H  Default mass  1.0079,  mass used:  2.0140 amu


          CARTESIAN COORDINATES 

    NO.       ATOM           X           Y           Z

     1         C          0.7699     -0.6794      0.5867
     2         H          1.1290     -1.6479      0.2341
     3         H          1.9950     -0.0234      0.4609
     4         H          0.6680     -0.6186      1.6689
     5         N         -0.2284     -0.0716     -0.1636
     6         O         -0.9596      0.7871      0.3452
     7         O         -0.3753     -0.3510     -1.3589
     8         C          6.0203      0.2839     -0.5670
     9         O          7.1075     -0.0301     -1.0472
    10         O          5.0605     -0.5450     -0.4529
    11         C          5.7903      1.7045     -0.0767
    12        Cl          6.0585      1.6623      1.6783
    13         H          4.7590      2.0666     -0.2558
    14         H          6.4991      2.4287     -0.5114
    15         H          3.2483      0.0758      1.6562
    16         O          3.1164      0.4253      0.7552
    17         H          3.9279     -0.0570      0.1755

 General Reference for PM7:
 "Optimization of Parameters for Semiempirical Methods VI: More Modifications to the 
 NDDO Approximations and Re-optimization of Parameters", J. J. P. Stewart, J. Mol. Mod., 1:32, 19 (2013)
 https://link.springer.com/article/10.1007/s00894-012-1667-x

           Empirical Formula: C3 H7 N O5 Cl  =    17 atoms



      MOLECULAR POINT GROUP   :   C1  


 SINGLET STATE CALCULATION


      RHF CALCULATION, NO. OF DOUBLY OCCUPIED LEVELS = 31

  SCF CRITERION =    0.1000E-03


          HEAT OF FORMATION =    -294.861301 KCALS/MOLE


          CARTESIAN COORDINATE DERIVATIVES

   NUMBER  ATOM         X            Y            Z

     1       C     -1.185169   -11.213718     0.524639
     2       H      0.283565     2.328791    -0.178255
     3       H     -0.742746    15.839348     2.807968
     4       H     -0.488683     1.449975    -0.513371
     5       N      1.263237    -3.194394    -0.117700
     6       O     -1.088861    -0.813199    -0.279558
     7       O     -0.586201    -0.042398    -0.656995
     8       C     -0.728641     4.376343     0.310418
     9       O     -0.261563    -2.242162    -0.109179
    10       O     -1.443259    -4.642887     1.133318
    11       C     -0.374970     0.700136    -0.009797
    12      Cl     -0.322592     0.056954     0.411041
    13       H     -0.689004    -0.324750    -0.365997
    14       H     -0.345917    -0.491811     0.185398
    15       H      0.682912    -2.115707     0.619996
    16       O     -0.245423    -3.313826    -2.080217
    17       H      6.274143     3.641285    -1.681671

 DIPOLE           X         Y         Z       TOTAL
 POINT-CHG.    -4.289   -13.386     5.428    15.068
 HYBRID         0.141    -0.638    -0.202     0.684
 SUM           -4.148   -14.024     5.226    15.531


          GRADIENT NORM =  23.18148



 ** GRADIENT IS VERY LARGE, BUT SINCE "LET" IS USED, CALCULATION WILL CONTINUE


                              **** WARNING ****

           GRADIENT IS VERY LARGE FOR A THERMO CALCULATION
           RESULTS ARE LIKELY TO BE INACCURATE IF THERE ARE
           ANY LOW-LYING VIBRATIONS (LESS THAN ABOUT 400CM-1)
           GRADIENT NORM SHOULD BE LESS THAN ABOUT 1.0 FOR THERMO
           TO GIVE ACCURATE RESULTS


          TIME FOR SCF CALCULATION =    0.44

          TIME FOR DERIVATIVES     =    0.15

          MOLECULAR WEIGHT =  173.55



          ROTATIONAL CONSTANTS IN CM(-1)

          A =    0.06260307   B =    0.01067489   C =    0.00964688



           PRINCIPAL MOMENTS OF INERTIA IN UNITS OF 10**(-40)*GRAM-CM**2

          A =      447.1466   B =     2622.2978   C =     2901.7407


          ORIENTATION OF MOLECULE IN FORCE CALCULATION

    NO.       ATOM         X         Y         Z

     1          C      -0.0187   -3.0016    0.0277
     2          H       1.0727   -3.0016    0.0277
     3          H      -0.1572   -1.6131    0.0277
     4          H      -0.4557   -3.2044    1.0039
     5          N      -0.6442   -3.5897   -1.0641
     6          O      -1.8111   -3.9915   -0.9761
     7          O      -0.0585   -3.6846   -2.1487
     8          C       1.2264    2.3148   -0.0776
     9          O       2.0179    3.2482   -0.1948
    10          O       1.6093    1.1042    0.0175
    11          C      -0.2682    2.5896   -0.0336
    12         Cl      -0.7094    2.6034    1.6865
    13          H      -0.8710    1.8068   -0.5343
    14          H      -0.5373    3.5697   -0.4612
    15          H      -0.2190   -0.5749    1.4160
    16          O      -0.2815   -0.4507    0.4506
    17          H       0.6007    0.1780    0.2187


    FIRST DERIVATIVES WILL BE USED IN THE CALCULATION OF SECOND DERIVATIVES

          ESTIMATED TIME TO COMPLETE CALCULATION =       60.16 SECONDS

    FOR POINT-GROUP C1   THERE ARE   1 UNIQUE SYMMETRY FUNCTIONS.

 STEP:   1 TIME =     0.33 SECS, INTEGRAL =      0.33 TIME LEFT:1209599.08
 STEP:   2 TIME =     0.28 SECS, INTEGRAL =      0.61 TIME LEFT:1209598.80
 STEP:   3 TIME =     0.10 SECS, INTEGRAL =      0.71 TIME LEFT:1209598.70
 STEP:   4 TIME =     0.18 SECS, INTEGRAL =      0.89 TIME LEFT:1209598.52
 STEP:   5 TIME =     0.22 SECS, INTEGRAL =      1.11 TIME LEFT:1209598.30
 STEP:   6 TIME =     0.22 SECS, INTEGRAL =      1.33 TIME LEFT:1209598.08
 STEP:   7 TIME =     0.12 SECS, INTEGRAL =      1.45 TIME LEFT:1209597.96
 STEP:   8 TIME =     0.16 SECS, INTEGRAL =      1.61 TIME LEFT:1209597.80
 STEP:   9 TIME =     0.18 SECS, INTEGRAL =      1.79 TIME LEFT:1209597.62
 STEP:  10 TIME =     0.13 SECS, INTEGRAL =      1.93 TIME LEFT:1209597.48
 STEP:  11 TIME =     0.12 SECS, INTEGRAL =      2.05 TIME LEFT:1209597.36
 STEP:  12 TIME =     0.12 SECS, INTEGRAL =      2.18 TIME LEFT:1209597.23
 STEP:  13 TIME =     0.12 SECS, INTEGRAL =      2.30 TIME LEFT:1209597.11
 STEP:  14 TIME =     0.58 SECS, INTEGRAL =      2.88 TIME LEFT:1209596.53
 STEP:  15 TIME =     0.23 SECS, INTEGRAL =      3.11 TIME LEFT:1209596.30
 STEP:  16 TIME =     0.50 SECS, INTEGRAL =      3.61 TIME LEFT:1209595.80
 STEP:  17 TIME =     0.19 SECS, INTEGRAL =      3.80 TIME LEFT:1209595.61
 STEP:  18 TIME =     0.05 SECS, INTEGRAL =      3.85 TIME LEFT:1209595.56
 STEP:  19 TIME =     0.07 SECS, INTEGRAL =      3.92 TIME LEFT:1209595.49
 STEP:  20 TIME =     0.13 SECS, INTEGRAL =      4.05 TIME LEFT:1209595.36
 STEP:  21 TIME =     0.12 SECS, INTEGRAL =      4.18 TIME LEFT:1209595.23
 STEP:  22 TIME =     0.18 SECS, INTEGRAL =      4.36 TIME LEFT:1209595.05
 STEP:  23 TIME =     0.03 SECS, INTEGRAL =      4.39 TIME LEFT:1209595.02
 STEP:  24 TIME =     0.03 SECS, INTEGRAL =      4.41 TIME LEFT:1209595.00
 STEP:  25 TIME =     0.03 SECS, INTEGRAL =      4.44 TIME LEFT:1209594.97
 STEP:  26 TIME =     0.03 SECS, INTEGRAL =      4.47 TIME LEFT:1209594.94
 STEP:  27 TIME =     0.03 SECS, INTEGRAL =      4.50 TIME LEFT:1209594.91
 STEP:  28 TIME =     0.03 SECS, INTEGRAL =      4.54 TIME LEFT:1209594.88
 STEP:  29 TIME =     0.03 SECS, INTEGRAL =      4.57 TIME LEFT:1209594.84
 STEP:  30 TIME =     0.03 SECS, INTEGRAL =      4.60 TIME LEFT:1209594.81
 STEP:  31 TIME =     0.04 SECS, INTEGRAL =      4.63 TIME LEFT:1209594.78
 STEP:  32 TIME =     0.03 SECS, INTEGRAL =      4.66 TIME LEFT:1209594.75
 STEP:  33 TIME =     0.03 SECS, INTEGRAL =      4.70 TIME LEFT:1209594.71
 STEP:  34 TIME =     0.03 SECS, INTEGRAL =      4.73 TIME LEFT:1209594.68
 STEP:  35 TIME =     0.04 SECS, INTEGRAL =      4.76 TIME LEFT:1209594.65
 STEP:  36 TIME =     0.03 SECS, INTEGRAL =      4.79 TIME LEFT:1209594.62
 STEP:  37 TIME =     0.03 SECS, INTEGRAL =      4.82 TIME LEFT:1209594.59
 STEP:  38 TIME =     0.03 SECS, INTEGRAL =      4.86 TIME LEFT:1209594.55
 STEP:  39 TIME =     0.04 SECS, INTEGRAL =      4.89 TIME LEFT:1209594.52
 STEP:  40 TIME =     0.03 SECS, INTEGRAL =      4.92 TIME LEFT:1209594.49
 STEP:  41 TIME =     0.03 SECS, INTEGRAL =      4.95 TIME LEFT:1209594.46
 STEP:  42 TIME =     0.03 SECS, INTEGRAL =      4.98 TIME LEFT:1209594.43
 STEP:  43 TIME =     0.04 SECS, INTEGRAL =      5.02 TIME LEFT:1209594.39
 STEP:  44 TIME =     0.03 SECS, INTEGRAL =      5.05 TIME LEFT:1209594.36
 STEP:  45 TIME =     0.03 SECS, INTEGRAL =      5.08 TIME LEFT:1209594.33
 STEP:  46 TIME =     0.03 SECS, INTEGRAL =      5.11 TIME LEFT:1209594.30
 STEP:  47 TIME =     0.04 SECS, INTEGRAL =      5.15 TIME LEFT:1209594.26
 STEP:  48 TIME =     0.03 SECS, INTEGRAL =      5.18 TIME LEFT:1209594.23
 STEP:  49 TIME =     0.03 SECS, INTEGRAL =      5.21 TIME LEFT:1209594.20
 STEP:  50 TIME =     0.03 SECS, INTEGRAL =      5.24 TIME LEFT:1209594.17
 STEP:  51 TIME =     0.04 SECS, INTEGRAL =      5.28 TIME LEFT:1209594.13

(To convert to Hartree/Bohr^2, multiply by (10^(-21) x N x a0^2)/(4.184 x 627.51) =  0.0642)


           FORCE MATRIX IN MILLIDYNES/ANGSTROM


                  C  1       H  2       H  3       H  4       N  5       O  6
 ------------------------------------------------------------------------------
     C    1  11.399976
     H    2   3.321050   4.148464
     H    3   1.385316   0.399294   2.098520
     H    4   3.353038   0.416293   0.376638   4.185592
     N    5   4.583015   0.973129   1.624160   0.964676  18.908922
     O    6   1.790401   0.099392   0.370316   0.065806   8.399420  11.309780
     O    7   1.752460   0.072712   0.369349   0.096895   8.480080   2.628453
     C    8   0.154440   0.020620   0.218537   0.018868   0.060237   0.022122
     O    9   0.062705   0.008396   0.091920   0.006993   0.026102   0.007580
     O   10   0.270535   0.033499   0.382098   0.032554   0.129415   0.042197
     C   11   0.030274   0.003616   0.041938   0.004326   0.013709   0.005693
    Cl   12   0.003080   0.000552   0.002605   0.001591   0.005309   0.001527
     H   13   0.017351   0.001780   0.028386   0.001736   0.008993   0.002523
     H   14   0.004720   0.000606   0.007195   0.000697   0.002656   0.001572
     H   15   0.173271   0.018271   0.485944   0.035295   0.092898   0.029007
     O   16   1.817821   0.129482   2.183453   0.124799   0.757338   0.206476
     H   17   0.484284   0.057812   0.755514   0.057644   0.246370   0.079839


                  O  7       C  8       O  9       O 10       C 11      Cl 12
 ------------------------------------------------------------------------------
     O    7  11.353173
     C    8   0.022357  17.559767
     O    9   0.010256  10.003720  12.417227
     O   10   0.041016   7.386416   2.441414  10.261231
     C   11   0.004527   2.754977   1.212500   1.136064  10.023303
    Cl   12   0.002099   0.614351   0.071515   0.068181   2.258524   3.670914
     H   13   0.003350   0.715215   0.071100   0.052603   3.262027   0.595956
     H   14   0.001149   0.711113   0.046417   0.074270   3.312111   0.598956
     H   15   0.028832   0.084042   0.036834   0.145703   0.012014   0.011399
     O   16   0.213122   0.535048   0.214941   2.256877   0.088467   0.027418
     H   17   0.075603   1.305108   0.392103   1.040212   0.079797   0.026349


                  H 13       H 14       H 15       O 16       H 17
 ------------------------------------------------------------------
     H   13   4.026789
     H   14   0.431503   4.085370
     H   15   0.009927   0.004649   4.259898
     O   16   0.025438   0.018049   3.824051   5.751809
     H   17   0.050834   0.021445   0.582953   1.531525   1.821893


          HEAT OF FORMATION =    -294.861301 KCALS/MOLE


          TRIVIAL VIBRATIONS, SHOULD BE ZERO

 -25.8562=TX -33.1409=TY -17.1559=TZ   0.4118=RX -11.3231=RY -12.9483=RZ


      MOLECULAR POINT GROUP   :   C1  


           EIGENVECTORS  


   Root No.       1         2         3         4         5         6         7         8

                 1 A       2 A       3 A       4 A       5 A       6 A       7 A       8 A   

                  -4.1      -0.0      -0.0      -0.0       0.0       0.0       0.0       0.0
  
           1    0.0196   -0.1379   -0.0483    0.0160    0.0078    0.0467    0.1742    0.0314
           2   -0.2775    0.0253   -0.0273    0.0356   -0.0220   -0.0621   -0.0930    0.0632
           3   -0.0151    0.0404    0.0370   -0.1031    0.0278   -0.0094    0.0102    0.0746
           4   -0.0180   -0.1368   -0.0479    0.0167    0.0041    0.0437    0.1715    0.0335
           5    0.0503    0.0090   -0.0329    0.0875   -0.2691   -0.2235   -0.1735    0.1397
           6   -0.0075    0.1936    0.2037   -0.1956    0.1286   -0.0585   -0.0681    0.0086
           7   -0.0497   -0.1054   -0.0390   -0.0300    0.2081    0.1641    0.0950   -0.0709
           8    0.7502    0.0401   -0.0269    0.0429   -0.0079   -0.0502   -0.1067    0.0218
           9    0.2163    0.0273    0.0267    0.0068    0.0260   -0.0352    0.1763    0.2775
          10   -0.0060   -0.2724   -0.1971    0.1079   -0.1281    0.0593    0.2313    0.1071
          11    0.0353    0.0214   -0.0434   -0.0445    0.0663    0.0339   -0.1726   -0.1634
          12   -0.0102   -0.0210   -0.0337   -0.0794   -0.0124    0.0182    0.0201    0.0593
          13    0.0453    0.0095    0.1179   -0.0446   -0.0265   -0.0931    0.0550    0.0102
          14    0.0026    0.0359   -0.0059    0.0650    0.1233   -0.0001    0.0765    0.2412
          15    0.0679   -0.0486   -0.0701   -0.0827   -0.0330    0.0375   -0.0145   -0.0143
          16   -0.0237   -0.0078    0.1060   -0.0233   -0.1707   -0.1809   -0.0735    0.0349
          17    0.0164    0.0492   -0.0123    0.0173    0.5130    0.2651    0.4400    0.1669
          18   -0.0113   -0.2085   -0.2485   -0.0175   -0.1742    0.0766   -0.0691   -0.0415
          19   -0.0036    0.1588    0.2788   -0.1185    0.0934   -0.1290    0.0808   -0.0350
          20    0.0112    0.0294    0.0182    0.1293   -0.1128   -0.1918   -0.1060    0.4907
          21   -0.0196    0.0329    0.0148   -0.1287    0.0530    0.0348    0.0153   -0.0603
          22   -0.0176   -0.0388   -0.0213   -0.0063   -0.0244   -0.0130   -0.0608    0.0240
          23    0.0035    0.0180   -0.0400   -0.0300    0.0407    0.0740   -0.0749   -0.1287
          24    0.0006   -0.0655   -0.1026    0.0403   -0.0637    0.1321   -0.0587   -0.0588
          25    0.0031   -0.0439   -0.0056   -0.0119   -0.1309   -0.0644    0.0817   -0.0163
          26   -0.0399    0.0489   -0.0642   -0.0497    0.0885    0.1640   -0.1818   -0.0751
          27    0.0019    0.1510   -0.1799   -0.1666   -0.4099    0.5106    0.0482    0.1184
          28   -0.0923   -0.0322   -0.0501    0.0067    0.1086    0.0555   -0.2317    0.0642
          29   -0.0721    0.0006   -0.0538    0.0019    0.1065    0.0743   -0.1375   -0.1328
          30    0.0296   -0.3115   -0.1489    0.3629    0.2383   -0.1499   -0.1821   -0.2296
          31   -0.0054   -0.0438   -0.0066   -0.0108   -0.0463   -0.0417   -0.0184    0.0047
          32   -0.0017   -0.0078    0.0071   -0.0352   -0.0946   -0.0472    0.1459   -0.2175
          33    0.0050   -0.0557    0.1089   -0.0945    0.0109   -0.0017   -0.0491   -0.0652
          34   -0.0014   -0.0505    0.3737   -0.0858    0.0002   -0.0987   -0.0230    0.0165
          35   -0.0008   -0.0957    0.4413    0.3910   -0.2604    0.3017    0.1203   -0.2107
          36    0.0002   -0.0563    0.2035   -0.1145    0.0234   -0.0162   -0.0505   -0.0599
          37   -0.0070   -0.0283   -0.1395    0.0181    0.0131    0.0343   -0.1382    0.0502
          38    0.0031    0.0051   -0.0969   -0.1712   -0.1147   -0.2094    0.2714   -0.2706
          39   -0.0042   -0.0917    0.4288    0.0831   -0.0318    0.1607   -0.0961   -0.0409
          40   -0.0025   -0.0520   -0.0690   -0.0053   -0.1558   -0.1006    0.1398   -0.0607
          41    0.0003    0.0095   -0.0945   -0.1477   -0.0888   -0.1684    0.2164   -0.2489
          42   -0.0023   -0.0098   -0.0843   -0.3556    0.0949   -0.2418    0.0074   -0.0891
          43   -0.0150    0.6529   -0.1325    0.1426   -0.0497    0.0816   -0.0596   -0.1670
          44   -0.0480   -0.1661    0.0620   -0.2472    0.0081    0.0701   -0.0699    0.2948
          45   -0.0152    0.2196   -0.0408    0.2482   -0.0017   -0.1361    0.1448    0.0889
          46    0.0611    0.1177   -0.0672    0.0242    0.1387    0.1283   -0.1670   -0.0551
          47   -0.4761   -0.0216   -0.0047   -0.0435   -0.0014   -0.0185   -0.1178    0.0939
          48   -0.1704    0.2696   -0.0531    0.2816   -0.0132   -0.1529    0.1451    0.0592
          49    0.1132    0.0107   -0.0524    0.0042    0.1584    0.1082   -0.2572    0.0284
          50    0.0430   -0.0013   -0.0258   -0.0014    0.0255   -0.0117   -0.0367   -0.0645
          51   -0.0656   -0.0660   -0.0616    0.3153    0.1372   -0.1689    0.0208   -0.0269


   Root No.       9        10        11        12        13        14        15        16

                 9 A      10 A      11 A      12 A      13 A      14 A      15 A      16 A   

                   0.0       0.1       0.2       0.3       0.3       0.4       0.5       0.7
  
           1   -0.0361    0.0922   -0.0410    0.0501    0.0096    0.0223   -0.0800   -0.1580
           2   -0.2316    0.1163   -0.0290    0.0073   -0.0538    0.0256   -0.0189   -0.0126
           3    0.0985    0.0104   -0.1170   -0.1403   -0.0158   -0.0108    0.0170    0.1011
           4   -0.0368    0.0876   -0.0432    0.0456    0.0061    0.0241   -0.0837   -0.1436
           5   -0.3695   -0.2620   -0.0679   -0.2786   -0.1333   -0.0178    0.4835   -0.2707
           6    0.1596    0.1848   -0.1314   -0.1084   -0.0248   -0.0103    0.0393   -0.3487
           7    0.2261    0.3373    0.1396    0.1556    0.0349   -0.0855    0.6714    0.0358
           8   -0.1834    0.1169    0.0459    0.0483    0.0495   -0.0437    0.0194    0.1094
           9    0.1793   -0.3005    0.1394    0.2187    0.0903   -0.0039   -0.0375   -0.0150
          10   -0.1129   -0.1097   -0.0970   -0.1145    0.0060    0.0085   -0.1781    0.2606
          11   -0.3290    0.4681    0.0590    0.3232   -0.0851    0.1309   -0.2848    0.0160
          12    0.0416   -0.0025   -0.1262   -0.1498   -0.0260    0.0054   -0.0727    0.2754
          13   -0.0515    0.0342   -0.0265    0.0194   -0.0031    0.0094   -0.0482   -0.1281
          14    0.0068    0.1181   -0.1088   -0.0533   -0.0362    0.0163   -0.0066   -0.0162
          15   -0.0211    0.0391   -0.0765   -0.0866   -0.0136   -0.0010    0.0049    0.0815
          16    0.0324    0.0988    0.0008    0.0642    0.0002    0.0121   -0.0603   -0.0864
          17   -0.2416   -0.0390   -0.1896   -0.1712   -0.0525    0.0185    0.0068   -0.1678
          18   -0.0214    0.1661   -0.0414    0.0098   -0.0068    0.0169    0.0278   -0.3023
          19   -0.1637   -0.1062   -0.0180   -0.0355   -0.0127   -0.0065   -0.0522    0.2246
          20    0.4617    0.3170   -0.2170   -0.1176   -0.0560    0.0343   -0.1039    0.1043
          21   -0.1223   -0.0514   -0.0649   -0.1126   -0.0196   -0.0103    0.0147    0.2388
          22   -0.0216   -0.0200    0.0020   -0.0198    0.0725   -0.1165   -0.0343   -0.0133
          23    0.1210   -0.0893    0.0893   -0.1022    0.1798   -0.1302   -0.0871   -0.0455
          24   -0.0030   -0.0369   -0.1165    0.0627   -0.0085   -0.0008    0.0068   -0.0103
          25   -0.0225    0.0220   -0.0245    0.0184    0.1652   -0.1933    0.0001   -0.0029
          26    0.1168   -0.1122    0.1455   -0.1623    0.1087   -0.0222   -0.1225   -0.0673
          27   -0.0601    0.0813    0.1537   -0.1076    0.1273    0.2550    0.0424    0.0236
          28   -0.0095   -0.0739    0.0269   -0.0317   -0.1438    0.0682   -0.0119    0.0450
          29    0.1337   -0.1160    0.0762   -0.1102    0.1249   -0.0380   -0.0917   -0.0604
          30    0.0784   -0.1525   -0.3445    0.1136    0.2062    0.3486    0.0438   -0.0331
          31   -0.0174   -0.0135   -0.0038   -0.0107    0.0552   -0.1051   -0.0295   -0.0123
          32    0.1384   -0.0520    0.0402   -0.0466    0.0494   -0.0665   -0.0612   -0.0604
          33   -0.0360   -0.0183   -0.0794    0.0773   -0.1214   -0.2092   -0.0104    0.0072
          34   -0.0656    0.0422    0.1719   -0.2071    0.4441    0.4967    0.0098   -0.0334
          35    0.1290   -0.0474   -0.0435    0.0308   -0.1751   -0.0797   -0.0419   -0.0528
          36   -0.0483   -0.0027   -0.0275    0.0169   -0.0024   -0.0210    0.0013   -0.0007
          37   -0.0163   -0.0500   -0.0051   -0.0365    0.2610   -0.4784   -0.1699   -0.1621
          38    0.1598   -0.0388    0.0405   -0.0214   -0.1367    0.2055    0.0226    0.0162
          39   -0.0645    0.0018   -0.0717    0.0595   -0.0956   -0.1582    0.0176    0.0524
          40    0.0131   -0.0001   -0.0719    0.0840   -0.3250    0.0488    0.0677    0.1110
          41    0.1547   -0.0499    0.0492   -0.0396   -0.0622    0.0223   -0.0450   -0.0459
          42   -0.0257   -0.0166   -0.0189    0.0305   -0.0900   -0.1287   -0.0360   -0.0404
          43    0.0374   -0.1015   -0.3938    0.1956    0.0827    0.0911    0.0658    0.0457
          44    0.0470   -0.3305    0.0747    0.5654    0.0082    0.1219    0.0494   -0.0677
          45   -0.0455   -0.0219    0.2735    0.1674    0.0348   -0.0172   -0.0380   -0.0972
          46    0.1570   -0.0992    0.1772   -0.0827   -0.2150    0.0460   -0.0027   -0.0434
          47   -0.1172   -0.0325    0.0020    0.0710    0.0154   -0.0120    0.0259    0.1913
          48   -0.0750    0.0146    0.2408    0.1199    0.0343   -0.0277   -0.0257   -0.0371
          49    0.0879   -0.1402    0.2064   -0.0943   -0.4378    0.1582   -0.0638    0.0608
          50    0.0034    0.0332    0.0333    0.0571    0.2551   -0.1651    0.2559    0.4301
          51   -0.0346    0.1053    0.4085   -0.1708   -0.0683   -0.0267    0.0047    0.1049


   Root No.      17        18        19        20        21        22        23        24

                17 A      18 A      19 A      20 A      21 A      22 A      23 A      24 A   

                   0.7       0.8       0.9       1.0       1.1       1.3       1.3       1.5
  
           1    0.1140   -0.0239    0.0819    0.0030    0.0263   -0.0877   -0.0635    0.0204
           2    0.0452    0.0302   -0.0808   -0.1035   -0.2394    0.0391    0.0830   -0.0869
           3   -0.0773   -0.0002   -0.0043   -0.0055   -0.0253   -0.1315   -0.0782    0.0108
           4    0.0952   -0.0260    0.0955   -0.0016    0.0196   -0.1228   -0.0847    0.0231
           5   -0.2374   -0.0491    0.1525    0.0657    0.1580    0.0609    0.0103    0.0350
           6    0.3216   -0.0497   -0.1293    0.1410    0.2339    0.4225    0.2185   -0.0019
           7   -0.2815    0.0921   -0.1103   -0.0847   -0.1162    0.1079    0.1187    0.0335
           8    0.2088    0.1353   -0.3149   -0.0922   -0.2231    0.0417    0.0602   -0.0041
           9   -0.0706    0.0657    0.5775   -0.2854   -0.1428    0.2528    0.1748    0.0285
          10   -0.0206   -0.0005   -0.2342    0.1214    0.1756    0.4264    0.2356   -0.0135
          11   -0.3564   -0.0583    0.2965    0.0618    0.2098    0.1495    0.0485    0.0308
          12   -0.2106   -0.0114   -0.0610    0.0757    0.1202    0.0806    0.0262    0.0200
          13    0.0966   -0.0141    0.0559   -0.0021    0.0040   -0.0765   -0.0537    0.0071
          14    0.0060    0.0135   -0.0040   -0.0737   -0.1514   -0.0352    0.0163   -0.0424
          15   -0.0633    0.0039   -0.0235   -0.0054   -0.0351   -0.1274   -0.0719    0.0070
          16    0.0882    0.0046    0.0429   -0.0488   -0.0845   -0.0698   -0.0281   -0.0178
          17    0.0522   -0.0431    0.0506    0.0350    0.0461   -0.0992   -0.0732    0.0075
          18    0.2241   -0.0114    0.0687   -0.0746   -0.1524   -0.2192   -0.1054   -0.0301
          19   -0.1461    0.0256   -0.0292   -0.0448   -0.1168   -0.1418   -0.0632   -0.0223
          20   -0.1461   -0.0287    0.0064    0.0459    0.0462   -0.1209   -0.0854    0.0111
          21   -0.1660    0.0275   -0.0659   -0.0450   -0.1317   -0.1646   -0.0711   -0.0190
          22   -0.0028    0.0674    0.0103    0.0373   -0.0823    0.1051   -0.0970   -0.1395
          23   -0.0342    0.0364    0.0524    0.1484   -0.0538   -0.0099    0.0189   -0.0081
          24   -0.0136   -0.0003   -0.0094   -0.0069   -0.0053    0.0680   -0.1445    0.1183
          25   -0.0416   -0.3653    0.0325    0.2169   -0.2241    0.0443    0.0341   -0.1689
          26   -0.0116    0.4270    0.0238    0.0004    0.0406    0.0419   -0.0660   -0.0135
          27    0.0184   -0.0575   -0.0055   -0.0139    0.0098   -0.0436    0.0793   -0.0504
          28    0.0847    0.1686   -0.0068   -0.1329   -0.0514    0.1548   -0.1325   -0.2126
          29   -0.0384    0.1364    0.0253    0.0989   -0.0658    0.0077    0.0222   -0.0430
          30   -0.0481   -0.0397   -0.0153    0.0040   -0.0169   -0.0365    0.0832   -0.1328
          31   -0.0044    0.0427    0.0111    0.0352   -0.0591    0.0805   -0.0866   -0.0600
          32   -0.0680   -0.1162    0.0079    0.1405   -0.1275   -0.0310    0.0977    0.1123
          33    0.0084    0.0180    0.0043    0.0076   -0.0148    0.1393   -0.2755    0.1789
          34   -0.0315    0.0370   -0.0311   -0.0939    0.1099   -0.0520    0.0146    0.0884
          35   -0.0538   -0.0896   -0.1392   -0.4183    0.1883    0.0195   -0.0654   -0.1000
          36   -0.0020    0.0082   -0.0090   -0.0202    0.0186    0.0823   -0.1957    0.1828
          37   -0.1595   -0.0283   -0.0880   -0.1708    0.1448   -0.0813    0.0299    0.2684
          38    0.0138   -0.0797   -0.0044    0.0534   -0.1993    0.2983   -0.4050    0.0763
          39    0.0555    0.0865    0.1403    0.4224   -0.2115   -0.1114    0.2889   -0.0863
          40    0.1595    0.5530    0.1262    0.1121    0.2144   -0.1628    0.0990    0.0965
          41   -0.0428   -0.0194   -0.0161    0.0008    0.0408   -0.2415    0.4091   -0.0260
          42   -0.0415   -0.0666   -0.1312   -0.3955    0.2190   -0.1109    0.1717   -0.2879
          43    0.0418   -0.0432   -0.0142   -0.0460   -0.0104   -0.0241    0.0692    0.2718
          44   -0.0223   -0.0771   -0.3296    0.2041    0.1494   -0.1449   -0.0592    0.1676
          45   -0.0666    0.0785   -0.1881    0.1223    0.0447   -0.0175   -0.0926   -0.2396
          46   -0.0834   -0.0911    0.0223    0.1547    0.1385   -0.0523   -0.1522   -0.2533
          47    0.2717   -0.0134   -0.0102   -0.2169   -0.2161    0.1086    0.1530    0.0653
          48   -0.0051    0.0259   -0.1174    0.0677    0.0233   -0.0066   -0.0524   -0.2117
          49    0.0913   -0.3987    0.0352   -0.0551   -0.0883   -0.0479    0.1603    0.0787
          50    0.4133   -0.2042    0.2836    0.0497    0.3971   -0.0848   -0.1649   -0.1818
          51    0.1369   -0.0775   -0.0310    0.0119    0.0663   -0.0763    0.0446    0.5134


   Root No.      25        26        27        28        29        30        31        32

                25 A      26 A      27 A      28 A      29 A      30 A      31 A      32 A   

                   1.5       2.0       2.3       2.8       3.2       3.5       3.8       4.5
  
           1    0.0406   -0.1522    0.0126   -0.1746    0.0669    0.0766    0.0040    0.0161
           2   -0.1406    0.4848   -0.0268   -0.0597    0.0667    0.2577    0.0306   -0.1918
           3    0.0255   -0.1081    0.0070    0.1312    0.1162    0.1693    0.0124   -0.0139
           4    0.0478   -0.2145    0.0220   -0.4050    0.2272    0.3550    0.0307    0.0597
           5    0.0428   -0.1060    0.0072   -0.0510    0.0088    0.0010    0.0003    0.0303
           6   -0.0296    0.0550   -0.0007   -0.1732   -0.0280   -0.0283    0.0009    0.0309
           7   -0.0534   -0.0311    0.0205    0.0433   -0.0432   -0.0189    0.0032   -0.0041
           8   -0.0086   -0.1059    0.0155    0.0108    0.1307    0.0049   -0.0306   -0.1138
           9    0.0045    0.1242   -0.0082   -0.0369    0.0350   -0.0270   -0.0161   -0.0841
          10   -0.0521    0.1548   -0.0096   -0.0386   -0.1172   -0.1674   -0.0130   -0.0034
          11    0.0490   -0.0630    0.0005    0.0046   -0.0315   -0.0717   -0.0079    0.0229
          12    0.0265   -0.1206    0.0056    0.4837    0.1778    0.2951    0.0288    0.0671
          13    0.0279   -0.0776    0.0005    0.3126    0.0256   -0.0383   -0.0188   -0.1769
          14   -0.0722    0.3094   -0.0202    0.0223    0.0175    0.3043    0.0764    0.4456
          15    0.0180   -0.0900    0.0092   -0.1951    0.0440    0.0230   -0.0090   -0.1570
          16   -0.0163    0.0993   -0.0110    0.3196    0.0244    0.0898    0.0155    0.0211
          17    0.0301   -0.0649   -0.0011    0.1953   -0.0563   -0.1627   -0.0274   -0.1297
          18   -0.0233    0.1785   -0.0201    0.1958   -0.2345   -0.3438   -0.0233    0.0874
          19   -0.0255    0.1300   -0.0121   -0.0458   -0.2053   -0.3045   -0.0192    0.0997
          20    0.0309   -0.0882    0.0046   -0.1383   -0.0985   -0.2385   -0.0345   -0.1202
          21   -0.0266    0.0841   -0.0013   -0.4194   -0.0749   -0.0747    0.0002    0.0255
          22    0.2361   -0.0483   -0.0359    0.0003   -0.0970    0.0080    0.1339    0.2277
          23   -0.0017    0.0052    0.3591    0.0039   -0.0304   -0.0047    0.0683    0.0113
          24   -0.1716    0.0175    0.0219    0.0006    0.2101   -0.1848    0.7824   -0.0628
          25    0.1894    0.0494    0.4050    0.0037    0.1524   -0.0890   -0.0518    0.0606
          26    0.1020   -0.0779    0.0114    0.0013   -0.2435    0.0898    0.0892    0.1759
          27    0.0569   -0.0002   -0.0442    0.0004   -0.0526    0.0543   -0.2342   -0.0096
          28    0.2276   -0.1086   -0.3541   -0.0024    0.3153   -0.2271   -0.0890    0.1747
          29    0.0502    0.0153    0.2872    0.0025    0.1252   -0.0610   -0.1057   -0.1069
          30   -0.0405   -0.0190   -0.0179    0.0013   -0.0892    0.0769   -0.2071   -0.0074
          31    0.1264   -0.0523   -0.1259   -0.0008   -0.2455    0.1254    0.1042   -0.0016
          32   -0.1226   -0.0320   -0.2271   -0.0015    0.0547   -0.0258   -0.0223   -0.0007
          33   -0.1469    0.0248    0.0602    0.0002    0.0142    0.0085   -0.1319   -0.0455
          34   -0.1324    0.0166    0.0175   -0.0008    0.0109   -0.0074    0.1461   -0.1027
          35    0.0994    0.0172    0.0865    0.0002   -0.0165    0.0083   -0.0076    0.0050
          36   -0.1826    0.0449    0.1226    0.0008    0.2323   -0.1273   -0.3315    0.3664
          37   -0.2957   -0.0089   -0.2675   -0.0020   -0.0843    0.0837   -0.1599   -0.1369
          38    0.0301   -0.0467   -0.1741   -0.0015   -0.2186    0.1416   -0.0546   -0.1644
          39    0.1029   -0.0671   -0.2734   -0.0023   -0.1554    0.0959    0.0395   -0.1437
          40   -0.1594    0.0643    0.2878    0.0021   -0.0217    0.0308   -0.0812   -0.0674
          41   -0.0671   -0.0277   -0.2671   -0.0021    0.2707   -0.1798    0.0505    0.2323
          42    0.2759    0.0026    0.1302    0.0004   -0.1537    0.0899    0.0762   -0.1352
          43    0.1881    0.0401    0.0053   -0.0018   -0.0255    0.0065    0.0080    0.0242
          44    0.1578    0.0831   -0.0150   -0.0008   -0.0266    0.0183    0.0135    0.0232
          45   -0.1497   -0.1414    0.0051    0.0099   -0.0282   -0.0267    0.0008    0.0956
          46   -0.0443    0.3251   -0.0949   -0.0191    0.2903   -0.0159   -0.0865   -0.3529
          47   -0.0734   -0.3789    0.0785    0.0217    0.1151   -0.1119   -0.0695   -0.1949
          48   -0.1988   -0.1532    0.0212    0.0085   -0.0471    0.0077    0.0084    0.0027
          49   -0.3048   -0.1860    0.1397    0.0092   -0.2735    0.0929    0.0739    0.1621
          50   -0.1063    0.0764   -0.1191   -0.0079   -0.0676    0.0304    0.0311    0.0759
          51    0.4594    0.1680   -0.0172   -0.0059    0.0341   -0.0078    0.0035   -0.0164


   Root No.      33        34        35        36        37        38        39        40

                33 A      34 A      35 A      36 A      37 A      38 A      39 A      40 A   

                   5.0       5.9       6.4       7.0       8.2       8.8       9.1       9.9
  
           1   -0.0232    0.0359   -0.2118    0.0247    0.0271    0.0026    0.0012    0.6953
           2    0.4272    0.1004    0.2665   -0.0598   -0.0333   -0.0002   -0.0014    0.0889
           3    0.0422    0.0691   -0.2714    0.0278    0.0045   -0.0016    0.0000   -0.4406
           4   -0.0902   -0.1273    0.4127   -0.0320   -0.0216   -0.0023   -0.0008   -0.3723
           5   -0.0522   -0.0144   -0.0059    0.0032    0.0015    0.0002    0.0001    0.0146
           6   -0.0438   -0.0207    0.0409   -0.0025    0.0003    0.0001   -0.0000    0.0286
           7    0.0378    0.0152    0.0232   -0.0052    0.0088    0.0018    0.0003   -0.0136
           8   -0.0334   -0.1036    0.0446    0.0269    0.0479    0.0038    0.0017   -0.0009
           9    0.0438   -0.0274    0.0428    0.0025    0.0002   -0.0003    0.0004    0.0109
          10    0.0047    0.0338   -0.1245    0.0109    0.0002   -0.0004   -0.0001   -0.1775
          11   -0.0480    0.0027   -0.0784    0.0098    0.0009   -0.0005   -0.0000   -0.0812
          12   -0.0922   -0.1169    0.3849   -0.0307   -0.0030    0.0012    0.0001    0.3252
          13    0.2334    0.0827   -0.1087   -0.0007   -0.0039   -0.0001   -0.0003   -0.0631
          14   -0.4268    0.0264   -0.3077    0.0296    0.0097    0.0003    0.0002   -0.0048
          15    0.2506    0.1320   -0.2348    0.0053   -0.0003    0.0006   -0.0003    0.0301
          16    0.0438    0.0957   -0.2607    0.0147    0.0025   -0.0001   -0.0001   -0.0869
          17    0.1303    0.0159    0.0166   -0.0038   -0.0028   -0.0002   -0.0003   -0.0537
          18   -0.1822   -0.1052    0.2006   -0.0074   -0.0028   -0.0004    0.0001   -0.0529
          19   -0.2073   -0.1326    0.2704   -0.0125   -0.0023   -0.0002    0.0000    0.0124
          20    0.0909   -0.0234    0.1136   -0.0089   -0.0021    0.0002   -0.0001    0.0366
          21    0.0008    0.0499   -0.1483    0.0090    0.0060    0.0007    0.0002    0.1032
          22    0.2375   -0.1959   -0.0095    0.2748   -0.0353   -0.3502    0.0286    0.0022
          23   -0.0171    0.1021    0.0241   -0.0767    0.0562    0.0597   -0.0530   -0.0017
          24   -0.0248   -0.0395   -0.0237   -0.1316    0.0151   -0.0296   -0.0063   -0.0006
          25    0.0062    0.0768    0.0247    0.0396    0.0308   -0.1248   -0.0518   -0.0001
          26    0.1917   -0.1294    0.0010    0.1881   -0.0106   -0.1586    0.0066    0.0002
          27   -0.0181    0.0250    0.0071    0.0243   -0.0065    0.0333    0.0052   -0.0004
          28   -0.0533    0.4202    0.0976   -0.1673    0.1479    0.0275    0.0863   -0.0033
          29   -0.1707    0.2051    0.0190   -0.2205    0.0376    0.2059   -0.0696   -0.0005
          30    0.0153   -0.0507   -0.0053    0.0817   -0.0166   -0.0143    0.0037    0.0001
          31    0.0837   -0.2376   -0.0677   -0.1036   -0.1192    0.7825    0.0161   -0.0005
          32   -0.0110    0.0199    0.0061    0.0354   -0.0293   -0.0169    0.8165   -0.0000
          33   -0.0911    0.3092    0.1293    0.6458   -0.0855    0.1955   -0.0414    0.0012
          34   -0.0871    0.1020    0.0274    0.0829    0.0003   -0.0244   -0.0044    0.0006
          35    0.0059   -0.0025    0.0003   -0.0039    0.0025    0.0011   -0.0274    0.0001
          36    0.2906   -0.3332   -0.0977   -0.3394    0.0201    0.0004    0.0151   -0.0007
          37   -0.1113    0.0474   -0.0088   -0.1632    0.0567   -0.1874   -0.1659   -0.0001
          38   -0.1095    0.0214   -0.0174   -0.2000    0.0629   -0.1955   -0.2559   -0.0002
          39   -0.0959    0.0210   -0.0135   -0.1483    0.0430   -0.1297   -0.1337   -0.0002
          40   -0.0589    0.0367   -0.0001   -0.0662    0.0203   -0.0744    0.0998    0.0000
          41    0.1503   -0.0194    0.0228    0.2093   -0.0310    0.1394   -0.4068    0.0005
          42   -0.0842    0.0120   -0.0120   -0.1108    0.0180   -0.0654    0.1551   -0.0003
          43    0.0136    0.0281    0.0085   -0.0129   -0.0344   -0.0030   -0.0011    0.0008
          44    0.0173    0.0098    0.0077    0.0058    0.0843    0.0110    0.0033   -0.0038
          45   -0.0102    0.1706    0.0162   -0.1388   -0.6513   -0.0753   -0.0194    0.0118
          46   -0.1528   -0.3987   -0.1267    0.1550   -0.0851   -0.0414   -0.0073    0.0082
          47   -0.2015   -0.2904   -0.1449    0.1080   -0.1755   -0.0449   -0.0160    0.0056
          48    0.0132   -0.0853   -0.0087    0.1107    0.6790    0.0857    0.0221   -0.0161
          49    0.1237    0.1176    0.0539   -0.0393    0.0074   -0.0059   -0.0007   -0.0020
          50    0.0567    0.0794    0.0320   -0.0425   -0.0187   -0.0048    0.0022    0.0001
          51   -0.0142   -0.0099   -0.0064    0.0023   -0.0202   -0.0009   -0.0010    0.0008


   Root No.      41        42        43        44        45

                41 A      42 A      43 A      44 A      45 A   

                  12.3      17.0      20.1      21.3      23.7
  
           1    0.3806    0.0003   -0.0829   -0.0250    0.0008
           2    0.1869   -0.0033   -0.0100   -0.0030    0.0051
           3    0.6442    0.0005   -0.1325    0.0272    0.0025
           4   -0.1309   -0.0000   -0.0160   -0.0059    0.0007
           5    0.0159    0.0007   -0.0165   -0.0055   -0.0005
           6   -0.0164    0.0002   -0.0078   -0.0158   -0.0001
           7   -0.0055   -0.0002    0.0017    0.0021    0.0005
           8    0.0466    0.0049   -0.0672    0.0033   -0.0056
           9    0.0017    0.0006   -0.0123   -0.0012   -0.0016
          10    0.0381   -0.0002    0.0025    0.0109    0.0003
          11    0.0352    0.0009   -0.0107    0.0081   -0.0004
          12   -0.1279   -0.0001   -0.0171    0.0152    0.0002
          13   -0.1461   -0.0017    0.3717    0.6251   -0.0022
          14   -0.1139   -0.0013    0.2884    0.0934   -0.0030
          15   -0.2475   -0.0033    0.5468   -0.4640   -0.0071
          16   -0.3417    0.0030   -0.4689   -0.3869    0.0029
          17   -0.1149    0.0012   -0.1666   -0.1307    0.0010
          18    0.0588   -0.0001    0.0156    0.0318    0.0001
          19    0.2013   -0.0010    0.1938   -0.2199   -0.0024
          20   -0.0213    0.0005   -0.0428    0.0361    0.0003
          21   -0.3054    0.0030   -0.4009    0.4071    0.0043
          22   -0.0012    0.4825    0.0069   -0.0013    0.3710
          23    0.0017   -0.4076    0.0019   -0.0015    0.6630
          24   -0.0002    0.0158   -0.0002    0.0005   -0.0781
          25    0.0010   -0.2205   -0.0052    0.0012   -0.3982
          26    0.0014   -0.2682   -0.0062    0.0014   -0.4695
          27    0.0002    0.0349    0.0007   -0.0000    0.0587
          28    0.0015   -0.1869    0.0010   -0.0002    0.0541
          29   -0.0013    0.6499    0.0057   -0.0001   -0.1620
          30    0.0003   -0.0536   -0.0009    0.0001    0.0159
          31    0.0001   -0.0370   -0.0006    0.0002   -0.0102
          32   -0.0006    0.0229    0.0005   -0.0001   -0.0136
          33   -0.0002    0.0185   -0.0000   -0.0005    0.0053
          34   -0.0003   -0.0017   -0.0000   -0.0002   -0.0022
          35    0.0005   -0.0021   -0.0004    0.0000    0.0017
          36    0.0004    0.0003   -0.0002    0.0001    0.0030
          37   -0.0000   -0.0113    0.0000    0.0001   -0.0165
          38    0.0005   -0.0134   -0.0002    0.0000   -0.0002
          39   -0.0000   -0.0092    0.0001   -0.0000   -0.0051
          40    0.0001   -0.0194   -0.0001   -0.0000    0.0082
          41    0.0004    0.0162   -0.0002   -0.0001    0.0031
          42   -0.0000   -0.0086    0.0000   -0.0000   -0.0020
          43    0.0018   -0.0013   -0.0009   -0.0001    0.0002
          44    0.0010    0.0028   -0.0006    0.0000   -0.0021
          45    0.0111   -0.0149   -0.0073    0.0005    0.0060
          46   -0.0128   -0.0682    0.0075   -0.0007    0.0232
          47   -0.0466   -0.0532    0.0319   -0.0018    0.0238
          48   -0.0168    0.0318    0.0133   -0.0009   -0.0100
          49    0.0140    0.0637   -0.0106    0.0007   -0.0303
          50    0.0085    0.0492   -0.0069    0.0005   -0.0411
          51   -0.0023   -0.0158    0.0026    0.0000    0.0081


          FORCE CONSTANTS IN MILLIDYNES/ANGSTROM (= 10**5 DYNES/CM)

  -4.10870  -0.03059  -0.01093  -0.00523   0.00095   0.00708   0.02297   0.03224
   0.04448   0.13544   0.19855   0.27236   0.34894   0.43324   0.52915   0.65963
   0.67855   0.76705   0.93177   1.02424   1.14550   1.30698   1.34269   1.49499
   1.54147   1.97876   2.33781   2.78192   3.23539   3.46834   3.80231   4.54803
   4.97776   5.93500   6.40220   6.99011   8.24939   8.80589   9.06266   9.86439
  12.25811  16.95242  20.09423  21.26822  23.72778


           ASSOCIATED EIGENVECTORS




    ROOT NO.    1           2           3           4           5           6

            -4.10870    -0.03059    -0.01093    -0.00523     0.00095     0.00708
  
         1   0.01960    -0.13790    -0.04833     0.01603     0.00778     0.04673
         2  -0.27746     0.02532    -0.02726     0.03557    -0.02202    -0.06207
         3  -0.01514     0.04045     0.03699    -0.10306     0.02780    -0.00938
         4  -0.01804    -0.13675    -0.04788     0.01672     0.00412     0.04370
         5   0.05029     0.00904    -0.03290     0.08753    -0.26911    -0.22350
         6  -0.00751     0.19364     0.20366    -0.19557     0.12856    -0.05847
         7  -0.04973    -0.10536    -0.03895    -0.03002     0.20808     0.16405
         8   0.75024     0.04005    -0.02694     0.04287    -0.00786    -0.05018
         9   0.21626     0.02734     0.02673     0.00684     0.02599    -0.03517
        10  -0.00598    -0.27235    -0.19714     0.10791    -0.12812     0.05926
        11   0.03534     0.02143    -0.04337    -0.04451     0.06629     0.03386
        12  -0.01019    -0.02098    -0.03367    -0.07944    -0.01244     0.01816
        13   0.04530     0.00946     0.11791    -0.04459    -0.02647    -0.09313
        14   0.00260     0.03589    -0.00588     0.06499     0.12327    -0.00013
        15   0.06792    -0.04862    -0.07013    -0.08273    -0.03296     0.03751
        16  -0.02369    -0.00780     0.10601    -0.02327    -0.17074    -0.18095
        17   0.01642     0.04918    -0.01234     0.01728     0.51302     0.26511
        18  -0.01132    -0.20848    -0.24848    -0.01752    -0.17420     0.07663
        19  -0.00364     0.15882     0.27879    -0.11846     0.09337    -0.12904
        20   0.01119     0.02941     0.01818     0.12927    -0.11281    -0.19183
        21  -0.01961     0.03290     0.01484    -0.12874     0.05301     0.03476
        22  -0.01762    -0.03877    -0.02132    -0.00630    -0.02437    -0.01305
        23   0.00354     0.01803    -0.04003    -0.02996     0.04066     0.07396
        24   0.00062    -0.06547    -0.10263     0.04030    -0.06372     0.13210
        25   0.00312    -0.04394    -0.00559    -0.01190    -0.13091    -0.06443
        26  -0.03987     0.04891    -0.06421    -0.04973     0.08849     0.16395
        27   0.00192     0.15100    -0.17989    -0.16659    -0.40988     0.51059
        28  -0.09233    -0.03217    -0.05014     0.00673     0.10864     0.05546
        29  -0.07207     0.00059    -0.05375     0.00191     0.10654     0.07425
        30   0.02955    -0.31155    -0.14890     0.36292     0.23826    -0.14992
        31  -0.00539    -0.04382    -0.00659    -0.01079    -0.04630    -0.04169
        32  -0.00171    -0.00780     0.00705    -0.03522    -0.09465    -0.04725
        33   0.00500    -0.05566     0.10895    -0.09450     0.01086    -0.00169
        34  -0.00144    -0.05049     0.37375    -0.08580     0.00019    -0.09873
        35  -0.00076    -0.09565     0.44125     0.39097    -0.26043     0.30173
        36   0.00020    -0.05630     0.20351    -0.11453     0.02341    -0.01617
        37  -0.00701    -0.02826    -0.13947     0.01810     0.01308     0.03430
        38   0.00308     0.00511    -0.09687    -0.17119    -0.11475    -0.20938
        39  -0.00422    -0.09175     0.42884     0.08312    -0.03182     0.16070
        40  -0.00246    -0.05196    -0.06901    -0.00535    -0.15575    -0.10057
        41   0.00026     0.00953    -0.09446    -0.14774    -0.08882    -0.16836
        42  -0.00228    -0.00980    -0.08430    -0.35562     0.09490    -0.24180
        43  -0.01497     0.65291    -0.13246     0.14259    -0.04967     0.08161
        44  -0.04800    -0.16614     0.06204    -0.24718     0.00811     0.07008
        45  -0.01516     0.21964    -0.04085     0.24818    -0.00172    -0.13606
        46   0.06111     0.11766    -0.06718     0.02419     0.13868     0.12828
        47  -0.47611    -0.02165    -0.00468    -0.04348    -0.00141    -0.01852
        48  -0.17043     0.26963    -0.05309     0.28162    -0.01319    -0.15288
        49   0.11317     0.01072    -0.05240     0.00421     0.15840     0.10820
        50   0.04303    -0.00126    -0.02582    -0.00138     0.02547    -0.01172
        51  -0.06560    -0.06601    -0.06156     0.31532     0.13716    -0.16888




    ROOT NO.    7           8           9          10          11          12

             0.02297     0.03224     0.04448     0.13544     0.19855     0.27236
  
         1   0.17422     0.03142    -0.03608     0.09217    -0.04103     0.05011
         2  -0.09302     0.06321    -0.23165     0.11631    -0.02896     0.00732
         3   0.01021     0.07464     0.09852     0.01035    -0.11697    -0.14030
         4   0.17154     0.03354    -0.03676     0.08758    -0.04318     0.04561
         5  -0.17355     0.13969    -0.36954    -0.26204    -0.06787    -0.27864
         6  -0.06808     0.00861     0.15961     0.18477    -0.13144    -0.10843
         7   0.09504    -0.07090     0.22610     0.33733     0.13960     0.15556
         8  -0.10668     0.02176    -0.18338     0.11691     0.04589     0.04826
         9   0.17630     0.27752     0.17930    -0.30045     0.13944     0.21870
        10   0.23127     0.10709    -0.11293    -0.10975    -0.09705    -0.11451
        11  -0.17256    -0.16340    -0.32902     0.46814     0.05898     0.32319
        12   0.02011     0.05926     0.04160    -0.00251    -0.12623    -0.14980
        13   0.05501     0.01017    -0.05155     0.03420    -0.02649     0.01940
        14   0.07650     0.24117     0.00682     0.11814    -0.10882    -0.05326
        15  -0.01453    -0.01429    -0.02108     0.03914    -0.07650    -0.08657
        16  -0.07351     0.03487     0.03242     0.09876     0.00075     0.06416
        17   0.44001     0.16688    -0.24161    -0.03903    -0.18960    -0.17121
        18  -0.06910    -0.04155    -0.02142     0.16608    -0.04136     0.00981
        19   0.08079    -0.03498    -0.16366    -0.10615    -0.01800    -0.03553
        20  -0.10604     0.49074     0.46172     0.31698    -0.21700    -0.11762
        21   0.01528    -0.06031    -0.12226    -0.05139    -0.06491    -0.11257
        22  -0.06077     0.02400    -0.02162    -0.02001     0.00197    -0.01980
        23  -0.07488    -0.12869     0.12095    -0.08927     0.08929    -0.10225
        24  -0.05873    -0.05882    -0.00301    -0.03691    -0.11649     0.06271
        25   0.08167    -0.01635    -0.02249     0.02200    -0.02449     0.01840
        26  -0.18181    -0.07511     0.11678    -0.11225     0.14553    -0.16230
        27   0.04816     0.11842    -0.06006     0.08126     0.15368    -0.10764
        28  -0.23166     0.06424    -0.00953    -0.07388     0.02695    -0.03170
        29  -0.13751    -0.13279     0.13368    -0.11601     0.07618    -0.11024
        30  -0.18213    -0.22956     0.07840    -0.15253    -0.34454     0.11356
        31  -0.01845     0.00468    -0.01744    -0.01346    -0.00380    -0.01065
        32   0.14589    -0.21754     0.13838    -0.05197     0.04016    -0.04663
        33  -0.04909    -0.06522    -0.03600    -0.01828    -0.07942     0.07730
        34  -0.02297     0.01647    -0.06557     0.04216     0.17193    -0.20709
        35   0.12033    -0.21071     0.12901    -0.04741    -0.04353     0.03083
        36  -0.05045    -0.05992    -0.04826    -0.00271    -0.02752     0.01687
        37  -0.13825     0.05016    -0.01631    -0.05001    -0.00508    -0.03654
        38   0.27136    -0.27063     0.15983    -0.03880     0.04055    -0.02138
        39  -0.09613    -0.04087    -0.06450     0.00177    -0.07169     0.05945
        40   0.13981    -0.06065     0.01314    -0.00010    -0.07186     0.08401
        41   0.21637    -0.24885     0.15475    -0.04988     0.04917    -0.03958
        42   0.00745    -0.08910    -0.02575    -0.01658    -0.01888     0.03048
        43  -0.05959    -0.16705     0.03744    -0.10145    -0.39379     0.19557
        44  -0.06988     0.29482     0.04702    -0.33048     0.07469     0.56542
        45   0.14484     0.08889    -0.04552    -0.02188     0.27352     0.16736
        46  -0.16696    -0.05507     0.15698    -0.09916     0.17715    -0.08275
        47  -0.11781     0.09395    -0.11722    -0.03252     0.00200     0.07104
        48   0.14507     0.05921    -0.07497     0.01462     0.24082     0.11990
        49  -0.25719     0.02837     0.08786    -0.14022     0.20641    -0.09426
        50  -0.03674    -0.06450     0.00345     0.03318     0.03334     0.05707
        51   0.02082    -0.02692    -0.03460     0.10526     0.40849    -0.17081




    ROOT NO.   13          14          15          16          17          18

             0.34894     0.43324     0.52915     0.65963     0.67855     0.76705
  
         1   0.00956     0.02229    -0.08004    -0.15803     0.11405    -0.02391
         2  -0.05377     0.02562    -0.01885    -0.01261     0.04522     0.03016
         3  -0.01578    -0.01085     0.01699     0.10109    -0.07728    -0.00023
         4   0.00607     0.02408    -0.08367    -0.14364     0.09516    -0.02596
         5  -0.13330    -0.01776     0.48347    -0.27071    -0.23737    -0.04910
         6  -0.02478    -0.01031     0.03930    -0.34867     0.32156    -0.04973
         7   0.03490    -0.08555     0.67141     0.03582    -0.28147     0.09206
         8   0.04953    -0.04369     0.01940     0.10944     0.20875     0.13525
         9   0.09033    -0.00395    -0.03746    -0.01504    -0.07059     0.06572
        10   0.00596     0.00852    -0.17811     0.26063    -0.02065    -0.00048
        11  -0.08514     0.13088    -0.28481     0.01596    -0.35641    -0.05830
        12  -0.02604     0.00543    -0.07270     0.27539    -0.21063    -0.01137
        13  -0.00308     0.00938    -0.04816    -0.12814     0.09662    -0.01408
        14  -0.03621     0.01632    -0.00659    -0.01621     0.00601     0.01354
        15  -0.01364    -0.00103     0.00486     0.08149    -0.06331     0.00386
        16   0.00019     0.01208    -0.06029    -0.08641     0.08822     0.00458
        17  -0.05251     0.01849     0.00682    -0.16780     0.05216    -0.04305
        18  -0.00682     0.01691     0.02784    -0.30226     0.22408    -0.01139
        19  -0.01268    -0.00645    -0.05225     0.22457    -0.14611     0.02561
        20  -0.05599     0.03425    -0.10388     0.10427    -0.14611    -0.02873
        21  -0.01958    -0.01034     0.01466     0.23879    -0.16602     0.02754
        22   0.07246    -0.11651    -0.03434    -0.01334    -0.00281     0.06744
        23   0.17977    -0.13024    -0.08710    -0.04552    -0.03419     0.03641
        24  -0.00852    -0.00076     0.00676    -0.01027    -0.01363    -0.00030
        25   0.16519    -0.19328     0.00008    -0.00286    -0.04161    -0.36528
        26   0.10870    -0.02221    -0.12248    -0.06729    -0.01165     0.42698
        27   0.12727     0.25501     0.04241     0.02356     0.01836    -0.05749
        28  -0.14383     0.06818    -0.01191     0.04502     0.08472     0.16858
        29   0.12485    -0.03796    -0.09170    -0.06039    -0.03841     0.13638
        30   0.20618     0.34855     0.04379    -0.03312    -0.04814    -0.03969
        31   0.05516    -0.10514    -0.02947    -0.01225    -0.00442     0.04273
        32   0.04943    -0.06654    -0.06116    -0.06038    -0.06796    -0.11621
        33  -0.12136    -0.20918    -0.01043     0.00716     0.00844     0.01802
        34   0.44411     0.49671     0.00976    -0.03336    -0.03149     0.03696
        35  -0.17513    -0.07966    -0.04193    -0.05277    -0.05376    -0.08957
        36  -0.00243    -0.02100     0.00134    -0.00066    -0.00200     0.00817
        37   0.26104    -0.47840    -0.16994    -0.16215    -0.15946    -0.02830
        38  -0.13674     0.20546     0.02263     0.01619     0.01383    -0.07971
        39  -0.09558    -0.15824     0.01759     0.05236     0.05550     0.08649
        40  -0.32501     0.04882     0.06768     0.11101     0.15950     0.55303
        41  -0.06219     0.02230    -0.04505    -0.04590    -0.04281    -0.01936
        42  -0.09002    -0.12871    -0.03597    -0.04040    -0.04152    -0.06662
        43   0.08271     0.09105     0.06576     0.04575     0.04183    -0.04318
        44   0.00819     0.12192     0.04940    -0.06771    -0.02232    -0.07709
        45   0.03477    -0.01718    -0.03799    -0.09721    -0.06663     0.07855
        46  -0.21497     0.04597    -0.00272    -0.04343    -0.08337    -0.09112
        47   0.01539    -0.01204     0.02592     0.19133     0.27167    -0.01341
        48   0.03428    -0.02771    -0.02566    -0.03713    -0.00508     0.02591
        49  -0.43777     0.15824    -0.06378     0.06080     0.09128    -0.39870
        50   0.25512    -0.16513     0.25592     0.43011     0.41334    -0.20418
        51  -0.06828    -0.02667     0.00466     0.10492     0.13688    -0.07745




    ROOT NO.   19          20          21          22          23          24

             0.93177     1.02424     1.14550     1.30698     1.34269     1.49499
  
         1   0.08186     0.00297     0.02631    -0.08771    -0.06352     0.02042
         2  -0.08077    -0.10350    -0.23936     0.03912     0.08303    -0.08691
         3  -0.00428    -0.00549    -0.02528    -0.13154    -0.07822     0.01081
         4   0.09555    -0.00163     0.01959    -0.12278    -0.08465     0.02312
         5   0.15252     0.06568     0.15795     0.06095     0.01027     0.03497
         6  -0.12934     0.14097     0.23394     0.42250     0.21852    -0.00193
         7  -0.11028    -0.08467    -0.11616     0.10789     0.11873     0.03353
         8  -0.31486    -0.09218    -0.22313     0.04171     0.06021    -0.00412
         9   0.57753    -0.28545    -0.14278     0.25276     0.17485     0.02848
        10  -0.23423     0.12144     0.17555     0.42645     0.23565    -0.01354
        11   0.29654     0.06185     0.20984     0.14955     0.04850     0.03080
        12  -0.06096     0.07566     0.12024     0.08063     0.02622     0.02000
        13   0.05587    -0.00214     0.00397    -0.07646    -0.05369     0.00711
        14  -0.00395    -0.07370    -0.15135    -0.03517     0.01628    -0.04240
        15  -0.02345    -0.00540    -0.03514    -0.12740    -0.07194     0.00703
        16   0.04292    -0.04876    -0.08455    -0.06979    -0.02814    -0.01785
        17   0.05064     0.03501     0.04613    -0.09916    -0.07315     0.00749
        18   0.06871    -0.07457    -0.15244    -0.21917    -0.10537    -0.03007
        19  -0.02924    -0.04483    -0.11681    -0.14184    -0.06321    -0.02234
        20   0.00637     0.04591     0.04618    -0.12092    -0.08535     0.01108
        21  -0.06590    -0.04504    -0.13170    -0.16459    -0.07106    -0.01899
        22   0.01029     0.03733    -0.08234     0.10507    -0.09704    -0.13947
        23   0.05240     0.14839    -0.05384    -0.00991     0.01887    -0.00807
        24  -0.00941    -0.00695    -0.00533     0.06803    -0.14445     0.11829
        25   0.03247     0.21695    -0.22405     0.04433     0.03411    -0.16886
        26   0.02384     0.00042     0.04062     0.04195    -0.06602    -0.01353
        27  -0.00550    -0.01390     0.00980    -0.04357     0.07934    -0.05040
        28  -0.00678    -0.13291    -0.05145     0.15478    -0.13248    -0.21259
        29   0.02527     0.09891    -0.06583     0.00772     0.02216    -0.04298
        30  -0.01534     0.00398    -0.01689    -0.03647     0.08317    -0.13281
        31   0.01115     0.03518    -0.05908     0.08047    -0.08664    -0.06002
        32   0.00785     0.14049    -0.12751    -0.03099     0.09766     0.11235
        33   0.00434     0.00760    -0.01482     0.13926    -0.27545     0.17891
        34  -0.03105    -0.09388     0.10994    -0.05201     0.01464     0.08836
        35  -0.13918    -0.41834     0.18834     0.01945    -0.06536    -0.10000
        36  -0.00905    -0.02020     0.01864     0.08232    -0.19568     0.18276
        37  -0.08804    -0.17081     0.14476    -0.08128     0.02992     0.26837
        38  -0.00438     0.05336    -0.19928     0.29826    -0.40501     0.07626
        39   0.14033     0.42239    -0.21149    -0.11140     0.28889    -0.08634
        40   0.12620     0.11214     0.21442    -0.16281     0.09897     0.09652
        41  -0.01608     0.00082     0.04083    -0.24151     0.40907    -0.02604
        42  -0.13123    -0.39550     0.21898    -0.11094     0.17165    -0.28785
        43  -0.01422    -0.04598    -0.01037    -0.02410     0.06924     0.27184
        44  -0.32963     0.20411     0.14941    -0.14487    -0.05923     0.16755
        45  -0.18805     0.12229     0.04471    -0.01751    -0.09262    -0.23961
        46   0.02231     0.15469     0.13854    -0.05227    -0.15220    -0.25333
        47  -0.01016    -0.21694    -0.21610     0.10860     0.15296     0.06534
        48  -0.11740     0.06772     0.02327    -0.00659    -0.05243    -0.21169
        49   0.03522    -0.05508    -0.08829    -0.04795     0.16031     0.07875
        50   0.28358     0.04970     0.39712    -0.08478    -0.16489    -0.18179
        51  -0.03100     0.01187     0.06628    -0.07631     0.04459     0.51342




    ROOT NO.   25          26          27          28          29          30

             1.54147     1.97876     2.33781     2.78192     3.23539     3.46834
  
         1   0.04061    -0.15223     0.01260    -0.17463     0.06693     0.07659
         2  -0.14063     0.48484    -0.02683    -0.05969     0.06668     0.25769
         3   0.02552    -0.10807     0.00703     0.13121     0.11619     0.16925
         4   0.04785    -0.21454     0.02199    -0.40496     0.22724     0.35504
         5   0.04282    -0.10599     0.00715    -0.05096     0.00881     0.00104
         6  -0.02963     0.05504    -0.00066    -0.17325    -0.02804    -0.02829
         7  -0.05339    -0.03114     0.02051     0.04334    -0.04320    -0.01893
         8  -0.00857    -0.10595     0.01546     0.01084     0.13072     0.00485
         9   0.00450     0.12416    -0.00816    -0.03688     0.03497    -0.02696
        10  -0.05207     0.15479    -0.00956    -0.03862    -0.11722    -0.16744
        11   0.04905    -0.06299     0.00054     0.00463    -0.03153    -0.07174
        12   0.02647    -0.12064     0.00560     0.48374     0.17784     0.29508
        13   0.02789    -0.07763     0.00047     0.31257     0.02563    -0.03833
        14  -0.07216     0.30945    -0.02019     0.02229     0.01752     0.30431
        15   0.01798    -0.09005     0.00920    -0.19513     0.04399     0.02297
        16  -0.01634     0.09931    -0.01097     0.31956     0.02441     0.08977
        17   0.03008    -0.06494    -0.00105     0.19534    -0.05630    -0.16270
        18  -0.02328     0.17852    -0.02015     0.19582    -0.23451    -0.34383
        19  -0.02550     0.12998    -0.01208    -0.04579    -0.20528    -0.30454
        20   0.03087    -0.08821     0.00463    -0.13831    -0.09847    -0.23849
        21  -0.02664     0.08414    -0.00133    -0.41936    -0.07487    -0.07471
        22   0.23611    -0.04829    -0.03594     0.00028    -0.09696     0.00801
        23  -0.00166     0.00516     0.35910     0.00392    -0.03035    -0.00473
        24  -0.17162     0.01746     0.02192     0.00055     0.21007    -0.18476
        25   0.18940     0.04945     0.40500     0.00368     0.15243    -0.08899
        26   0.10204    -0.07791     0.01135     0.00133    -0.24350     0.08979
        27   0.05694    -0.00017    -0.04421     0.00042    -0.05261     0.05430
        28   0.22760    -0.10863    -0.35406    -0.00237     0.31530    -0.22714
        29   0.05016     0.01527     0.28716     0.00248     0.12517    -0.06097
        30  -0.04047    -0.01900    -0.01788     0.00129    -0.08921     0.07686
        31   0.12640    -0.05225    -0.12587    -0.00080    -0.24547     0.12538
        32  -0.12256    -0.03205    -0.22714    -0.00146     0.05467    -0.02583
        33  -0.14690     0.02482     0.06016     0.00023     0.01417     0.00846
        34  -0.13238     0.01656     0.01750    -0.00075     0.01087    -0.00735
        35   0.09939     0.01720     0.08655     0.00017    -0.01650     0.00827
        36  -0.18263     0.04487     0.12263     0.00077     0.23228    -0.12730
        37  -0.29573    -0.00891    -0.26752    -0.00196    -0.08434     0.08371
        38   0.03013    -0.04668    -0.17413    -0.00150    -0.21856     0.14158
        39   0.10290    -0.06713    -0.27342    -0.00225    -0.15542     0.09593
        40  -0.15936     0.06433     0.28781     0.00213    -0.02168     0.03078
        41  -0.06706    -0.02774    -0.26707    -0.00206     0.27072    -0.17983
        42   0.27591     0.00264     0.13015     0.00042    -0.15367     0.08986
        43   0.18806     0.04012     0.00535    -0.00175    -0.02552     0.00651
        44   0.15781     0.08309    -0.01499    -0.00081    -0.02660     0.01830
        45  -0.14968    -0.14138     0.00510     0.00988    -0.02823    -0.02674
        46  -0.04435     0.32507    -0.09493    -0.01911     0.29034    -0.01595
        47  -0.07341    -0.37894     0.07851     0.02174     0.11514    -0.11190
        48  -0.19879    -0.15321     0.02116     0.00846    -0.04706     0.00769
        49  -0.30480    -0.18599     0.13972     0.00920    -0.27347     0.09290
        50  -0.10630     0.07638    -0.11906    -0.00795    -0.06761     0.03036
        51   0.45943     0.16800    -0.01716    -0.00595     0.03410    -0.00781




    ROOT NO.   31          32          33          34          35          36

             3.80231     4.54803     4.97776     5.93500     6.40220     6.99011
  
         1   0.00396     0.01606    -0.02320     0.03590    -0.21183     0.02467
         2   0.03063    -0.19176     0.42718     0.10037     0.26648    -0.05977
         3   0.01245    -0.01393     0.04219     0.06912    -0.27138     0.02783
         4   0.03066     0.05973    -0.09024    -0.12731     0.41275    -0.03202
         5   0.00025     0.03034    -0.05222    -0.01435    -0.00588     0.00320
         6   0.00090     0.03092    -0.04381    -0.02073     0.04091    -0.00249
         7   0.00318    -0.00412     0.03782     0.01522     0.02321    -0.00525
         8  -0.03056    -0.11381    -0.03338    -0.10359     0.04463     0.02691
         9  -0.01611    -0.08413     0.04381    -0.02737     0.04280     0.00245
        10  -0.01305    -0.00340     0.00469     0.03383    -0.12454     0.01093
        11  -0.00789     0.02290    -0.04796     0.00266    -0.07841     0.00976
        12   0.02877     0.06710    -0.09221    -0.11691     0.38489    -0.03072
        13  -0.01877    -0.17694     0.23343     0.08271    -0.10866    -0.00065
        14   0.07645     0.44556    -0.42682     0.02645    -0.30769     0.02960
        15  -0.00898    -0.15699     0.25065     0.13197    -0.23483     0.00535
        16   0.01554     0.02108     0.04376     0.09567    -0.26066     0.01469
        17  -0.02739    -0.12966     0.13025     0.01589     0.01661    -0.00376
        18  -0.02331     0.08743    -0.18225    -0.10523     0.20061    -0.00745
        19  -0.01922     0.09966    -0.20735    -0.13262     0.27038    -0.01245
        20  -0.03445    -0.12021     0.09091    -0.02336     0.11359    -0.00892
        21   0.00017     0.02554     0.00082     0.04987    -0.14825     0.00903
        22   0.13390     0.22767     0.23750    -0.19592    -0.00949     0.27485
        23   0.06833     0.01127    -0.01707     0.10206     0.02410    -0.07675
        24   0.78236    -0.06277    -0.02476    -0.03951    -0.02370    -0.13163
        25  -0.05181     0.06065     0.00616     0.07678     0.02470     0.03963
        26   0.08920     0.17588     0.19166    -0.12942     0.00099     0.18811
        27  -0.23420    -0.00962    -0.01808     0.02504     0.00710     0.02433
        28  -0.08899     0.17467    -0.05334     0.42020     0.09757    -0.16725
        29  -0.10573    -0.10693    -0.17074     0.20505     0.01898    -0.22053
        30  -0.20708    -0.00740     0.01535    -0.05069    -0.00535     0.08166
        31   0.10416    -0.00159     0.08369    -0.23758    -0.06772    -0.10365
        32  -0.02230    -0.00067    -0.01104     0.01986     0.00609     0.03538
        33  -0.13190    -0.04553    -0.09105     0.30917     0.12932     0.64583
        34   0.14612    -0.10267    -0.08710     0.10203     0.02744     0.08294
        35  -0.00759     0.00496     0.00589    -0.00250     0.00030    -0.00389
        36  -0.33148     0.36639     0.29056    -0.33320    -0.09771    -0.33939
        37  -0.15989    -0.13688    -0.11133     0.04742    -0.00882    -0.16315
        38  -0.05456    -0.16444    -0.10950     0.02143    -0.01739    -0.20004
        39   0.03955    -0.14369    -0.09590     0.02100    -0.01348    -0.14825
        40  -0.08124    -0.06738    -0.05893     0.03673    -0.00008    -0.06615
        41   0.05048     0.23232     0.15034    -0.01939     0.02276     0.20929
        42   0.07623    -0.13522    -0.08417     0.01205    -0.01201    -0.11078
        43   0.00799     0.02424     0.01356     0.02806     0.00848    -0.01291
        44   0.01355     0.02323     0.01729     0.00984     0.00774     0.00585
        45   0.00075     0.09565    -0.01023     0.17059     0.01620    -0.13878
        46  -0.08649    -0.35291    -0.15281    -0.39869    -0.12667     0.15505
        47  -0.06950    -0.19488    -0.20150    -0.29035    -0.14492     0.10802
        48   0.00835     0.00265     0.01325    -0.08526    -0.00867     0.11066
        49   0.07394     0.16212     0.12369     0.11756     0.05395    -0.03926
        50   0.03109     0.07590     0.05670     0.07936     0.03202    -0.04247
        51   0.00353    -0.01642    -0.01416    -0.00988    -0.00644     0.00233




    ROOT NO.   37          38          39          40          41          42

             8.24939     8.80589     9.06266     9.86439    12.25811    16.95242
  
         1   0.02707     0.00265     0.00117     0.69527     0.38059     0.00035
         2  -0.03329    -0.00024    -0.00139     0.08887     0.18687    -0.00333
         3   0.00448    -0.00162     0.00000    -0.44056     0.64421     0.00054
         4  -0.02157    -0.00227    -0.00077    -0.37229    -0.13094    -0.00001
         5   0.00147     0.00017     0.00011     0.01461     0.01590     0.00068
         6   0.00027     0.00007    -0.00004     0.02859    -0.01644     0.00018
         7   0.00882     0.00179     0.00033    -0.01357    -0.00550    -0.00024
         8   0.04794     0.00379     0.00168    -0.00087     0.04663     0.00487
         9   0.00018    -0.00025     0.00043     0.01088     0.00169     0.00064
        10   0.00020    -0.00045    -0.00007    -0.17755     0.03814    -0.00021
        11   0.00089    -0.00051    -0.00003    -0.08116     0.03519     0.00089
        12  -0.00298     0.00119     0.00013     0.32516    -0.12794    -0.00009
        13  -0.00391    -0.00005    -0.00033    -0.06314    -0.14606    -0.00172
        14   0.00968     0.00026     0.00020    -0.00478    -0.11394    -0.00135
        15  -0.00030     0.00065    -0.00026     0.03013    -0.24747    -0.00329
        16   0.00250    -0.00007    -0.00008    -0.08688    -0.34173     0.00297
        17  -0.00282    -0.00015    -0.00035    -0.05369    -0.11492     0.00125
        18  -0.00281    -0.00037     0.00008    -0.05292     0.05877    -0.00009
        19  -0.00232    -0.00019     0.00001     0.01237     0.20135    -0.00102
        20  -0.00213     0.00024    -0.00010     0.03661    -0.02129     0.00054
        21   0.00595     0.00068     0.00024     0.10319    -0.30539     0.00303
        22  -0.03531    -0.35016     0.02857     0.00216    -0.00119     0.48249
        23   0.05617     0.05968    -0.05297    -0.00169     0.00171    -0.40765
        24   0.01510    -0.02964    -0.00632    -0.00061    -0.00018     0.01575
        25   0.03079    -0.12480    -0.05181    -0.00014     0.00096    -0.22052
        26  -0.01064    -0.15858     0.00665     0.00017     0.00141    -0.26816
        27  -0.00650     0.03330     0.00524    -0.00041     0.00022     0.03486
        28   0.14786     0.02752     0.08632    -0.00326     0.00152    -0.18687
        29   0.03763     0.20594    -0.06962    -0.00053    -0.00134     0.64989
        30  -0.01657    -0.01428     0.00368     0.00007     0.00033    -0.05362
        31  -0.11918     0.78246     0.01612    -0.00053     0.00012    -0.03696
        32  -0.02927    -0.01688     0.81651    -0.00001    -0.00062     0.02285
        33  -0.08547     0.19555    -0.04138     0.00124    -0.00015     0.01853
        34   0.00028    -0.02442    -0.00436     0.00058    -0.00029    -0.00168
        35   0.00245     0.00109    -0.02742     0.00013     0.00053    -0.00208
        36   0.02011     0.00037     0.01507    -0.00074     0.00037     0.00029
        37   0.05666    -0.18737    -0.16592    -0.00006    -0.00002    -0.01130
        38   0.06286    -0.19554    -0.25593    -0.00015     0.00050    -0.01340
        39   0.04302    -0.12966    -0.13367    -0.00020    -0.00004    -0.00925
        40   0.02025    -0.07436     0.09982     0.00003     0.00010    -0.01945
        41  -0.03104     0.13944    -0.40680     0.00048     0.00038     0.01624
        42   0.01802    -0.06544     0.15512    -0.00034    -0.00001    -0.00860
        43  -0.03437    -0.00299    -0.00107     0.00079     0.00179    -0.00133
        44   0.08427     0.01099     0.00332    -0.00376     0.00105     0.00281
        45  -0.65131    -0.07527    -0.01943     0.01184     0.01113    -0.01485
        46  -0.08513    -0.04139    -0.00726     0.00818    -0.01278    -0.06820
        47  -0.17545    -0.04491    -0.01603     0.00564    -0.04661    -0.05325
        48   0.67898     0.08568     0.02207    -0.01611    -0.01682     0.03178
        49   0.00736    -0.00590    -0.00067    -0.00196     0.01395     0.06369
        50  -0.01872    -0.00478     0.00216     0.00011     0.00854     0.04919
        51  -0.02019    -0.00095    -0.00099     0.00079    -0.00228    -0.01581




    ROOT NO.   43          44          45

            20.09423    21.26822    23.72778
  
         1  -0.08292    -0.02500     0.00081
         2  -0.00997    -0.00298     0.00514
         3  -0.13248     0.02717     0.00246
         4  -0.01600    -0.00587     0.00067
         5  -0.01652    -0.00546    -0.00047
         6  -0.00782    -0.01575    -0.00010
         7   0.00167     0.00207     0.00050
         8  -0.06717     0.00329    -0.00560
         9  -0.01225    -0.00124    -0.00162
        10   0.00251     0.01094     0.00029
        11  -0.01074     0.00809    -0.00044
        12  -0.01712     0.01519     0.00022
        13   0.37168     0.62505    -0.00218
        14   0.28835     0.09339    -0.00300
        15   0.54679    -0.46399    -0.00710
        16  -0.46885    -0.38685     0.00288
        17  -0.16661    -0.13073     0.00097
        18   0.01557     0.03177     0.00011
        19   0.19382    -0.21992    -0.00243
        20  -0.04283     0.03613     0.00032
        21  -0.40086     0.40712     0.00433
        22   0.00692    -0.00133     0.37103
        23   0.00188    -0.00154     0.66300
        24  -0.00016     0.00050    -0.07811
        25  -0.00518     0.00115    -0.39819
        26  -0.00622     0.00137    -0.46949
        27   0.00068    -0.00001     0.05875
        28   0.00097    -0.00019     0.05415
        29   0.00572    -0.00011    -0.16199
        30  -0.00093     0.00009     0.01587
        31  -0.00064     0.00022    -0.01022
        32   0.00051    -0.00014    -0.01365
        33  -0.00000    -0.00050     0.00525
        34  -0.00001    -0.00018    -0.00215
        35  -0.00036     0.00002     0.00171
        36  -0.00017     0.00009     0.00296
        37   0.00001     0.00007    -0.01649
        38  -0.00023     0.00004    -0.00018
        39   0.00011    -0.00004    -0.00505
        40  -0.00008    -0.00004     0.00819
        41  -0.00017    -0.00010     0.00311
        42   0.00003    -0.00005    -0.00198
        43  -0.00085    -0.00014     0.00025
        44  -0.00061     0.00002    -0.00208
        45  -0.00726     0.00051     0.00597
        46   0.00753    -0.00067     0.02322
        47   0.03190    -0.00177     0.02380
        48   0.01328    -0.00087    -0.01004
        49  -0.01057     0.00069    -0.03032
        50  -0.00692     0.00048    -0.04115
        51   0.00261     0.00002     0.00807

          ZERO POINT ENERGY      61.120 KCAL/MOL

         NOTE: SYSTEM IS NOT A GROUND STATE, THEREFORE ZERO POINT
         ENERGY IS NOT MEANINGFULL. ZERO POINT ENERGY PRINTED
         DOES NOT INCLUDE THE  5 IMAGINARY FREQUENCIES


           FREQUENCIES, REDUCED MASSES AND VIBRATIONAL DIPOLES



   I         1         2         3         4         5         6
 FREQ(I)-1515.1721  -75.8272  -40.3238  -30.7685  -22.3401   20.3421

 MASS(I)   1.46692   4.39730   3.90020   2.51340   2.73774  13.29849

 DIPX(I)   2.04607   0.37306   0.24337  -0.37418   0.29046   0.09898
 DIPY(I)  10.31309  -0.23463   0.39996   0.06828  -0.61032  -0.36852
 DIPZ(I)   2.93331  -0.18822  -0.55959   0.34946  -0.21258  -0.16352

 DIPT(I)  10.91561   0.47922   0.72961   0.51652   0.70855   0.41514


   I         7         8         9        10        11        12
 FREQ(I)   55.9283   69.5305  119.4459  189.4107  296.1028  386.0897

 MASS(I)   2.48118   2.71788   1.84710   8.19967   0.64428   0.36668

 DIPX(I)  -0.21061   0.09409  -0.14621  -0.06065  -0.20572  -0.09550
 DIPY(I)  -0.61336  -0.15245  -0.06967  -0.29479   0.58976   0.36528
 DIPZ(I)   0.03954   0.24569  -0.33017  -0.81791   0.78396   0.48691

 DIPT(I)   0.64971   0.30407   0.36775   0.87152   1.00236   0.61615


   I        13        14        15        16        17        18
 FREQ(I)  395.5904  439.8983  459.5517  492.4866  576.4125  626.8180

 MASS(I)   0.94044   2.60540   0.86811   1.29887   1.27337   4.00814

 DIPX(I)  -0.01155   0.45366   1.05112   0.81075   0.10090   0.56980
 DIPY(I)   1.00635   1.94728   0.56914   1.12264   0.00553   1.07628
 DIPZ(I)   0.24351  -0.57185  -0.26627   0.30068  -0.11402   2.36042

 DIPT(I)   1.03545   2.07960   1.22462   1.41705   0.15236   2.65605


   I        19        20        21        22        23        24
 FREQ(I)  675.2611  696.1828  741.9544  777.8068  779.1225  919.6772

 MASS(I)   3.72145   1.06986   1.68980   3.89362   0.81894   1.57698

 DIPX(I)  -0.45779   0.32253  -2.37421  -0.67160  -0.20738   0.15437
 DIPY(I)   0.88639   0.16566  -1.30178   0.18549  -0.34362  -0.24200
 DIPZ(I)  -0.83643   0.05407   0.84576   0.41141   0.35224  -0.06345

 DIPT(I)   1.30187   0.36660   2.83669   0.80914   0.53400   0.29398


   I        25        26        27        28        29        30
 FREQ(I)  955.2132  999.7432 1018.4112 1054.4560 1093.7048 1141.7204

 MASS(I)   0.88303   3.11225   0.34753   0.45860   0.89869   0.71666

 DIPX(I)   0.21296  -1.51940   0.23435   0.14449   0.03311   0.12142
 DIPY(I)  -2.11438  -0.84268   1.02685   0.14960  -0.23465   2.60471
 DIPZ(I)   0.47905   0.15080   0.29692  -0.13563   0.01464  -0.42633

 DIPT(I)   2.17841   1.74397   1.09430   0.24831   0.23742   2.64216


   I        31        32        33        34        35        36
 FREQ(I) 1186.5674 1227.6629 1282.3011 1304.5182 1326.9859 1370.9826

 MASS(I)   3.13489   0.54027   0.46761   0.64062   0.63544   0.87072

 DIPX(I)  -0.48693   0.02521   0.36459   2.03518   0.10571  -0.13017
 DIPY(I)  -0.58436   0.41951  -0.68590   3.11729  -0.54517  -1.73902
 DIPZ(I)  -0.53169   0.29984   0.25311   0.24770   0.88802   1.10430

 DIPT(I)   0.92805   0.51626   0.81697   3.73106   1.04736   2.06413


   I        37        38        39        40        41        42
 FREQ(I) 1549.7550 1578.8056 1616.7246 1855.9969 2609.5813 2667.2411

[...]
 TRAVEL (Ang.)       0.5945         C  1 -- H  4          +9.9% ( 89.8%)      7.8%
 REDUCED MASS        0.6443         H 15 -- O 16          +8.7% ( 84.5%)     46.4%
 EFFECTIVE MASS     11.0594
 FORCE CONSTANT      0.0333

 VIBRATION         12   12A           ATOM PAIR      ENERGY CONTRIBUTION    RADIAL
 FREQUENCY           386.09         C  8 -- C 11         +11.2% ( 90.6%)      0.0%
 TRANSITION DIPOLE   0.6161         H  3 -- O 16         +10.7% ( 88.7%)      0.6%
 TRAVEL (Ang.)       0.6901         O 10 -- H 17          +8.5% ( 79.1%)      0.5%
 REDUCED MASS        0.3667         C  8 -- Cl12          +7.9% ( 76.3%)     24.1%
 EFFECTIVE MASS      9.0352
 FORCE CONSTANT      0.0322

 VIBRATION         13   13A           ATOM PAIR      ENERGY CONTRIBUTION    RADIAL
 FREQUENCY           395.59         C  8 -- C 11         +18.6% (130.7%)      0.0%
 TRANSITION DIPOLE   1.0355         C  8 -- Cl12         +13.4% (111.0%)     17.7%
 TRAVEL (Ang.)       0.4257         C  8 -- O 10         +13.2% (110.1%)      2.0%
 REDUCED MASS        0.9404         C 11 -- H 13          +7.8% ( 84.6%)     88.0%
 EFFECTIVE MASS     14.8851
 FORCE CONSTANT      0.0867

 VIBRATION         14   14A           ATOM PAIR      ENERGY CONTRIBUTION    RADIAL
 FREQUENCY           439.90         C  8 -- O  9         +14.9% ( 95.7%)      0.1%
 TRANSITION DIPOLE   2.0796         O 10 -- H 17         +13.9% ( 92.4%)     41.7%
 TRAVEL (Ang.)       0.2426         C  8 -- C 11         +12.4% ( 87.2%)      0.0%
 REDUCED MASS        2.6054         C 11 -- H 14          +8.8% ( 73.7%)      2.2%
 EFFECTIVE MASS     17.4811
 FORCE CONSTANT      0.2970

 VIBRATION         15   15A           ATOM PAIR      ENERGY CONTRIBUTION    RADIAL
 FREQUENCY           459.55         H 15 -- O 16         +16.6% ( 85.2%)      0.7%
 TRANSITION DIPOLE   1.2246         O 10 -- H 17         +12.3% ( 73.4%)      0.0%
 TRAVEL (Ang.)       0.4111         C  1 -- N  5         +11.7% ( 71.6%)      0.1%
 REDUCED MASS        0.8681         O 16 -- H 17         +11.0% ( 69.2%)      2.0%
 EFFECTIVE MASS      9.2268
 FORCE CONSTANT      0.1080

 VIBRATION         16   16A           ATOM PAIR      ENERGY CONTRIBUTION    RADIAL
 FREQUENCY           492.49         C  1 -- N  5         +21.8% (101.9%)      0.2%
 TRANSITION DIPOLE   1.4171         O  6 -- O  7         +12.4% ( 76.9%)      0.6%
 TRAVEL (Ang.)       0.3247         C  1 -- H  3         +11.5% ( 74.1%)     87.1%
 REDUCED MASS        1.2989         N  5 -- O  6         +10.6% ( 71.1%)      0.2%
 EFFECTIVE MASS     13.0672         C  1 -- H  4         +10.5% ( 70.8%)     16.0%
 FORCE CONSTANT      0.1856

 VIBRATION         17   17A           ATOM PAIR      ENERGY CONTRIBUTION    RADIAL
 FREQUENCY           576.41         H 15 -- O 16         +14.3% ( 71.7%)      0.2%
 TRANSITION DIPOLE   0.1524         C  1 -- H  3         +11.2% ( 63.5%)     30.7%
 TRAVEL (Ang.)       0.3031         N  5 -- O  7         +11.2% ( 63.4%)      0.0%
 REDUCED MASS        1.2734         N  5 -- O  6         +11.0% ( 63.0%)      0.0%
 EFFECTIVE MASS      9.4105         O 10 -- H 17         +10.1% ( 60.1%)     10.2%
 FORCE CONSTANT      0.2493

 VIBRATION         18   18A           ATOM PAIR      ENERGY CONTRIBUTION    RADIAL
 FREQUENCY           626.82         C  8 -- Cl12         +18.8% ( 80.8%)     66.5%
 TRANSITION DIPOLE   2.6561         C  8 -- O 10         +17.5% ( 78.1%)      0.0%
 TRAVEL (Ang.)       0.1638         C  8 -- O  9         +17.0% ( 77.0%)      0.3%
 REDUCED MASS        4.0081         C  8 -- C 11         +15.7% ( 73.9%)     10.0%
 EFFECTIVE MASS     15.9727         C 11 -- Cl12         +10.4% ( 60.3%)     99.5%
 FORCE CONSTANT      0.9278

 VIBRATION         19   19A           ATOM PAIR      ENERGY CONTRIBUTION    RADIAL
 FREQUENCY           675.26         O  6 -- O  7         +19.0% ( 82.5%)    100.0%
 TRANSITION DIPOLE   1.3019         N  5 -- O  6         +15.4% ( 74.2%)      0.2%
 TRAVEL (Ang.)       0.1638         N  5 -- O  7         +15.3% ( 73.9%)      0.2%
 REDUCED MASS        3.7215         C  1 -- N  5         +14.1% ( 71.2%)     10.5%
 EFFECTIVE MASS     15.2550         C  1 -- H  2         +11.3% ( 63.6%)     12.7%
 FORCE CONSTANT      0.9998         C  1 -- H  4         +11.3% ( 63.6%)     10.5%
                            C  1 -- H  3         +11.2% ( 63.3%)     43.1%

 VIBRATION         20   20A           ATOM PAIR      ENERGY CONTRIBUTION    RADIAL
 FREQUENCY           696.18         C  1 -- N  5         +16.8% ( 63.7%)      0.0%
 TRANSITION DIPOLE   0.3666         H 15 -- O 16         +13.0% ( 56.2%)      2.0%
 TRAVEL (Ang.)       0.3009         N  5 -- O  7         +11.6% ( 53.1%)      0.0%
 REDUCED MASS        1.0699         C  1 -- H  4         +11.3% ( 52.4%)     23.4%
 EFFECTIVE MASS      8.4312         N  5 -- O  6         +10.2% ( 49.8%)      0.0%
 FORCE CONSTANT      0.3055

 VIBRATION         21   21A           ATOM PAIR      ENERGY CONTRIBUTION    RADIAL
 FREQUENCY           741.95         C  8 -- O 10         +14.3% ( 55.9%)      0.4%
 TRANSITION DIPOLE   2.8367         O 10 -- H 17         +11.0% ( 48.9%)     99.9%
 TRAVEL (Ang.)       0.2319         C  1 -- H  3          +8.5% ( 43.2%)      0.0%
 REDUCED MASS        1.6898         C  8 -- C 11          +7.8% ( 41.3%)     31.0%
 EFFECTIVE MASS     10.9769
 FORCE CONSTANT      0.5481

 VIBRATION         22   22A           ATOM PAIR      ENERGY CONTRIBUTION    RADIAL
 FREQUENCY           777.81         C  8 -- C 11         +27.0% ( 90.0%)      0.2%
 TRANSITION DIPOLE   0.8091         C 11 -- Cl12         +22.2% ( 81.6%)     92.7%
 TRAVEL (Ang.)       0.1492         C 11 -- H 13         +14.3% ( 65.4%)     20.1%
 REDUCED MASS        3.8936         C 11 -- H 14         +13.9% ( 64.5%)     21.4%
 EFFECTIVE MASS     13.9957
 FORCE CONSTANT      1.3879

 VIBRATION         23   23A           ATOM PAIR      ENERGY CONTRIBUTION    RADIAL
 FREQUENCY           779.12         C  1 -- H  3         +12.3% ( 48.9%)      7.2%
 TRANSITION DIPOLE   0.5340         H  3 -- O 16         +11.3% ( 46.8%)      3.9%
 TRAVEL (Ang.)       0.3251         O 10 -- H 17          +8.8% ( 41.4%)     79.2%
 REDUCED MASS        0.8189         C  1 -- N  5          +7.5% ( 38.1%)      0.3%
 EFFECTIVE MASS      9.0350
 FORCE CONSTANT      0.2929

 VIBRATION         24   24A           ATOM PAIR      ENERGY CONTRIBUTION    RADIAL
 FREQUENCY           919.68         C 11 -- H 14         +32.4% ( 87.3%)     16.3%
 TRANSITION DIPOLE   0.2940         C 11 -- H 13         +31.6% ( 86.2%)     15.3%
 TRAVEL (Ang.)       0.2156         C  8 -- C 11         +15.8% ( 61.0%)      0.2%
 REDUCED MASS        1.5770         C 11 -- Cl12         +15.3% ( 60.0%)      0.0%
 EFFECTIVE MASS      5.9671
 FORCE CONSTANT      0.7859

 VIBRATION         25   25A           ATOM PAIR      ENERGY CONTRIBUTION    RADIAL
 FREQUENCY           955.21         C  1 -- H  3         +26.6% ( 61.4%)     33.7%
 TRANSITION DIPOLE   2.1784         H  3 -- O 16         +14.6% ( 45.5%)      4.4%
 TRAVEL (Ang.)       0.2827         C  1 -- N  5         +12.6% ( 42.3%)      5.1%
 REDUCED MASS        0.8830         C  1 -- H  2         +10.9% ( 39.3%)      0.8%
 EFFECTIVE MASS      4.7406
 FORCE CONSTANT      0.4747

 VIBRATION         26   26A           ATOM PAIR      ENERGY CONTRIBUTION    RADIAL
 FREQUENCY           999.74         C  8 -- C 11         +27.8% ( 85.8%)     99.3%
 TRANSITION DIPOLE   1.7440         C 11 -- Cl12         +13.5% ( 59.8%)     14.2%
 TRAVEL (Ang.)       0.1472         C 11 -- H 14         +12.6% ( 57.7%)     16.1%
 REDUCED MASS        3.1122         C 11 -- H 13         +11.9% ( 56.3%)     21.6%
 EFFECTIVE MASS     12.8120         C  8 -- O 10         +11.0% ( 54.1%)     23.4%
 FORCE CONSTANT      1.8327

 VIBRATION         27   27A           ATOM PAIR      ENERGY CONTRIBUTION    RADIAL
 FREQUENCY          1018.41         C  1 -- H  4         +36.8% ( 55.1%)      0.1%
 TRANSITION DIPOLE   1.0943         C  1 -- H  2         +20.1% ( 40.8%)      0.8%
 TRAVEL (Ang.)       0.4365         C  1 -- H  3         +10.2% ( 29.1%)      0.0%
 REDUCED MASS        0.3475         C  1 -- N  5          +7.3% ( 24.5%)     18.7%
 EFFECTIVE MASS      2.2725
 FORCE CONSTANT      0.2124

 VIBRATION         28   28A           ATOM PAIR      ENERGY CONTRIBUTION    RADIAL
 FREQUENCY          1054.46         C 11 -- H 13         +46.7% ( 73.2%)      1.1%
 TRANSITION DIPOLE   0.2483         C 11 -- H 14         +45.9% ( 72.6%)      0.5%
 TRAVEL (Ang.)       0.3734         C  8 -- O 10          +2.1% ( 15.6%)     80.2%
 REDUCED MASS        0.4586         O 10 -- H 17          +1.2% ( 11.9%)     26.4%
 EFFECTIVE MASS      1.5982
 FORCE CONSTANT      0.3004

 VIBRATION         29   29A           ATOM PAIR      ENERGY CONTRIBUTION    RADIAL
 FREQUENCY          1093.70         C  1 -- H  2         +34.6% ( 77.9%)     13.9%
 TRANSITION DIPOLE   0.2374         C  1 -- H  4         +33.5% ( 76.7%)     15.1%
 TRAVEL (Ang.)       0.2619         C  1 -- H  3         +10.5% ( 42.9%)      0.2%
 REDUCED MASS        0.8987         C  1 -- N  5         +10.4% ( 42.7%)      0.1%
 EFFECTIVE MASS      4.8237
 FORCE CONSTANT      0.6334

 VIBRATION         30   30A           ATOM PAIR      ENERGY CONTRIBUTION    RADIAL
 FREQUENCY          1141.72         O 16 -- H 17         +42.2% ( 92.3%)      3.9%
 TRANSITION DIPOLE   2.6422         O 10 -- H 17         +41.9% ( 91.9%)      5.5%
 TRAVEL (Ang.)       0.2871         C  8 -- O 10          +4.5% ( 30.2%)     79.4%
 REDUCED MASS        0.7167         C  8 -- O  9          +2.7% ( 23.3%)     49.1%
 EFFECTIVE MASS      2.5929
 FORCE CONSTANT      0.5504

 VIBRATION         31   31A           ATOM PAIR      ENERGY CONTRIBUTION    RADIAL
 FREQUENCY          1186.57         O  6 -- O  7         +22.5% ( 69.4%)    100.0%
 TRANSITION DIPOLE   0.9280         C  1 -- N  5         +19.2% ( 64.1%)     97.0%
 TRAVEL (Ang.)       0.1346         C  1 -- H  4         +14.4% ( 55.6%)     48.9%
 REDUCED MASS        3.1349         C  1 -- H  2         +14.0% ( 54.7%)     39.1%
 EFFECTIVE MASS     12.4794         C  1 -- H  3         +13.7% ( 54.2%)      3.1%
 FORCE CONSTANT      2.6005

 VIBRATION         32   32A           ATOM PAIR      ENERGY CONTRIBUTION    RADIAL
 FREQUENCY          1227.66         C 11 -- H 14         +42.1% ( 66.6%)      0.1%
 TRANSITION DIPOLE   0.5163         C 11 -- H 13         +42.0% ( 66.4%)      0.0%
 TRAVEL (Ang.)       0.3188         C  8 -- C 11          +6.9% ( 26.9%)     36.8%
 REDUCED MASS        0.5403         C 11 -- Cl12          +4.9% ( 22.7%)     58.8%
 EFFECTIVE MASS      2.2060
 FORCE CONSTANT      0.4798

 VIBRATION         33   33A           ATOM PAIR      ENERGY CONTRIBUTION    RADIAL
 FREQUENCY          1282.30         C 11 -- H 13         +36.0% ( 63.5%)      1.3%
 TRANSITION DIPOLE   0.8170         C 11 -- H 14         +28.6% ( 56.5%)      2.5%
 TRAVEL (Ang.)       0.3353         C  8 -- C 11          +9.4% ( 32.4%)     95.7%
 REDUCED MASS        0.4676         C 11 -- Cl12          +5.6% ( 25.0%)      2.2%
 EFFECTIVE MASS      2.9017
 FORCE CONSTANT      0.4530

 VIBRATION         34   34A           ATOM PAIR      ENERGY CONTRIBUTION    RADIAL
 FREQUENCY          1304.52         O 16 -- H 17         +25.0% ( 64.7%)     48.8%
 TRANSITION DIPOLE   3.7311         O 10 -- H 17         +19.5% ( 57.2%)     50.6%
 TRAVEL (Ang.)       0.2841         C  8 -- O 10         +17.8% ( 54.6%)     95.0%
 REDUCED MASS        0.6406         C  8 -- O  9          +8.0% ( 36.7%)      1.2%
 EFFECTIVE MASS      5.0684
 FORCE CONSTANT      0.6423

 VIBRATION         35   35A           ATOM PAIR      ENERGY CONTRIBUTION    RADIAL
 FREQUENCY          1326.99         C  1 -- H  4         +36.1% ( 65.9%)      1.8%
 TRANSITION DIPOLE   1.0474         C  1 -- H  2         +33.4% ( 63.4%)      2.2%
 TRAVEL (Ang.)       0.2828         C  1 -- N  5         +10.6% ( 35.7%)     99.7%
 REDUCED MASS        0.6354         C  1 -- H  3         +10.1% ( 34.9%)      3.9%
 EFFECTIVE MASS      3.1565
 FORCE CONSTANT      0.6593

 VIBRATION         36   36A           ATOM PAIR      ENERGY CONTRIBUTION    RADIAL
 FREQUENCY          1370.98         O 10 -- H 17         +24.4% ( 64.0%)     14.4%
 TRANSITION DIPOLE   2.0641         O 16 -- H 17         +24.3% ( 63.8%)      7.2%
 TRAVEL (Ang.)       0.2377         C  8 -- O 10         +19.0% ( 56.4%)     89.7%
 REDUCED MASS        0.8707         C  8 -- O  9          +9.3% ( 39.5%)     11.4%
 EFFECTIVE MASS      5.5568
 FORCE CONSTANT      0.9643

 VIBRATION         37   37A           ATOM PAIR      ENERGY CONTRIBUTION    RADIAL
 FREQUENCY          1549.75         N  5 -- O  6         +31.4% ( 78.6%)     63.3%
 TRANSITION DIPOLE   6.5410         N  5 -- O  7         +27.7% ( 73.8%)     47.2%
 TRAVEL (Ang.)       0.0875         C  1 -- N  5         +26.3% ( 71.9%)     98.2%
 REDUCED MASS        5.6772         O  6 -- O  7          +8.5% ( 40.9%)     99.8%
 EFFECTIVE MASS     13.6630
 FORCE CONSTANT      8.0335

 VIBRATION         38   38A           ATOM PAIR      ENERGY CONTRIBUTION    RADIAL
 FREQUENCY          1578.81         N  5 -- O  7         +37.0% ( 85.7%)     91.1%
 TRANSITION DIPOLE  10.3720         N  5 -- O  6         +33.2% ( 81.1%)     82.9%
 TRAVEL (Ang.)       0.0804         C  1 -- N  5         +22.0% ( 66.0%)      0.8%
 REDUCED MASS        6.6054         O  6 -- O  7          +6.2% ( 35.1%)      1.6%
 EFFECTIVE MASS     14.1103
 FORCE CONSTANT      9.7008

 VIBRATION         39   39A           ATOM PAIR      ENERGY CONTRIBUTION    RADIAL
 FREQUENCY          1616.72         C  8 -- O  9         +30.0% ( 77.7%)     94.0%
 TRANSITION DIPOLE   7.4194         O 16 -- H 17         +16.1% ( 57.0%)     90.4%
 TRAVEL (Ang.)       0.1286         O 10 -- H 17         +16.1% ( 56.9%)     53.2%
 REDUCED MASS        2.5238         C  8 -- C 11         +12.2% ( 49.5%)     68.0%
 EFFECTIVE MASS      9.2640         C  8 -- O 10         +12.1% ( 49.3%)      2.7%
 FORCE CONSTANT      3.8867         C  8 -- Cl12         +11.8% ( 48.6%)     44.3%

 VIBRATION         40   40A           ATOM PAIR      ENERGY CONTRIBUTION    RADIAL
 FREQUENCY          1856.00         C  8 -- O  9         +22.6% ( 65.2%)     89.4%
 TRANSITION DIPOLE   2.5776         C  8 -- O 10         +18.7% ( 59.3%)     85.9%
 TRAVEL (Ang.)       0.1195         O 10 -- H 17         +16.1% ( 54.9%)     72.0%
 REDUCED MASS        2.5438         O 16 -- H 17         +14.4% ( 52.0%)     98.4%
 EFFECTIVE MASS      8.0052         C  8 -- C 11         +13.5% ( 50.4%)      0.1%
 FORCE CONSTANT      5.1628         C  8 -- Cl12         +13.4% ( 50.2%)      1.5%

 VIBRATION         41   41A           ATOM PAIR      ENERGY CONTRIBUTION    RADIAL
 FREQUENCY          2609.58         C 11 -- H 13         +59.7% ( 80.2%)     98.7%
 TRANSITION DIPOLE   1.1551         C 11 -- H 14         +38.2% ( 64.1%)     96.7%
 TRAVEL (Ang.)       0.2211         C 11 -- Cl12          +1.0% ( 10.3%)      0.1%
 REDUCED MASS        0.5288         C  8 -- C 11          +1.0% ( 10.3%)      0.1%
 EFFECTIVE MASS      1.4821
 FORCE CONSTANT      2.1216

 VIBRATION         42   42A           ATOM PAIR      ENERGY CONTRIBUTION    RADIAL
 FREQUENCY          2667.24         C  1 -- H  2         +54.6% ( 76.7%)     98.8%
 TRANSITION DIPOLE   1.1655         C  1 -- H  4         +43.2% ( 68.2%)     97.8%
 TRAVEL (Ang.)       0.2216         C  1 -- H  3          +1.1% ( 10.9%)      0.0%
 REDUCED MASS        0.5147         C  1 -- N  5          +1.1% ( 10.8%)      0.0%
 EFFECTIVE MASS      1.5055
 FORCE CONSTANT      2.1572

 VIBRATION         43   43A           ATOM PAIR      ENERGY CONTRIBUTION    RADIAL
 FREQUENCY          2696.79         C 11 -- H 14         +61.6% ( 76.9%)     97.8%
 TRANSITION DIPOLE   0.9712         C 11 -- H 13         +37.4% ( 60.0%)     94.4%
 TRAVEL (Ang.)       0.2224         C 11 -- Cl12          +0.4% (  6.5%)     23.4%
 REDUCED MASS        0.5055         C  8 -- C 11          +0.4% (  6.5%)     24.7%
 EFFECTIVE MASS      1.2379
 FORCE CONSTANT      2.1660

 VIBRATION         44   44A           ATOM PAIR      ENERGY CONTRIBUTION    RADIAL
 FREQUENCY          2738.01         C  1 -- H  4         +54.1% ( 72.0%)     96.9%
 TRANSITION DIPOLE   0.7637         C  1 -- H  2         +42.1% ( 63.5%)     95.2%
 TRAVEL (Ang.)       0.2318         H 15 -- O 16          +2.8% ( 16.5%)     99.8%
 REDUCED MASS        0.4584         C  1 -- N  5          +0.4% (  6.4%)     55.9%
 EFFECTIVE MASS      1.2243
 FORCE CONSTANT      2.0249

 VIBRATION         45   45A           ATOM PAIR      ENERGY CONTRIBUTION    RADIAL
 FREQUENCY          2761.09         H 15 -- O 16         +95.7% ( 96.5%)     99.8%
 TRANSITION DIPOLE   1.6566         C  1 -- H  4          +1.8% ( 13.4%)     97.8%
 TRAVEL (Ang.)       0.1689         C  1 -- H  2          +0.9% (  9.5%)     92.3%
 REDUCED MASS        0.8560         O 16 -- H 17          +0.8% (  8.6%)     22.3%
 EFFECTIVE MASS      1.3093
 FORCE CONSTANT      3.8451

      SYMMETRY NUMBER FOR POINT-GROUP C1  =  1


          SYSTEM IS A GROUND STATE



 Title: ASE calculation


          MOLECULE IS NOT LINEAR

          THERE ARE 45 GENUINE VIBRATIONS IN THIS SYSTEM
          THIS THERMODYNAMICS CALCULATION IS LIMITED TO
          MOLECULES WHICH HAVE NO INTERNAL ROTATIONS




                    CALCULATED THERMODYNAMIC PROPERTIES
                                          *
   TEMP. (K)   PARTITION FUNCTION   H.O.F.    ENTHALPY  HEAT CAPACITY ENTROPY
                                   KCAL/MOL   CAL/MOLE    CAL/K/MOL  CAL/K/MOL


 298.00  VIB.     0.2815D+07                  6378.6118    35.8757    50.9155
         ROT.     0.2081D+07                   888.2803     2.9808    31.8912
         INT.     0.5857D+13                  7266.8921    38.8565    82.8067
         TRA.     0.2210D+28                  1480.4672     4.9680    41.3591
         TOT.                     -294.861    8747.3593    43.8245   124.1658

   *: NOTE: HEATS OF FORMATION ARE RELATIVE TO THE
            ELEMENTS IN THEIR STANDARD STATE AT 298K
              (=  Standard Enthalpy of Formation).

            Hvib:  Zero-point energy is not included.
                   frequencies of less than zero cm-1 are not included.
            Hrot = (3/2)RT
            Htra = (3/2)RT + pV = (5/2)RT

            Heat capacity is Cp, not Cv

          For more information, see: HTTP://OpenMOPAC.net/Manual/thermochemistry.html


           FORCE CONSTANT IN CARTESIAN COORDINATES (Millidynes/A)

    ATOM   CHEMICAL       X               Y               Z
   NUMBER   SYMBOL  FORCE CONSTANT  FORCE CONSTANT  FORCE CONSTANT

      1       C        7.261126        2.779067        8.199021
      2       H        4.061060        0.360853        0.698812
      3       H        0.427731       -1.780594        0.486530
      4       H        1.112164        0.537628        3.567895
      5       N       12.194420        5.015027       12.309794
      6       O        9.961511        1.571298        1.610041
      7       O        3.747036        0.650668        8.850003
      8       C        9.879440       13.789539        2.990251
      9       O        5.646544        7.804392        0.406604
     10       O        3.445176        9.376680        0.482934
     11       C        6.399963        6.319039        4.419717
     12      Cl        0.561907        0.346812        3.404358
     13       H        1.737802        2.171743        1.351425
     14       H        0.939267        3.198130        1.167024
     15       H        0.260940        0.458352        4.182534
     16       O        2.793346        1.245757        4.135941
     17       H        1.152753        0.931243        0.870305

 **********************
 *                    *
 * JOB ENDED NORMALLY *
 *                    *
 **********************



 TOTAL JOB TIME:             6.34 SECONDS

 == MOPAC DONE ==
