
                                        *****************
                                        * O   R   C   A *
                                        *****************

                                            #,                                       
                                            ###                                      
                                            ####                                     
                                            #####                                    
                                            ######                                   
                                           ########,                                 
                                     ,,################,,,,,                         
                               ,,#################################,,                 
                          ,,##########################################,,             
                       ,#########################################, ''#####,          
                    ,#############################################,,   '####,        
                  ,##################################################,,,,####,       
                ,###########''''           ''''###############################       
              ,#####''   ,,,,##########,,,,          '''####'''          '####       
            ,##' ,,,,###########################,,,                        '##       
           ' ,,###''''                  '''############,,,                           
         ,,##''                                '''############,,,,        ,,,,,,###''
      ,#''                                            '''#######################'''  
     '                                                          ''''####''''         
             ,#######,   #######,   ,#######,      ##                                
            ,#'     '#,  ##    ##  ,#'     '#,    #''#        ######   ,####,        
            ##       ##  ##   ,#'  ##            #'  '#       #        #'  '#        
            ##       ##  #######   ##           ,######,      #####,   #    #        
            '#,     ,#'  ##    ##  '#,     ,#' ,#      #,         ##   #,  ,#        
             '#######'   ##     ##  '#######'  #'      '#     #####' # '####'        



                  #######################################################
                  #                        -***-                        #
                  #          Department of theory and spectroscopy      #
                  #    Directorship and core code : Frank Neese         #
                  #        Max Planck Institute fuer Kohlenforschung    #
                  #                Kaiser Wilhelm Platz 1               #
                  #                 D-45470 Muelheim/Ruhr               #
                  #                      Germany                        #
                  #                                                     #
                  #                  All rights reserved                #
                  #                        -***-                        #
                  #######################################################


                         Program Version 5.0.0 -  RELEASE  -
                                (SVN: $Rev: 19529$)
                ($Date: 2021-06-28 11:36:33 +0200 (Mo, 28 Jun 2021) $)


 With contributions from (in alphabetic order):
   Daniel Aravena         : Magnetic Suceptibility
   Michael Atanasov       : Ab Initio Ligand Field Theory (pilot matlab implementation)
   Alexander A. Auer      : GIAO ZORA, VPT2 properties, NMR spectrum
   Ute Becker             : Parallelization
   Giovanni Bistoni       : ED, misc. LED, open-shell LED, HFLD
   Martin Brehm           : Molecular dynamics
   Dmytro Bykov           : SCF Hessian
   Vijay G. Chilkuri      : MRCI spin determinant printing, contributions to CSF-ICE
   Dipayan Datta          : RHF DLPNO-CCSD density
   Achintya Kumar Dutta   : EOM-CC, STEOM-CC
   Dmitry Ganyushin       : Spin-Orbit,Spin-Spin,Magnetic field MRCI
   Miquel Garcia          : C-PCM Hessian, Gaussian charge scheme
   Yang Guo               : DLPNO-NEVPT2, F12-NEVPT2, CIM, IAO-localization
   Andreas Hansen         : Spin unrestricted coupled pair/coupled cluster methods
   Benjamin Helmich-Paris : MC-RPA, TRAH-SCF, COSX integrals
   Lee Huntington         : MR-EOM, pCC
   Robert Izsak           : Overlap fitted RIJCOSX, COSX-SCS-MP3, EOM
   Marcus Kettner         : VPT2
   Christian Kollmar      : KDIIS, OOCD, Brueckner-CCSD(T), CCSD density, CASPT2, CASPT2-K
   Simone Kossmann        : Meta GGA functionals, TD-DFT gradient, OOMP2, MP2 Hessian
   Martin Krupicka        : Initial AUTO-CI
   Lucas Lang             : DCDCAS
   Marvin Lechner         : AUTO-CI (C++ implementation), FIC-MRCC
   Dagmar Lenk            : GEPOL surface, SMD
   Dimitrios Liakos       : Extrapolation schemes; Compound Job, initial MDCI parallelization
   Dimitrios Manganas     : Further ROCIS development; embedding schemes
   Dimitrios Pantazis     : SARC Basis sets
   Anastasios Papadopoulos: AUTO-CI, single reference methods and gradients
   Taras Petrenko         : DFT Hessian,TD-DFT gradient, ASA, ECA, R-Raman, ABS, FL, XAS/XES, NRVS
   Peter Pinski           : DLPNO-MP2, DLPNO-MP2 Gradient
   Christoph Reimann      : Effective Core Potentials
   Marius Retegan         : Local ZFS, SOC
   Christoph Riplinger    : Optimizer, TS searches, QM/MM, DLPNO-CCSD(T), (RO)-DLPNO pert. Triples
   Tobias Risthaus        : Range-separated hybrids, TD-DFT gradient, RPA, STAB
   Michael Roemelt        : Original ROCIS implementation
   Masaaki Saitow         : Open-shell DLPNO-CCSD energy and density
   Barbara Sandhoefer     : DKH picture change effects
   Avijit Sen             : IP-ROCIS
   Kantharuban Sivalingam : CASSCF convergence, NEVPT2, FIC-MRCI
   Bernardo de Souza      : ESD, SOC TD-DFT
   Georgi Stoychev        : AutoAux, RI-MP2 NMR
   Willem Van den Heuvel  : Paramagnetic NMR
   Boris Wezisla          : Elementary symmetry handling
   Frank Wennmohs         : Technical directorship


 We gratefully acknowledge several colleagues who have allowed us to
 interface, adapt or use parts of their codes:
   Stefan Grimme, W. Hujo, H. Kruse, P. Pracht,  : VdW corrections, initial TS optimization,
                  C. Bannwarth, S. Ehlert          DFT functionals, gCP, sTDA/sTD-DF
   Ed Valeev, F. Pavosevic, A. Kumar             : LibInt (2-el integral package), F12 methods
   Garnet Chan, S. Sharma, J. Yang, R. Olivares  : DMRG
   Ulf Ekstrom                                   : XCFun DFT Library
   Mihaly Kallay                                 : mrcc  (arbitrary order and MRCC methods)
   Jiri Pittner, Ondrej Demel                    : Mk-CCSD
   Frank Weinhold                                : gennbo (NPA and NBO analysis)
   Christopher J. Cramer and Donald G. Truhlar   : smd solvation model
   Lars Goerigk                                  : TD-DFT with DH, B97 family of functionals
   V. Asgeirsson, H. Jonsson                     : NEB implementation
   FAccTs GmbH                                   : IRC, NEB, NEB-TS, DLPNO-Multilevel, CI-OPT
                                                   MM, QMMM, 2- and 3-layer-ONIOM, Crystal-QMMM,
                                                   LR-CPCM, SF, NACMEs, symmetry and pop. for TD-DFT,
                                                   nearIR, NL-DFT gradient (VV10), updates on ESD,
                                                   ML-optimized integration grids
   S Lehtola, MJT Oliveira, MAL Marques          : LibXC Library
   Liviu Ungur et al                             : ANISO software


 Your calculation uses the libint2 library for the computation of 2-el integrals
 For citations please refer to: http://libint.valeyev.net

 Your ORCA version has been built with support for libXC version: 5.1.0
 For citations please refer to: https://tddft.org/programs/libxc/

 This ORCA versions uses:
   CBLAS   interface :  Fast vector & matrix operations
   LAPACKE interface :  Fast linear algebra routines
   SCALAPACK package :  Parallel linear algebra routines
   Shared memory     :  Shared parallel matrices
   BLAS/LAPACK       :  OpenBLAS 0.3.15  USE64BITINT DYNAMIC_ARCH NO_AFFINITY Sandybridge SINGLE_THREADED
        Core in use  :  Sandybridge
   Copyright (c) 2011-2014, The OpenBLAS Project


Your calculation utilizes the atom-pairwise dispersion correction
with the Becke-Johnson damping scheme (D3BJ)
Cite in your paper:
S.Grimme, S.Ehrlich, L.Goerigk, J Comput Chem, (2011), 32, 1456–1465 
S.Grimme, J.Antony, S.Ehrlich and H.Krieg, J.Chem.Phys., 132, (2010), 154104 
   

================================================================================

----- Orbital basis set information -----
Your calculation utilizes the basis: def2-TZVP
   F. Weigend and R. Ahlrichs, Phys. Chem. Chem. Phys. 7, 3297 (2005).

----- AuxJ basis set information -----
Your calculation utilizes the auxiliary basis: def2/J
   F. Weigend, Phys. Chem. Chem. Phys. 8, 1057 (2006).

================================================================================
                                        WARNINGS
                       Please study these warnings very carefully!
================================================================================


WARNING: Geometry Optimization
  ===> : Switching off AutoStart
         For restart on a previous wavefunction, please use MOREAD

INFO   : the flag for use of the SHARK integral package has been found!

================================================================================
                                       INPUT FILE
================================================================================
NAME = /home/rudenko/mopac_kie/for_orca/CH3NO2_H2O_near/orca/orca_start/start.inp
|  1> !  opt B3LYP def2-TZVP CPCM D3 
|  2> %pal nprocs 18 end
|  3> %cpcm epsilon 78.4 end 
|  4> *xyz 0 1 
|  5> C   0.56394 -0.78932 0.40612
|  6> H   0.87302 -1.453 -0.4274
|  7> H   1.04773 0.1988 0.23749
|  8> H   0.97752 -1.20221 1.34992
|  9> N   -0.88335 -0.6387 0.46568
| 10> O   -1.41996 -0.44427 1.54743
| 11> O   -1.53217 -0.70145 -0.5692
| 12> H   3.96644 -1.74909 0.21145
| 13> O   3.25667 -1.26342 0.64883
| 14> H   3.45185 -0.34098 0.44297
| 15> *
| 16> 
| 17>                          ****END OF INPUT****
================================================================================

                       *****************************
                       * Geometry Optimization Run *
                       *****************************

Geometry optimization settings:
Update method            Update   .... BFGS
Choice of coordinates    CoordSys .... Z-matrix Internals
Initial Hessian          InHess   .... Almoef's Model

Convergence Tolerances:
Energy Change            TolE     ....  5.0000e-06 Eh
Max. Gradient            TolMAXG  ....  3.0000e-04 Eh/bohr
RMS Gradient             TolRMSG  ....  1.0000e-04 Eh/bohr
Max. Displacement        TolMAXD  ....  4.0000e-03 bohr
RMS Displacement         TolRMSD  ....  2.0000e-03 bohr
Strict Convergence                ....  False
------------------------------------------------------------------------------
                        ORCA OPTIMIZATION COORDINATE SETUP
------------------------------------------------------------------------------

The optimization will be done in new redundant internal coordinates
Making redundant internal coordinates   ...  (new redundants) done
Evaluating the initial hessian          ...  (Almloef) done
Evaluating the coordinates              ...  done
Calculating the B-matrix                .... done
Calculating the G-matrix                .... done
Diagonalizing the G-matrix              .... done
The first mode is                       ....   24
The number of degrees of freedom        ....   24

    -----------------------------------------------------------------
                    Redundant Internal Coordinates


    -----------------------------------------------------------------
         Definition                    Initial Value    Approx d2E/dq
    -----------------------------------------------------------------
      1. B(H   1,C   0)                  1.1094         0.335336   
      2. B(H   2,C   0)                  1.1130         0.330869   
      3. B(H   3,C   0)                  1.1101         0.334489   
      4. B(N   4,C   0)                  1.4563         0.438590   
      5. B(O   5,N   4)                  1.2231         0.925369   
      6. B(O   6,N   4)                  1.2231         0.925445   
      7. B(O   8,H   7)                  0.9649         0.510760   
      8. B(O   8,H   2)                  2.6808         0.000934   
      9. B(O   8,H   1)                  2.6222         0.001159   
     10. B(O   8,C   0)                  2.7449         0.003857   
     11. B(O   8,H   3)                  2.3853         0.002767   
     12. B(H   9,H   2)                  2.4725         0.000429   
     13. B(H   9,H   1)                  2.9402         0.000077   
     14. B(H   9,C   0)                  2.9227         0.000429   
     15. B(H   9,H   3)                  2.7725         0.000143   
     16. B(H   9,O   8)                  0.9651         0.510353   
     17. A(H   3,C   0,O   8)           59.6749         0.170522   
     18. A(H   2,C   0,O   8)           74.9500         0.170321   
     19. A(N   4,C   0,O   8)          171.5542         0.188394   
     20. A(H   1,C   0,H   2)          107.2275         0.283841   
     21. A(H   3,C   0,N   4)          111.9596         0.327006   
     22. A(H   2,C   0,H   3)          107.2817         0.283730   
     23. A(H   1,C   0,H   3)          108.2085         0.284322   
     24. A(H   1,C   0,N   4)          111.6832         0.327142   
     25. A(H   2,C   0,N   4)          110.2635         0.326420   
     26. A(H   1,C   0,O   8)           71.9287         0.170569   
     27. A(C   0,N   4,O   5)          119.2503         0.429725   
     28. A(O   5,N   4,O   6)          121.5858         0.489077   
     29. A(C   0,N   4,O   6)          119.1623         0.429732   
     30. A(C   0,O   8,H   7)          140.2192         0.177673   
     31. A(H   7,O   8,H   9)          103.6301         0.319919   
     32. A(C   0,O   8,H   9)           90.8279         0.177657   
     33. D(O   5,N   4,C   0,H   3)     28.3564         0.018697   
     34. D(O   6,N   4,C   0,H   1)    -30.5704         0.018697   
     35. D(O   5,N   4,C   0,H   1)    149.8829         0.018697   
     36. D(O   6,N   4,C   0,H   3)   -152.0969         0.018697   
     37. D(O   6,N   4,C   0,H   2)     88.5428         0.018697   
     38. D(O   6,N   4,C   0,O   8)   -144.4577         0.018697   
     39. D(O   5,N   4,C   0,O   8)     35.9956         0.018697   
     40. D(O   5,N   4,C   0,H   2)    -91.0039         0.018697   
     41. D(H   9,O   8,C   0,H   2)     -1.9926         0.001502   
     42. D(H   9,O   8,C   0,H   1)    112.2334         0.001502   
     43. D(H   7,O   8,C   0,N   4)    116.2010         0.001502   
     44. D(H   7,O   8,C   0,H   3)    124.4129         0.001502   
     45. D(H   7,O   8,C   0,H   2)   -114.6788         0.001502   
     46. D(H   9,O   8,C   0,H   3)   -122.9009         0.001502   
     47. D(H   7,O   8,C   0,H   1)     -0.4528         0.001502   
     48. D(H   9,O   8,C   0,N   4)   -131.1127         0.001502   
    -----------------------------------------------------------------

Number of atoms                         .... 10
Number of degrees of freedom            .... 48

         *************************************************************
         *                GEOMETRY OPTIMIZATION CYCLE   1            *
         *************************************************************
---------------------------------
CARTESIAN COORDINATES (ANGSTROEM)
---------------------------------
  C      0.563940   -0.789320    0.406120
  H      0.873020   -1.453000   -0.427400
  H      1.047730    0.198800    0.237490
  H      0.977520   -1.202210    1.349920
  N     -0.883350   -0.638700    0.465680
  O     -1.419960   -0.444270    1.547430
  O     -1.532170   -0.701450   -0.569200
  H      3.966440   -1.749090    0.211450
  O      3.256670   -1.263420    0.648830
  H      3.451850   -0.340980    0.442970

----------------------------
CARTESIAN COORDINATES (A.U.)
----------------------------
  NO LB      ZA    FRAG     MASS         X           Y           Z
   0 C     6.0000    0    12.011    1.065692   -1.491599    0.767456
   1 H     1.0000    0     1.008    1.649769   -2.745772   -0.807669
   2 H     1.0000    0     1.008    1.979923    0.375678    0.448791
   3 H     1.0000    0     1.008    1.847245   -2.271848    2.550979
   4 N     7.0000    0    14.007   -1.669290   -1.206968    0.880008
   5 O     8.0000    0    15.999   -2.683336   -0.839549    2.924219
   6 O     8.0000    0    15.999   -2.895382   -1.325548   -1.075632
   7 H     1.0000    0     1.008    7.495485   -3.305301    0.399583
   8 O     8.0000    0    15.999    6.154214   -2.387518    1.226111
   9 H     1.0000    0     1.008    6.523051   -0.644359    0.837092

--------------------------------
INTERNAL COORDINATES (ANGSTROEM)
--------------------------------
 C      0   0   0     0.000000000000     0.00000000     0.00000000
 H      1   0   0     1.109394960868     0.00000000     0.00000000
 H      1   2   0     1.113045360891   107.22753537     0.00000000
 H      1   2   3     1.110083334034   108.20847612   244.56932843
 N      1   2   3     1.456324868324   111.68316393   120.89765140
 O      5   1   2     1.223084780177   119.25029189   149.88286827
 O      5   1   2     1.223062373430   119.16234047   329.42958021
 H      2   1   3     3.172545650893   100.14807501    67.31268194
 O      8   2   1     0.964857536738    47.70327733   359.67267694
 H      9   8   2     0.965074673587   103.63005043   251.87483171

---------------------------
INTERNAL COORDINATES (A.U.)
---------------------------
 C      0   0   0     0.000000000000     0.00000000     0.00000000
 H      1   0   0     2.096452650393     0.00000000     0.00000000
 H      1   2   0     2.103350906715   107.22753537     0.00000000
 H      1   2   3     2.097753487154   108.20847612   244.56932843
 N      1   2   3     2.752055163152   111.68316393   120.89765140
 O      5   1   2     2.311295273101   119.25029189   149.88286827
 O      5   1   2     2.311252930486   119.16234047   329.42958021
 H      2   1   3     5.995242427551   100.14807501    67.31268194
 O      8   2   1     1.823316502685    47.70327733   359.67267694
 H      9   8   2     1.823726831864   103.63005043   251.87483171

---------------------
BASIS SET INFORMATION
---------------------
There are 4 groups of distinct atoms

 Group   1 Type C   : 11s6p2d1f contracted to 5s3p2d1f pattern {62111/411/11/1}
 Group   2 Type H   : 5s1p contracted to 3s1p pattern {311/1}
 Group   3 Type N   : 11s6p2d1f contracted to 5s3p2d1f pattern {62111/411/11/1}
 Group   4 Type O   : 11s6p2d1f contracted to 5s3p2d1f pattern {62111/411/11/1}

Atom   0C    basis set group =>   1
Atom   1H    basis set group =>   2
Atom   2H    basis set group =>   2
Atom   3H    basis set group =>   2
Atom   4N    basis set group =>   3
Atom   5O    basis set group =>   4
Atom   6O    basis set group =>   4
Atom   7H    basis set group =>   2
Atom   8O    basis set group =>   4
Atom   9H    basis set group =>   2
---------------------------------
AUXILIARY/J BASIS SET INFORMATION
---------------------------------
There are 4 groups of distinct atoms

 Group   1 Type C   : 12s5p4d2f1g contracted to 6s4p3d1f1g pattern {711111/2111/211/2/1}
 Group   2 Type H   : 5s2p1d contracted to 3s1p1d pattern {311/2/1}
 Group   3 Type N   : 12s5p4d2f1g contracted to 6s4p3d1f1g pattern {711111/2111/211/2/1}
 Group   4 Type O   : 12s5p4d2f1g contracted to 6s4p3d1f1g pattern {711111/2111/211/2/1}

Atom   0C    basis set group =>   1
Atom   1H    basis set group =>   2
Atom   2H    basis set group =>   2
Atom   3H    basis set group =>   2
Atom   4N    basis set group =>   3
Atom   5O    basis set group =>   4
Atom   6O    basis set group =>   4
Atom   7H    basis set group =>   2
Atom   8O    basis set group =>   4
Atom   9H    basis set group =>   2


           ************************************************************
           *        Program running with 18 parallel MPI-processes    *
           *              working on a common directory               *
           ************************************************************
------------------------------------------------------------------------------
                           ORCA GTO INTEGRAL CALCULATION
                           -- RI-GTO INTEGRALS CHOSEN --
------------------------------------------------------------------------------
------------------------------------------------------------------------------
                   ___                                                        
                  /   \      - P O W E R E D   B Y -                         
                 /     \                                                     
                 |  |  |   _    _      __       _____    __    __             
                 |  |  |  | |  | |    /  \     |  _  \  |  |  /  |          
                  \  \/   | |  | |   /    \    | | | |  |  | /  /          
                 / \  \   | |__| |  /  /\  \   | |_| |  |  |/  /          
                |  |  |   |  __  | /  /__\  \  |    /   |      \           
                |  |  |   | |  | | |   __   |  |    \   |  |\   \          
                \     /   | |  | | |  |  |  |  | |\  \  |  | \   \       
                 \___/    |_|  |_| |__|  |__|  |_| \__\ |__|  \__/        
                                                                              
                      - O R C A' S   B I G   F R I E N D -                    
                                      &                                       
                       - I N T E G R A L  F E E D E R -                       
                                                                              
 v1 FN, 2020, v2 2021                                                         
------------------------------------------------------------------------------


Reading SHARK input file /home/rudenko/mopac_kie/for_orca/CH3NO2_H2O_near/orca/orca_start/start.SHARKINP.tmp ... ok
----------------------
SHARK INTEGRAL PACKAGE
----------------------

Number of atoms                             ...     10
Number of basis functions                   ...    185
Number of shells                            ...     75
Maximum angular momentum                    ...      3
Integral batch strategy                     ... SHARK/LIBINT Hybrid
RI-J (if used) integral strategy            ... SPLIT-RIJ (Revised 2003 algorithm where possible)
Printlevel                                  ...      1
Contraction scheme used                     ... SEGMENTED contraction
Coulomb Range Separation                    ... NOT USED
Exchange Range Separation                   ... NOT USED
Finite Nucleus Model                        ... NOT USED
Auxiliary Coulomb fitting basis             ... AVAILABLE
   # of basis functions in Aux-J            ...    300
   # of shells in Aux-J                     ...    100
   Maximum angular momentum in Aux-J        ...      4
Auxiliary J/K fitting basis                 ... NOT available
Auxiliary Correlation fitting basis         ... NOT available
Auxiliary 'external' fitting basis          ... NOT available
Integral threshold                          ...     2.500000e-11
Primitive cut-off                           ...     2.500000e-12
Primitive pair pre-selection threshold      ...     2.500000e-12

Calculating pre-screening integrals         ... done (  0.1 sec) Dimension = 75
Organizing shell pair data                  ... done (  0.0 sec)
Shell pair information
Total number of shell pairs                 ...      2850
Shell pairs after pre-screening             ...      2517
Total number of primitive shell pairs       ...      8640
Primitive shell pairs kept                  ...      5932
          la=0 lb=0:    712 shell pairs
          la=1 lb=0:    729 shell pairs
          la=1 lb=1:    195 shell pairs
          la=2 lb=0:    346 shell pairs
          la=2 lb=1:    177 shell pairs
          la=2 lb=2:     48 shell pairs
          la=3 lb=0:    171 shell pairs
          la=3 lb=1:     87 shell pairs
          la=3 lb=2:     40 shell pairs
          la=3 lb=3:     12 shell pairs

Calculating one electron integrals          ... done (  0.0 sec)
Calculating RI/J V-Matrix + Cholesky decomp.... done (  0.0 sec)
Calculating Nuclear repulsion               ... done (  0.0 sec) ENN=    177.233613300087 Eh

SHARK setup successfully completed in   0.2 seconds

Maximum memory used throughout the entire GTOINT-calculation: 13.8 MB


           ************************************************************
           *        Program running with 18 parallel MPI-processes    *
           *              working on a common directory               *
           ************************************************************
-------------------------------------------------------------------------------
                                 ORCA SCF
-------------------------------------------------------------------------------

------------
SCF SETTINGS
------------
Hamiltonian:
 Density Functional     Method          .... DFT(GTOs)
 Exchange Functional    Exchange        .... B88
   X-Alpha parameter    XAlpha          ....  0.666667
   Becke's b parameter  XBeta           ....  0.004200
 Correlation Functional Correlation     .... LYP
 LDA part of GGA corr.  LDAOpt          .... VWN-5
 Gradients option       PostSCFGGA      .... off
 Hybrid DFT is turned on
   Fraction HF Exchange ScalHFX         ....  0.200000
   Scaling of DF-GGA-X  ScalDFX         ....  0.720000
   Scaling of DF-GGA-C  ScalDFC         ....  0.810000
   Scaling of DF-LDA-C  ScalLDAC        ....  1.000000
   Perturbative correction              ....  0.000000
   Density functional embedding theory  .... OFF
   NL short-range parameter             ....  4.800000
 RI-approximation to the Coulomb term is turned on
   Number of AuxJ basis functions       .... 300
   RIJ-COSX (HFX calculated with COS-X)).... on


General Settings:
 Integral files         IntName         .... /home/rudenko/mopac_kie/for_orca/CH3NO2_H2O_near/orca/orca_start/start
 Hartree-Fock type      HFTyp           .... RHF
 Total Charge           Charge          ....    0
 Multiplicity           Mult            ....    1
 Number of Electrons    NEL             ....   42
 Basis Dimension        Dim             ....  185
 Nuclear Repulsion      ENuc            ....    177.2336133001 Eh

Convergence Acceleration:
 DIIS                   CNVDIIS         .... on
   Start iteration      DIISMaxIt       ....    12
   Startup error        DIISStart       ....  0.200000
   # of expansion vecs  DIISMaxEq       ....     5
   Bias factor          DIISBfac        ....   1.050
   Max. coefficient     DIISMaxC        ....  10.000
 Trust-Rad. Augm. Hess. CNVTRAH         .... auto
   Auto Start mean grad. ratio tolernc. ....  1.125000
   Auto Start start iteration           ....    20
   Auto Start num. interpolation iter.  ....    10
   Max. Number of Micro iterations      ....    16
   Max. Number of Macro iterations      .... Maxiter - #DIIS iter
   Number of Davidson start vectors     ....     2
   Converg. threshold I  (grad. norm)   ....   1.000e-05
   Converg. threshold II (energy diff.) ....   1.000e-08
   Grad. Scal. Fac. for Micro threshold ....   0.100
   Minimum threshold for Micro iter.    ....   0.010
   NR start threshold (gradient norm)   ....   0.001
   Initial trust radius                 ....   0.400
   Minimum AH scaling param. (alpha)    ....   1.000
   Maximum AH scaling param. (alpha)    .... 1000.000
   Orbital update algorithm             .... Taylor
   White noise on init. David. guess    .... on
   Maximum white noise                  ....   0.010
   Quad. conv. algorithm                .... NR
 SOSCF                  CNVSOSCF        .... on
   Start iteration      SOSCFMaxIt      ....   150
   Startup grad/error   SOSCFStart      ....  0.003300
 Level Shifting         CNVShift        .... on
   Level shift para.    LevelShift      ....    0.2500
   Turn off err/grad.   ShiftErr        ....    0.0010
 Zerner damping         CNVZerner       .... off
 Static damping         CNVDamp         .... on
   Fraction old density DampFac         ....    0.7000
   Max. Damping (<1)    DampMax         ....    0.9800
   Min. Damping (>=0)   DampMin         ....    0.0000
   Turn off err/grad.   DampErr         ....    0.1000
 Fernandez-Rico         CNVRico         .... off

SCF Procedure:
 Maximum # iterations   MaxIter         ....   125
 SCF integral mode      SCFMode         .... Direct
   Integral package                     .... SHARK and LIBINT hybrid scheme
 Reset frequency        DirectResetFreq ....    20
 Integral Threshold     Thresh          ....  2.500e-11 Eh
 Primitive CutOff       TCut            ....  2.500e-12 Eh

Convergence Tolerance:
 Convergence Check Mode ConvCheckMode   .... Total+1el-Energy
 Convergence forced     ConvForced      .... 0
 Energy Change          TolE            ....  1.000e-08 Eh
 1-El. energy change                    ....  1.000e-05 Eh
 Orbital Gradient       TolG            ....  1.000e-05
 Orbital Rotation angle TolX            ....  1.000e-05
 DIIS Error             TolErr          ....  5.000e-07


Diagonalization of the overlap matrix:
Smallest eigenvalue                        ... 8.881e-04
Time for diagonalization                   ...    0.014 sec
Threshold for overlap eigenvalues          ... 1.000e-08
Number of eigenvalues below threshold      ... 0
Time for construction of square roots      ...    0.009 sec
Total time needed                          ...    0.025 sec

Time for model grid setup =    0.063 sec

------------------------------
INITIAL GUESS: MODEL POTENTIAL
------------------------------
Loading Hartree-Fock densities                     ... done
Calculating cut-offs                               ... done
Initializing the effective Hamiltonian             ... done
Setting up the integral package (SHARK)            ... done
Starting the Coulomb interaction                   ... done (   0.0 sec)
Reading the grid                                   ... done
Mapping shells                                     ... done
Starting the XC term evaluation                    ... done (   0.0 sec)
  promolecular density results
     # of electrons  =     41.998170015
     EX              =    -37.760785910
     EC              =     -1.459341111
     EX+EC           =    -39.220127022
Transforming the Hamiltonian                       ... done (   0.0 sec)
Diagonalizing the Hamiltonian                      ... done (   0.0 sec)
Back transforming the eigenvectors                 ... done (   0.0 sec)
Now organizing SCF variables                       ... done
                      ------------------
                      INITIAL GUESS DONE (   0.1 sec)
                      ------------------
-------------------
DFT GRID GENERATION
-------------------

General Integration Accuracy     IntAcc      ... 4.388
Radial Grid Type                 RadialGrid  ... OptM3 with GC (2021)
Angular Grid (max. ang.)         AngularGrid ... 4 (Lebedev-302)
Angular grid pruning method      GridPruning ... 4 (adaptive)
Weight generation scheme         WeightScheme... Becke
Basis function cutoff            BFCut       ... 1.0000e-11
Integration weight cutoff        WCut        ... 1.0000e-14
Angular grids for H and He will be reduced by one unit
Partially contracted basis set               ... off
Rotationally invariant grid construction     ... off

Total number of grid points                  ...    46758
Total number of batches                      ...      736
Average number of points per batch           ...       63
Average number of grid points per atom       ...     4676
Time for grid setup =    0.261 sec

--------------------
COSX GRID GENERATION
--------------------

GRIDX 1
-------
General Integration Accuracy     IntAcc      ... 3.816
Radial Grid Type                 RadialGrid  ... OptM3 with GC (2021)
Angular Grid (max. ang.)         AngularGrid ... 1 (Lebedev-50)
Angular grid pruning method      GridPruning ... 4 (adaptive)
Weight generation scheme         WeightScheme... Becke
Basis function cutoff            BFCut       ... 1.0000e-11
Integration weight cutoff        WCut        ... 1.0000e-14
Angular grids for H and He will be reduced by one unit
Partially contracted basis set               ... on
Rotationally invariant grid construction     ... off

Total number of grid points                  ...     6005
Total number of batches                      ...      100
Average number of points per batch           ...       60
Average number of grid points per atom       ...      600
UseSFitting                                  ... on

GRIDX 2
-------
General Integration Accuracy     IntAcc      ... 4.020
Radial Grid Type                 RadialGrid  ... OptM3 with GC (2021)
Angular Grid (max. ang.)         AngularGrid ... 2 (Lebedev-110)
Angular grid pruning method      GridPruning ... 4 (adaptive)
Weight generation scheme         WeightScheme... Becke
Basis function cutoff            BFCut       ... 1.0000e-11
Integration weight cutoff        WCut        ... 1.0000e-14
Angular grids for H and He will be reduced by one unit
Partially contracted basis set               ... on
Rotationally invariant grid construction     ... off

Total number of grid points                  ...    13180
Total number of batches                      ...      211
Average number of points per batch           ...       62
Average number of grid points per atom       ...     1318
UseSFitting                                  ... on

GRIDX 3
-------
General Integration Accuracy     IntAcc      ... 4.338
Radial Grid Type                 RadialGrid  ... OptM3 with GC (2021)
Angular Grid (max. ang.)         AngularGrid ... 3 (Lebedev-194)
Angular grid pruning method      GridPruning ... 4 (adaptive)
Weight generation scheme         WeightScheme... Becke
Basis function cutoff            BFCut       ... 1.0000e-11
Integration weight cutoff        WCut        ... 1.0000e-14
Angular grids for H and He will be reduced by one unit
Partially contracted basis set               ... on
Rotationally invariant grid construction     ... off

Total number of grid points                  ...    29039
Total number of batches                      ...      460
Average number of points per batch           ...       63
Average number of grid points per atom       ...     2904
UseSFitting                                  ... on

Time for X-Grid setup             =    0.241 sec


--------------------
CPCM SOLVATION MODEL
--------------------
CPCM parameters:
  Epsilon                                         ...      78.4000
  Refrac                                          ...       1.3300
  Rsolv                                           ...       1.3000
  Surface type                                    ... GAUSSIAN VDW
  Epsilon function type                           ...         CPCM
Radii:
 Radius for C  used is    3.8550 Bohr (=   2.0400 Ang.)
 Radius for H  used is    2.4944 Bohr (=   1.3200 Ang.)
 Radius for N  used is    3.5149 Bohr (=   1.8600 Ang.)
 Radius for O  used is    3.4469 Bohr (=   1.8240 Ang.)
Calculating surface                               ...        done! (  0.0s)
GEPOL surface points                              ...          665
GEPOL Volume                                      ...     665.8322
GEPOL Surface-area                                ...     445.9436
Calculating surface distance matrix               ...        done! (  0.0s)
Performing Cholesky decomposition & store         ...        done! (  0.0s)
Overall time for CPCM initialization              ...                 0.0s
--------------
SCF ITERATIONS
--------------
ITER       Energy         Delta-E        Max-DP      RMS-DP      [F,P]     Damp
               ***  Starting incremental Fock matrix formation  ***
  0   -321.1951592768   0.000000000000 0.05343978  0.00153092  0.3367427 0.7000
  1   -321.3191086235  -0.123949346727 0.02998135  0.00093644  0.1323241 0.7000
                               ***Turning on DIIS***
  2   -321.3574214001  -0.038312776569 0.03868679  0.00117431  0.0333130 0.0000
  3   -321.4317031059  -0.074281705812 0.02372730  0.00064268  0.0776791 0.0000
  4   -321.4424793443  -0.010776238396 0.00893387  0.00021199  0.0164030 0.0000
                      *** Initiating the SOSCF procedure ***
                           *** Shutting down DIIS ***
                      *** Re-Reading the Fockian *** 
                      *** Removing any level shift *** 
ITER      Energy       Delta-E        Grad      Rot      Max-DP    RMS-DP
  5   -321.44320932  -0.0007299756  0.000740  0.000740  0.002101  0.000056
               *** Restarting incremental Fock matrix formation ***
  6   -321.44323716  -0.0000278376  0.000475  0.001010  0.001300  0.000042
  7   -321.44322890   0.0000082586  0.001195  0.000943  0.000725  0.000020
  8   -321.44324336  -0.0000144584  0.000116  0.000210  0.000176  0.000005
  9   -321.44324316   0.0000002001  0.000173  0.000130  0.000121  0.000003
 10   -321.44324348  -0.0000003264  0.000010  0.000012  0.000020  0.000001
 11   -321.44324348   0.0000000000  0.000011  0.000007  0.000011  0.000000
 12   -321.44324349  -0.0000000022  0.000003  0.000011  0.000007  0.000000
 13   -321.44324349  -0.0000000011  0.000007  0.000008  0.000005  0.000000
                 **** Energy Check signals convergence ****
              ***Rediagonalizing the Fockian in SOSCF/NRSCF***

               *****************************************************
               *                     SUCCESS                       *
               *           SCF CONVERGED AFTER  14 CYCLES          *
               *****************************************************

Old exchange energy                            =     -7.620573823 Eh
New exchange energy                            =     -7.620558939 Eh
Exchange energy change after final integration =      0.000014884 Eh
Total energy after final integration           =   -321.443228604 Eh
Final COS-X integration done in                =     0.604 sec

----------------
TOTAL SCF ENERGY
----------------

Total Energy       :         -321.44322860 Eh           -8746.91493 eV

Components:
Nuclear Repulsion  :          177.23361330 Eh            4822.77180 eV
Electronic Energy  :         -498.67684190 Eh          -13569.68674 eV
One Electron Energy:         -790.98110435 Eh          -21523.69009 eV
Two Electron Energy:          292.30426244 Eh            7954.00335 eV
Max COSX asymmetry :            0.00000104 Eh               0.00003 eV
CPCM Dielectric    :           -0.02224140 Eh              -0.60522 eV

Virial components:
Potential Energy   :         -641.63169070 Eh          -17459.68594 eV
Kinetic Energy     :          320.18846210 Eh            8712.77100 eV
Virial Ratio       :            2.00391884


DFT components:
N(Alpha)           :       21.000005187393 electrons
N(Beta)            :       21.000005187393 electrons
N(Total)           :       42.000010374786 electrons
E(X)               :      -30.404500634890 Eh       
E(C)               :       -1.724729456264 Eh       
E(XC)              :      -32.129230091153 Eh       
DFET-embed. en.    :        0.000000000000 Eh       
CPCM Solvation Model Properties:
Surface-charge          :           -0.01355754
Charge-correction       :            0.00014314 Eh               0.00389 eV
Free-energy (cav+disp)  :  This term is not implemented in the current solvation scheme

---------------
SCF CONVERGENCE
---------------

  Last Energy change         ...   -1.0293e-09  Tolerance :   1.0000e-08
  Last MAX-Density change    ...    1.2212e-15  Tolerance :   1.0000e-07
  Last RMS-Density change    ...    2.1164e-17  Tolerance :   5.0000e-09
  Last Orbital Gradient      ...    1.4637e-07  Tolerance :   1.0000e-05
  Last Orbital Rotation      ...    2.0551e-07  Tolerance :   1.0000e-05

             **** THE GBW FILE WAS UPDATED (/home/rudenko/mopac_kie/for_orca/CH3NO2_H2O_near/orca/orca_start/start.gbw) ****
             **** DENSITY /home/rudenko/mopac_kie/for_orca/CH3NO2_H2O_near/orca/orca_start/start.scfp WAS UPDATED ****
             **** ENERGY FILE WAS UPDATED (/home/rudenko/mopac_kie/for_orca/CH3NO2_H2O_near/orca/orca_start/start.en.tmp) ****
             **** THE GBW FILE WAS UPDATED (/home/rudenko/mopac_kie/for_orca/CH3NO2_H2O_near/orca/orca_start/start.gbw) ****
             **** DENSITY /home/rudenko/mopac_kie/for_orca/CH3NO2_H2O_near/orca/orca_start/start.scfp WAS UPDATED ****
----------------
ORBITAL ENERGIES
----------------

  NO   OCC          E(Eh)            E(eV) 
   0   2.0000     -19.167387      -521.5711 
   1   2.0000     -19.167188      -521.5657 
   2   2.0000     -19.123094      -520.3658 
   3   2.0000     -14.557915      -396.1410 
   4   2.0000     -10.219990      -278.1001 
   5   2.0000      -1.242578       -33.8123 
   6   2.0000      -1.062290       -28.9064 
   7   2.0000      -1.009173       -27.4610 
   8   2.0000      -0.817768       -22.2526 
   9   2.0000      -0.621703       -16.9174 
  10   2.0000      -0.554173       -15.0798 
  11   2.0000      -0.547961       -14.9108 
  12   2.0000      -0.531798       -14.4710 
  13   2.0000      -0.522735       -14.2243 
  14   2.0000      -0.423952       -11.5363 
  15   2.0000      -0.411041       -11.1850 
  16   2.0000      -0.389331       -10.5942 
  17   2.0000      -0.330163        -8.9842 
  18   2.0000      -0.328409        -8.9365 
  19   2.0000      -0.314622        -8.5613 
  20   2.0000      -0.302440        -8.2298 
  21   0.0000      -0.083172        -2.2632 
  22   0.0000       0.026685         0.7261 
  23   0.0000       0.070289         1.9126 
  24   0.0000       0.104092         2.8325 
  25   0.0000       0.113398         3.0857 
  26   0.0000       0.139781         3.8036 
  27   0.0000       0.155219         4.2237 
  28   0.0000       0.180799         4.9198 
  29   0.0000       0.204944         5.5768 
  30   0.0000       0.211942         5.7672 
  31   0.0000       0.241401         6.5688 
  32   0.0000       0.315943         8.5972 
  33   0.0000       0.339053         9.2261 
  34   0.0000       0.378365        10.2958 
  35   0.0000       0.391508        10.6535 
  36   0.0000       0.399363        10.8672 
  37   0.0000       0.410187        11.1618 
  38   0.0000       0.412418        11.2225 
  39   0.0000       0.426935        11.6175 
  40   0.0000       0.443113        12.0577 
  41   0.0000       0.460695        12.5362 
  42   0.0000       0.467900        12.7322 
  43   0.0000       0.475460        12.9379 
  44   0.0000       0.493596        13.4314 
  45   0.0000       0.525691        14.3048 
  46   0.0000       0.526972        14.3396 
  47   0.0000       0.540168        14.6987 
  48   0.0000       0.572459        15.5774 
  49   0.0000       0.577884        15.7250 
  50   0.0000       0.588611        16.0169 
  51   0.0000       0.613853        16.7038 
  52   0.0000       0.686044        18.6682 
  53   0.0000       0.715165        19.4606 
  54   0.0000       0.788137        21.4463 
  55   0.0000       0.801823        21.8187 
  56   0.0000       0.891474        24.2582 
  57   0.0000       0.955018        25.9874 
  58   0.0000       0.989571        26.9276 
  59   0.0000       1.010688        27.5022 
  60   0.0000       1.151282        31.3280 
  61   0.0000       1.153539        31.3894 
  62   0.0000       1.198582        32.6151 
  63   0.0000       1.220542        33.2126 
  64   0.0000       1.323833        36.0233 
  65   0.0000       1.340935        36.4887 
  66   0.0000       1.381332        37.5880 
  67   0.0000       1.408400        38.3245 
  68   0.0000       1.481583        40.3159 
  69   0.0000       1.501402        40.8552 
  70   0.0000       1.517116        41.2828 
  71   0.0000       1.547749        42.1164 
  72   0.0000       1.557329        42.3771 
  73   0.0000       1.581935        43.0466 
  74   0.0000       1.598612        43.5004 
  75   0.0000       1.638539        44.5869 
  76   0.0000       1.645910        44.7875 
  77   0.0000       1.669337        45.4250 
  78   0.0000       1.753896        47.7259 
  79   0.0000       1.768189        48.1149 
  80   0.0000       1.798456        48.9385 
  81   0.0000       1.914494        52.0960 
  82   0.0000       1.925240        52.3884 
  83   0.0000       1.934056        52.6283 
  84   0.0000       2.002606        54.4937 
  85   0.0000       2.020980        54.9937 
  86   0.0000       2.027029        55.1583 
  87   0.0000       2.042328        55.5746 
  88   0.0000       2.095597        57.0241 
  89   0.0000       2.119854        57.6842 
  90   0.0000       2.162614        58.8477 
  91   0.0000       2.183301        59.4106 
  92   0.0000       2.210502        60.1508 
  93   0.0000       2.228340        60.6362 
  94   0.0000       2.263107        61.5823 
  95   0.0000       2.314787        62.9885 
  96   0.0000       2.348199        63.8977 
  97   0.0000       2.378365        64.7186 
  98   0.0000       2.421263        65.8859 
  99   0.0000       2.481110        67.5144 
 100   0.0000       2.532856        68.9225 
 101   0.0000       2.544128        69.2292 
 102   0.0000       2.553543        69.4854 
 103   0.0000       2.596273        70.6482 
 104   0.0000       2.609545        71.0093 
 105   0.0000       2.625000        71.4299 
 106   0.0000       2.644035        71.9478 
 107   0.0000       2.676909        72.8424 
 108   0.0000       2.697351        73.3987 
 109   0.0000       2.723913        74.1214 
 110   0.0000       2.867674        78.0334 
 111   0.0000       2.881919        78.4210 
 112   0.0000       2.913044        79.2680 
 113   0.0000       2.992244        81.4231 
 114   0.0000       2.999846        81.6300 
 115   0.0000       3.045347        82.8681 
 116   0.0000       3.127658        85.1079 
 117   0.0000       3.212418        87.4143 
 118   0.0000       3.223647        87.7199 
 119   0.0000       3.255346        88.5825 
 120   0.0000       3.425068        93.2008 
 121   0.0000       3.480372        94.7057 
 122   0.0000       3.514199        95.6262 
 123   0.0000       3.589447        97.6738 
 124   0.0000       3.660211        99.5994 
 125   0.0000       3.722167       101.2853 
 126   0.0000       3.782460       102.9260 
 127   0.0000       3.919229       106.6476 
 128   0.0000       3.985626       108.4544 
 129   0.0000       4.003821       108.9495 
 130   0.0000       4.086256       111.1927 
 131   0.0000       4.114791       111.9692 
 132   0.0000       4.286916       116.6529 
 133   0.0000       4.321551       117.5954 
 134   0.0000       4.543557       123.6365 
 135   0.0000       4.564197       124.1981 
 136   0.0000       4.645319       126.4056 
 137   0.0000       4.679714       127.3415 
 138   0.0000       4.739768       128.9756 
 139   0.0000       4.800161       130.6190 
 140   0.0000       4.905153       133.4760 
 141   0.0000       5.077239       138.1587 
 142   0.0000       5.086191       138.4023 
 143   0.0000       5.098035       138.7246 
 144   0.0000       5.116555       139.2285 
 145   0.0000       5.130734       139.6144 
 146   0.0000       5.135258       139.7375 
 147   0.0000       5.208556       141.7320 
 148   0.0000       5.268944       143.3753 
 149   0.0000       5.286562       143.8547 
 150   0.0000       5.296851       144.1346 
 151   0.0000       5.380788       146.4187 
 152   0.0000       5.442592       148.1005 
 153   0.0000       5.449143       148.2787 
 154   0.0000       5.559429       151.2797 
 155   0.0000       5.638055       153.4193 
 156   0.0000       5.698385       155.0609 
 157   0.0000       5.935126       161.5030 
 158   0.0000       6.024974       163.9479 
 159   0.0000       6.202562       168.7803 
 160   0.0000       6.230830       169.5495 
 161   0.0000       6.256658       170.2523 
 162   0.0000       6.321773       172.0242 
 163   0.0000       6.322124       172.0338 
 164   0.0000       6.336206       172.4169 
 165   0.0000       6.349513       172.7790 
 166   0.0000       6.372168       173.3955 
 167   0.0000       6.426195       174.8656 
 168   0.0000       6.454137       175.6260 
 169   0.0000       6.645600       180.8360 
 170   0.0000       6.833517       185.9494 
 171   0.0000       6.854719       186.5264 
 172   0.0000       6.882721       187.2884 
 173   0.0000       6.905109       187.8976 
 174   0.0000       7.015625       190.9049 
 175   0.0000       7.087404       192.8581 
 176   0.0000       7.202408       195.9875 
 177   0.0000       7.238786       196.9774 
 178   0.0000       7.276716       198.0095 
 179   0.0000       7.380187       200.8251 
 180   0.0000      22.312803       607.1622 
 181   0.0000      32.317233       879.3966 
 182   0.0000      43.304258      1178.3688 
 183   0.0000      43.869772      1193.7572 
 184   0.0000      43.927995      1195.3415 

                    ********************************
                    * MULLIKEN POPULATION ANALYSIS *
                    ********************************

-----------------------
MULLIKEN ATOMIC CHARGES
-----------------------
   0 C :   -0.277127
   1 H :    0.167548
   2 H :    0.180438
   3 H :    0.176231
   4 N :    0.443067
   5 O :   -0.355474
   6 O :   -0.356015
   7 H :    0.356475
   8 O :   -0.695736
   9 H :    0.360594
Sum of atomic charges:   -0.0000000

--------------------------------
MULLIKEN REDUCED ORBITAL CHARGES
--------------------------------
  0 C s       :     3.288460  s :     3.288460
      pz      :     1.123355  p :     2.932159
      px      :     0.720363
      py      :     1.088441
      dz2     :     0.008585  d :     0.050944
      dxz     :     0.012173
      dyz     :     0.006407
      dx2y2   :     0.013137
      dxy     :     0.010643
      f0      :     0.000448  f :     0.005565
      f+1     :     0.001072
      f-1     :     0.000805
      f+2     :     0.000773
      f-2     :    -0.000018
      f+3     :     0.001499
      f-3     :     0.000986
  1 H s       :     0.811120  s :     0.811120
      pz      :     0.009365  p :     0.021332
      px      :     0.004348
      py      :     0.007620
  2 H s       :     0.798151  s :     0.798151
      pz      :     0.004674  p :     0.021411
      px      :     0.005698
      py      :     0.011039
  3 H s       :     0.802223  s :     0.802223
      pz      :     0.010547  p :     0.021546
      px      :     0.005425
      py      :     0.005574
  4 N s       :     3.307142  s :     3.307142
      pz      :     0.862543  p :     2.997357
      px      :     1.052280
      py      :     1.082534
      dz2     :     0.073954  d :     0.237872
      dxz     :     0.062462
      dyz     :     0.059470
      dx2y2   :     0.021568
      dxy     :     0.020419
      f0      :     0.004183  f :     0.014561
      f+1     :     0.002389
      f-1     :     0.001601
      f+2     :     0.002720
      f-2     :     0.002442
      f+3     :     0.000559
      f-3     :     0.000666
  5 O s       :     3.878751  s :     3.878751
      pz      :     1.295155  p :     4.432534
      px      :     1.723953
      py      :     1.413426
      dz2     :     0.013235  d :     0.040917
      dxz     :     0.012589
      dyz     :     0.010070
      dx2y2   :     0.002227
      dxy     :     0.002797
      f0      :     0.000772  f :     0.003272
      f+1     :     0.001116
      f-1     :     0.000546
      f+2     :     0.000351
      f-2     :     0.000443
      f+3     :     0.000024
      f-3     :     0.000020
  6 O s       :     3.879658  s :     3.879658
      pz      :     1.341704  p :     4.432183
      px      :     1.658720
      py      :     1.431759
      dz2     :     0.011625  d :     0.040901
      dxz     :     0.013986
      dyz     :     0.008729
      dx2y2   :     0.002851
      dxy     :     0.003710
      f0      :     0.000634  f :     0.003273
      f+1     :     0.001184
      f-1     :     0.000384
      f+2     :     0.000458
      f-2     :     0.000527
      f+3     :     0.000036
      f-3     :     0.000051
  7 H s       :     0.597658  s :     0.597658
      pz      :     0.015682  p :     0.045867
      px      :     0.017431
      py      :     0.012753
  8 O s       :     3.809104  s :     3.809104
      pz      :     1.843198  p :     4.865524
      px      :     1.667499
      py      :     1.354828
      dz2     :     0.002349  d :     0.019816
      dxz     :     0.004866
      dyz     :     0.002918
      dx2y2   :     0.005168
      dxy     :     0.004515
      f0      :     0.000269  f :     0.001291
      f+1     :     0.000065
      f-1     :     0.000188
      f+2     :     0.000115
      f-2     :     0.000264
      f+3     :     0.000077
      f-3     :     0.000313
  9 H s       :     0.593631  s :     0.593631
      pz      :     0.014384  p :     0.045776
      px      :     0.012682
      py      :     0.018709


                     *******************************
                     * LOEWDIN POPULATION ANALYSIS *
                     *******************************

----------------------
LOEWDIN ATOMIC CHARGES
----------------------
   0 C :   -0.284551
   1 H :    0.140550
   2 H :    0.152020
   3 H :    0.140930
   4 N :   -0.067995
   5 O :   -0.064527
   6 O :   -0.064640
   7 H :    0.172185
   8 O :   -0.298767
   9 H :    0.174794

-------------------------------
LOEWDIN REDUCED ORBITAL CHARGES
-------------------------------
  0 C s       :     2.872656  s :     2.872656
      pz      :     1.125207  p :     3.104865
      px      :     0.872400
      py      :     1.107257
      dz2     :     0.047341  d :     0.271760
      dxz     :     0.055470
      dyz     :     0.031249
      dx2y2   :     0.079047
      dxy     :     0.058652
      f0      :     0.002727  f :     0.035269
      f+1     :     0.007071
      f-1     :     0.002537
      f+2     :     0.004638
      f-2     :     0.002161
      f+3     :     0.009308
      f-3     :     0.006827
  1 H s       :     0.798401  s :     0.798401
      pz      :     0.027802  p :     0.061049
      px      :     0.010950
      py      :     0.022298
  2 H s       :     0.787022  s :     0.787022
      pz      :     0.013621  p :     0.060958
      px      :     0.014600
      py      :     0.032738
  3 H s       :     0.797354  s :     0.797354
      pz      :     0.031751  p :     0.061716
      px      :     0.013603
      py      :     0.016362
  4 N s       :     2.944767  s :     2.944767
      pz      :     1.105054  p :     3.296065
      px      :     1.183030
      py      :     1.007981
      dz2     :     0.247746  d :     0.752692
      dxz     :     0.222497
      dyz     :     0.154391
      dx2y2   :     0.070992
      dxy     :     0.057067
      f0      :     0.023120  f :     0.074472
      f+1     :     0.012627
      f-1     :     0.005230
      f+2     :     0.015771
      f-2     :     0.013706
      f+3     :     0.001922
      f-3     :     0.002095
  5 O s       :     3.505126  s :     3.505126
      pz      :     1.407888  p :     4.450453
      px      :     1.666467
      py      :     1.376098
      dz2     :     0.034651  d :     0.097971
      dxz     :     0.033132
      dyz     :     0.019724
      dx2y2   :     0.005507
      dxy     :     0.004958
      f0      :     0.002874  f :     0.010976
      f+1     :     0.003748
      f-1     :     0.001694
      f+2     :     0.001252
      f-2     :     0.001188
      f+3     :     0.000114
      f-3     :     0.000108
  6 O s       :     3.505074  s :     3.505074
      pz      :     1.437526  p :     4.450598
      px      :     1.625380
      py      :     1.387693
      dz2     :     0.030509  d :     0.097990
      dxz     :     0.036918
      dyz     :     0.016622
      dx2y2   :     0.007869
      dxy     :     0.006072
      f0      :     0.002383  f :     0.010978
      f+1     :     0.004006
      f-1     :     0.001154
      f+2     :     0.001754
      f-2     :     0.001298
      f+3     :     0.000211
      f-3     :     0.000172
  7 H s       :     0.668054  s :     0.668054
      pz      :     0.053712  p :     0.159761
      px      :     0.067821
      py      :     0.038228
  8 O s       :     3.454164  s :     3.454164
      pz      :     1.808390  p :     4.812572
      px      :     1.642491
      py      :     1.361691
      dz2     :     0.002820  d :     0.029644
      dxz     :     0.005586
      dyz     :     0.004499
      dx2y2   :     0.008981
      dxy     :     0.007759
      f0      :     0.000326  f :     0.002387
      f+1     :     0.000013
      f-1     :     0.000267
      f+2     :     0.000280
      f-2     :     0.000611
      f+3     :     0.000228
      f-3     :     0.000663
  9 H s       :     0.665551  s :     0.665551
      pz      :     0.044433  p :     0.159655
      px      :     0.039188
      py      :     0.076034


                      *****************************
                      * MAYER POPULATION ANALYSIS *
                      *****************************

  NA   - Mulliken gross atomic population
  ZA   - Total nuclear charge
  QA   - Mulliken gross atomic charge
  VA   - Mayer's total valence
  BVA  - Mayer's bonded valence
  FA   - Mayer's free valence

  ATOM       NA         ZA         QA         VA         BVA        FA
  0 C      6.2771     6.0000    -0.2771     3.7770     3.7770    -0.0000
  1 H      0.8325     1.0000     0.1675     0.9773     0.9773    -0.0000
  2 H      0.8196     1.0000     0.1804     0.9655     0.9655    -0.0000
  3 H      0.8238     1.0000     0.1762     0.9698     0.9698    -0.0000
  4 N      6.5569     7.0000     0.4431     4.0888     4.0888     0.0000
  5 O      8.3555     8.0000    -0.3555     1.8792     1.8792     0.0000
  6 O      8.3560     8.0000    -0.3560     1.8756     1.8756    -0.0000
  7 H      0.6435     1.0000     0.3565     0.8884     0.8884    -0.0000
  8 O      8.6957     8.0000    -0.6957     1.7927     1.7927    -0.0000
  9 H      0.6394     1.0000     0.3606     0.8831     0.8831    -0.0000

  Mayer bond orders larger than 0.100000
B(  0-C ,  1-H ) :   0.9462 B(  0-C ,  2-H ) :   0.9299 B(  0-C ,  3-H ) :   0.9458 
B(  0-C ,  4-N ) :   0.8838 B(  4-N ,  5-O ) :   1.6018 B(  4-N ,  6-O ) :   1.5967 
B(  5-O ,  6-O ) :   0.2083 B(  7-H ,  8-O ) :   0.8803 B(  8-O ,  9-H ) :   0.8789 


-------
TIMINGS
-------

Total SCF time: 0 days 0 hours 0 min 9 sec 

Total time                  ....       9.271 sec
Sum of individual times     ....       8.799 sec  ( 94.9%)

Fock matrix formation       ....       7.895 sec  ( 85.2%)
  Split-RI-J                ....       0.720 sec  (  9.1% of F)
  Chain of spheres X        ....       3.812 sec  ( 48.3% of F)
  XC integration            ....       0.937 sec  ( 11.9% of F)
    Basis function eval.    ....       0.234 sec  ( 25.0% of XC)
    Density eval.           ....       0.180 sec  ( 19.2% of XC)
    XC-Functional eval.     ....       0.053 sec  (  5.7% of XC)
    XC-Potential eval.      ....       0.161 sec  ( 17.2% of XC)
Diagonalization             ....       0.099 sec  (  1.1%)
Density matrix formation    ....       0.011 sec  (  0.1%)
Population analysis         ....       0.011 sec  (  0.1%)
Initial guess               ....       0.058 sec  (  0.6%)
Orbital Transformation      ....       0.000 sec  (  0.0%)
Orbital Orthonormalization  ....       0.000 sec  (  0.0%)
DIIS solution               ....       0.061 sec  (  0.7%)
SOSCF solution              ....       0.101 sec  (  1.1%)
Grid generation             ....       0.565 sec  (  6.1%)

Maximum memory used throughout the entire SCF-calculation: 65.1 MB


-------------------------------------------------------------------------------
                          DFT DISPERSION CORRECTION                            
                                                                               
                              DFTD3 V3.1  Rev 1                                
                          USING Becke-Johnson damping                          
-------------------------------------------------------------------------------
The B3LYP functional is recognized
Active option DFTDOPT                   ...         4   

molecular C6(AA) [au] = 741.679688 


            DFT-D V3
 parameters
 s6 scaling factor         :     1.0000 
 a1 scaling factor         :     0.3981 
 s8 scaling factor         :     1.9889 
 a2 scaling factor         :     4.4211 
 ad hoc parameters k1-k3   :    16.0000     1.3333    -4.0000 

 Edisp/kcal,au: -5.150632163983  -0.008208053946 
 E6   /kcal   :  -2.604214194 
 E8   /kcal   :  -2.546417970 
 % E8         :  49.438940490 

-------------------------   ----------------
Dispersion correction           -0.008208054
-------------------------   ----------------


-------------------------   --------------------
FINAL SINGLE POINT ENERGY      -321.451436658089
-------------------------   --------------------



           ************************************************************
           *        Program running with 18 parallel MPI-processes    *
           *              working on a common directory               *
           ************************************************************
------------------------------------------------------------------------------
                         ORCA SCF GRADIENT CALCULATION
------------------------------------------------------------------------------

 ... reading COSX grid (gridx3)
Gradient of the Kohn-Sham DFT energy:
Kohn-Sham wavefunction type      ... RKS
Hartree-Fock exchange scaling    ...    0.200
Number of operators              ...    1
Number of atoms                  ...   10
Basis set dimensions             ...  185
Integral neglect threshold       ... 2.5e-11
Integral primitive cutoff        ... 2.5e-12
SHARK Integral package           ... ON

Nuc. rep. gradient       (SHARK) ... done (  0.0 sec)
HCore & Overlap gradient (SHARK) ... done (  0.0 sec)
RI-J gradient            (SHARK) ... done (  0.2 sec)
COSX-gradient                    ... done (  0.7 sec)
Exchange-correlation gradient    ... done
Dispersion correction            ... done

------------------
CARTESIAN GRADIENT
------------------

   1   C   :   -0.040769848    0.007338403    0.000448438
   2   H   :    0.011657391   -0.009430804   -0.009470531
   3   H   :    0.013167223    0.009519066   -0.001968142
   4   H   :    0.013820456   -0.006987237    0.011294349
   5   N   :    0.022572140   -0.001208780   -0.000854209
   6   O   :   -0.007300713   -0.000786369   -0.005979335
   7   O   :   -0.006371509    0.000754257    0.006978825
   8   H   :   -0.000470759    0.001497404   -0.000093295
   9   O   :   -0.006321671    0.000342011    0.000430648
  10   H   :    0.000074973   -0.001134565   -0.000557276

Difference to translation invariance:
           :    0.0000576833   -0.0000966134    0.0002294721

Difference to rotation invariance:
           :   -0.0002139829    0.0005520590   -0.0002108618

Norm of the cartesian gradient     ...    0.0583231072
RMS gradient                       ...    0.0106482938
MAX gradient                       ...    0.0407698483

-------
TIMINGS
-------

Total SCF gradient time            ...        1.923 sec

One electron gradient       ....       0.023 sec  (  1.2%)
RI-J Coulomb gradient       ....       0.206 sec  ( 10.7%)
COSX gradient               ....       0.686 sec  ( 35.7%)
XC gradient                 ....       0.247 sec  ( 12.8%)
CPCM gradient               ....       0.133 sec  (  6.9%)
   A-Matrix (El+Nuc)        ....       0.033 sec  (  1.7%)
   Potential                ....       0.100 sec  (  5.2%)

Maximum memory used throughout the entire SCFGRAD-calculation: 39.6 MB
------------------------------------------------------------------------------
                         ORCA GEOMETRY RELAXATION STEP
------------------------------------------------------------------------------

Reading the OPT-File                    .... done
Getting information on internals        .... done
Copying old internal coords+grads       .... done
Making the new internal coordinates     .... (new redundants).... done
Validating the new internal coordinates .... (new redundants).... done
Calculating the B-matrix                .... done
Calculating the G,G- and P matrices     .... done
Transforming gradient to internals      .... done
Projecting the internal gradient        .... done
Number of atoms                         ....  10
Number of internal coordinates          ....  48
Current Energy                          ....  -321.451436658 Eh
Current gradient norm                   ....     0.058323107 Eh/bohr
Maximum allowed component of the step   ....  0.300
Current trust radius                    ....  0.300
Evaluating the initial hessian          ....  (Almloef) done
Projecting the Hessian                  .... done
Forming the augmented Hessian           .... done
Diagonalizing the augmented Hessian     .... done
Last element of RFO vector              ....  0.917287108
Lowest eigenvalues of augmented Hessian:
 -0.004907682  0.001395198  0.002321601  0.010702065  0.015800430
Length of the computed step             ....  0.434135090
Warning: the length of the step is outside the trust region - taking restricted step instead
The input lambda is                     ....    -0.004908
   iter:   1  x=   -0.006681  g=   55.532835 f(x)=     0.098473
   iter:   2  x=   -0.007829  g=   26.309263 f(x)=     0.030202
   iter:   3  x=   -0.008134  g=   17.679969 f(x)=     0.005394
   iter:   4  x=   -0.008150  g=   16.046105 f(x)=     0.000255
   iter:   5  x=   -0.008150  g=   15.966791 f(x)=     0.000001
   iter:   6  x=   -0.008150  g=   15.966594 f(x)=     0.000000
   iter:   7  x=   -0.008150  g=   15.966594 f(x)=     0.000000
The output lambda is                    ....    -0.008150 (7 iterations)
The final length of the internal step   ....  0.300000000
Converting the step to cartesian space:
 Initial RMS(Int)=    0.0433012702
Transforming coordinates:
 Iter   0:  RMS(Cart)=    0.0338549205 RMS(Int)=    0.0434868800
 Iter   1:  RMS(Cart)=    0.0002475854 RMS(Int)=    0.0003024275
 Iter   2:  RMS(Cart)=    0.0000038415 RMS(Int)=    0.0000034970
 Iter   3:  RMS(Cart)=    0.0000000539 RMS(Int)=    0.0000000719
done
Storing new coordinates                 .... done

                                .--------------------.
          ----------------------|Geometry convergence|-------------------------
          Item                value                   Tolerance       Converged
          ---------------------------------------------------------------------
          RMS gradient        0.0051167044            0.0001000000      NO
          MAX gradient        0.0168333357            0.0003000000      NO
          RMS step            0.0433012702            0.0020000000      NO
          MAX step            0.1294721185            0.0040000000      NO
          ........................................................
          Max(Bonds)      0.0685      Max(Angles)    1.69
          Max(Dihed)        1.04      Max(Improp)    0.00
          ---------------------------------------------------------------------

The optimization has not yet converged - more geometry cycles are needed


    ---------------------------------------------------------------------------
                         Redundant Internal Coordinates
                            (Angstroem and degrees)

        Definition                    Value    dE/dq     Step     New-Value
    ----------------------------------------------------------------------------
     1. B(H   1,C   0)                1.1094  0.016359 -0.0250    1.0844   
     2. B(H   2,C   0)                1.1130  0.013873 -0.0225    1.0905   
     3. B(H   3,C   0)                1.1101  0.016833 -0.0266    1.0835   
     4. B(N   4,C   0)                1.4563 -0.008951  0.0106    1.4669   
     5. B(O   5,N   4)                1.2231 -0.002248  0.0013    1.2244   
     6. B(O   6,N   4)                1.2231 -0.002521  0.0014    1.2245   
     7. B(O   8,H   7)                0.9649 -0.001072  0.0011    0.9660   
     8. B(O   8,H   2)                2.6808 -0.000877  0.0581    2.7389   
     9. B(O   8,H   1)                2.6222 -0.002963  0.0583    2.6805   
    10. B(O   8,C   0)                2.7449  0.001856  0.0507    2.7956   
    11. B(O   8,H   3)                2.3853 -0.004508  0.0685    2.4538   
    12. B(H   9,H   2)                2.4725 -0.003424  0.0556    2.5281   
    13. B(H   9,H   1)                2.9402 -0.000233  0.0374    2.9776   
    14. B(H   9,C   0)                2.9227  0.003275  0.0339    2.9566   
    15. B(H   9,H   3)                2.7725 -0.000558  0.0449    2.8174   
    16. B(H   9,O   8)                0.9651 -0.001753  0.0001    0.9652   
    17. A(H   3,C   0,O   8)           59.67 -0.002045    0.99     60.67   
    18. A(H   2,C   0,O   8)           74.95 -0.002235    0.78     75.73   
    19. A(N   4,C   0,O   8)          171.55 -0.000424    0.25    171.80   
    20. A(H   1,C   0,H   2)          107.23 -0.002572    0.80    108.03   
    21. A(H   3,C   0,N   4)          111.96  0.001622   -0.74    111.22   
    22. A(H   2,C   0,H   3)          107.28 -0.002022    0.71    107.99   
    23. A(H   1,C   0,H   3)          108.21 -0.003173    1.18    109.38   
    24. A(H   1,C   0,N   4)          111.68  0.003164   -0.83    110.86   
    25. A(H   2,C   0,N   4)          110.26  0.002523   -0.97    109.30   
    26. A(H   1,C   0,O   8)           71.93 -0.003006    0.75     72.68   
    27. A(C   0,N   4,O   5)          119.25  0.007229   -0.87    118.38   
    28. A(O   5,N   4,O   6)          121.59 -0.014087    1.69    123.27   
    29. A(C   0,N   4,O   6)          119.16  0.006864   -0.83    118.34   
    30. A(C   0,O   8,H   7)          140.22 -0.000113    0.16    140.38   
    31. A(H   7,O   8,H   9)          103.63 -0.001193    0.44    104.07   
    32. A(C   0,O   8,H   9)           90.83  0.001241   -0.88     89.95   
    33. D(O   5,N   4,C   0,H   3)     28.36 -0.000115    0.64     28.99   
    34. D(O   6,N   4,C   0,H   1)    -30.57 -0.000029   -0.60    -31.17   
    35. D(O   5,N   4,C   0,H   1)    149.88 -0.000792    1.04    150.92   
    36. D(O   6,N   4,C   0,H   3)   -152.10  0.000649   -1.00   -153.09   
    37. D(O   6,N   4,C   0,H   2)     88.54  0.000449   -0.76     87.78   
    38. D(O   6,N   4,C   0,O   8)   -144.46  0.000461   -0.92   -145.38   
    39. D(O   5,N   4,C   0,O   8)     36.00 -0.000302    0.71     36.71   
    40. D(O   5,N   4,C   0,H   2)    -91.00 -0.000315    0.87    -90.13   
    41. D(H   9,O   8,C   0,H   2)     -1.99  0.000132   -0.30     -2.29   
    42. D(H   9,O   8,C   0,H   1)    112.23 -0.000405   -0.09    112.15   
    43. D(H   7,O   8,C   0,N   4)    116.20  0.000114    0.37    116.57   
    44. D(H   7,O   8,C   0,H   3)    124.41 -0.000010    0.41    124.83   
    45. D(H   7,O   8,C   0,H   2)   -114.68  0.000531    0.04   -114.63   
    46. D(H   9,O   8,C   0,H   3)   -122.90 -0.000409    0.07   -122.83   
    47. D(H   7,O   8,C   0,H   1)     -0.45 -0.000006    0.25     -0.20   
    48. D(H   9,O   8,C   0,N   4)   -131.11 -0.000285    0.03   -131.08   
    ----------------------------------------------------------------------------

         *************************************************************
         *                GEOMETRY OPTIMIZATION CYCLE   2            *
         *************************************************************
---------------------------------
CARTESIAN COORDINATES (ANGSTROEM)
---------------------------------
  C      0.556801   -0.794260    0.408090
  H      0.845526   -1.441944   -0.412277
  H      1.013924    0.182101    0.244031
  H      0.946742   -1.194400    1.336445
  N     -0.901179   -0.643205    0.466020
  O     -1.421588   -0.433923    1.554336
  O     -1.532719   -0.694054   -0.581811
  H      4.014314   -1.750420    0.209456
  O      3.301073   -1.269485    0.648830
  H      3.478795   -0.344049    0.440169

----------------------------
CARTESIAN COORDINATES (A.U.)
----------------------------
  NO LB      ZA    FRAG     MASS         X           Y           Z
   0 C     6.0000    0    12.011    1.052201   -1.500933    0.771179
   1 H     1.0000    0     1.008    1.597813   -2.724880   -0.779090
   2 H     1.0000    0     1.008    1.916039    0.344121    0.461152
   3 H     1.0000    0     1.008    1.789083   -2.257090    2.525516
   4 N     7.0000    0    14.007   -1.702981   -1.215481    0.880650
   5 O     8.0000    0    15.999   -2.686412   -0.819996    2.937268
   6 O     8.0000    0    15.999   -2.896419   -1.311572   -1.099463
   7 H     1.0000    0     1.008    7.585953   -3.307815    0.395815
   8 O     8.0000    0    15.999    6.238124   -2.398979    1.226112
   9 H     1.0000    0     1.008    6.573970   -0.650159    0.831798

--------------------------------
INTERNAL COORDINATES (ANGSTROEM)
--------------------------------
 C      0   0   0     0.000000000000     0.00000000     0.00000000
 H      1   0   0     1.084370779575     0.00000000     0.00000000
 H      1   2   0     1.090484945282   108.01999188     0.00000000
 H      1   2   3     1.083517375172   109.37794792   242.70808293
 N      1   2   3     1.466928087214   110.85582774   119.71691850
 O      5   1   2     1.224359086857   118.36959449   150.91743279
 O      5   1   2     1.224491217708   118.32953124   328.83030416
 H      2   1   3     3.243905497390    99.89797810    68.14804489
 O      8   2   1     0.965950720876    47.04292968   359.85447117
 H      9   8   2     0.965171773787   104.06902661   252.54766725

---------------------------
INTERNAL COORDINATES (A.U.)
---------------------------
 C      0   0   0     0.000000000000     0.00000000     0.00000000
 H      1   0   0     2.049163801023     0.00000000     0.00000000
 H      1   2   0     2.060717899747   108.01999188     0.00000000
 H      1   2   3     2.047551100420   109.37794792   242.70808293
 N      1   2   3     2.772092342991   110.85582774   119.71691850
 O      5   1   2     2.313703363738   118.36959449   150.91743279
 O      5   1   2     2.313953054860   118.32953124   328.83030416
 H      2   1   3     6.130092994389    99.89797810    68.14804489
 O      8   2   1     1.825382321320    47.04292968   359.85447117
 H      9   8   2     1.823910324649   104.06902661   252.54766725



           ************************************************************
           *        Program running with 18 parallel MPI-processes    *
           *              working on a common directory               *
           ************************************************************
------------------------------------------------------------------------------
                   ___                                                        
                  /   \      - P O W E R E D   B Y -                         
                 /     \                                                     
                 |  |  |   _    _      __       _____    __    __             
                 |  |  |  | |  | |    /  \     |  _  \  |  |  /  |          
                  \  \/   | |  | |   /    \    | | | |  |  | /  /          
                 / \  \   | |__| |  /  /\  \   | |_| |  |  |/  /          
                |  |  |   |  __  | /  /__\  \  |    /   |      \           
                |  |  |   | |  | | |   __   |  |    \   |  |\   \          
                \     /   | |  | | |  |  |  |  | |\  \  |  | \   \       
                 \___/    |_|  |_| |__|  |__|  |_| \__\ |__|  \__/        
                                                                              
                      - O R C A' S   B I G   F R I E N D -                    
                                      &                                       
                       - I N T E G R A L  F E E D E R -                       
                                                                              
 v1 FN, 2020, v2 2021                                                         
------------------------------------------------------------------------------


Reading SHARK input file /home/rudenko/mopac_kie/for_orca/CH3NO2_H2O_near/orca/orca_start/start.SHARKINP.tmp ... ok
----------------------
SHARK INTEGRAL PACKAGE
----------------------

Number of atoms                             ...     10
Number of basis functions                   ...    185
Number of shells                            ...     75
Maximum angular momentum                    ...      3
Integral batch strategy                     ... SHARK/LIBINT Hybrid
RI-J (if used) integral strategy            ... SPLIT-RIJ (Revised 2003 algorithm where possible)
Printlevel                                  ...      1
Contraction scheme used                     ... SEGMENTED contraction
Coulomb Range Separation                    ... NOT USED
Exchange Range Separation                   ... NOT USED
Finite Nucleus Model                        ... NOT USED
Auxiliary Coulomb fitting basis             ... AVAILABLE
   # of basis functions in Aux-J            ...    300
   # of shells in Aux-J                     ...    100
   Maximum angular momentum in Aux-J        ...      4
Auxiliary J/K fitting basis                 ... NOT available
Auxiliary Correlation fitting basis         ... NOT available
Auxiliary 'external' fitting basis          ... NOT available
Integral threshold                          ...     2.500000e-11
Primitive cut-off                           ...     2.500000e-12
Primitive pair pre-selection threshold      ...     2.500000e-12

Calculating pre-screening integrals         ... done (  0.1 sec) Dimension = 75
Organizing shell pair data                  ... done (  0.0 sec)
Shell pair information
Total number of shell pairs                 ...      2850
Shell pairs after pre-screening             ...      2511
Total number of primitive shell pairs       ...      8640
Primitive shell pairs kept                  ...      5915
          la=0 lb=0:    712 shell pairs
          la=1 lb=0:    728 shell pairs
          la=1 lb=1:    195 shell pairs
          la=2 lb=0:    344 shell pairs
          la=2 lb=1:    176 shell pairs
          la=2 lb=2:     48 shell pairs
          la=3 lb=0:    171 shell pairs
          la=3 lb=1:     85 shell pairs
          la=3 lb=2:     40 shell pairs
          la=3 lb=3:     12 shell pairs

Calculating one electron integrals          ... done (  0.0 sec)
Calculating RI/J V-Matrix + Cholesky decomp.... done (  0.0 sec)
Calculating Nuclear repulsion               ... done (  0.0 sec) ENN=    176.654058642436 Eh

SHARK setup successfully completed in   0.2 seconds

Maximum memory used throughout the entire GTOINT-calculation: 13.8 MB


           ************************************************************
           *        Program running with 18 parallel MPI-processes    *
           *              working on a common directory               *
           ************************************************************

Diagonalization of the overlap matrix:
Smallest eigenvalue                        ... 8.694e-04
Time for diagonalization                   ...    0.014 sec
[...]
UseSFitting                                  ... on

GRIDX 2
-------
General Integration Accuracy     IntAcc      ... 4.020
Radial Grid Type                 RadialGrid  ... OptM3 with GC (2021)
Angular Grid (max. ang.)         AngularGrid ... 2 (Lebedev-110)
Angular grid pruning method      GridPruning ... 4 (adaptive)
Weight generation scheme         WeightScheme... Becke
Basis function cutoff            BFCut       ... 1.0000e-11
Integration weight cutoff        WCut        ... 1.0000e-14
Angular grids for H and He will be reduced by one unit
Partially contracted basis set               ... on
Rotationally invariant grid construction     ... off

Total number of grid points                  ...    13202
Total number of batches                      ...      212
Average number of points per batch           ...       62
Average number of grid points per atom       ...     1320
UseSFitting                                  ... on

GRIDX 3
-------
General Integration Accuracy     IntAcc      ... 4.338
Radial Grid Type                 RadialGrid  ... OptM3 with GC (2021)
Angular Grid (max. ang.)         AngularGrid ... 3 (Lebedev-194)
Angular grid pruning method      GridPruning ... 4 (adaptive)
Weight generation scheme         WeightScheme... Becke
Basis function cutoff            BFCut       ... 1.0000e-11
Integration weight cutoff        WCut        ... 1.0000e-14
Angular grids for H and He will be reduced by one unit
Partially contracted basis set               ... on
Rotationally invariant grid construction     ... off

Total number of grid points                  ...    29063
Total number of batches                      ...      460
Average number of points per batch           ...       63
Average number of grid points per atom       ...     2906
UseSFitting                                  ... on

Time for X-Grid setup             =    0.239 sec


--------------------
CPCM SOLVATION MODEL
--------------------
CPCM parameters:
  Epsilon                                         ...      78.4000
  Refrac                                          ...       1.3300
  Rsolv                                           ...       1.3000
  Surface type                                    ... GAUSSIAN VDW
  Epsilon function type                           ...         CPCM
Radii:
 Radius for C  used is    3.8550 Bohr (=   2.0400 Ang.)
 Radius for H  used is    2.4944 Bohr (=   1.3200 Ang.)
 Radius for N  used is    3.5149 Bohr (=   1.8600 Ang.)
 Radius for O  used is    3.4469 Bohr (=   1.8240 Ang.)
Calculating surface                               ...        done! (  0.0s)
GEPOL surface points                              ...          693
GEPOL Volume                                      ...     683.7990
GEPOL Surface-area                                ...     475.7143
Calculating surface distance matrix               ...        done! (  0.0s)
Performing Cholesky decomposition & store         ...        done! (  0.1s)
Overall time for CPCM initialization              ...                 0.1s
--------------
SCF ITERATIONS
--------------
ITER       Energy         Delta-E        Max-DP      RMS-DP      [F,P]     Damp
               ***  Starting incremental Fock matrix formation  ***
                      *** Initiating the SOSCF procedure ***
                      *** Re-Reading the Fockian *** 
                      *** Removing any level shift *** 
ITER      Energy       Delta-E        Grad      Rot      Max-DP    RMS-DP
  0   -321.44939962 -321.4493996178  0.003144  0.003144  0.002739  0.000099
               *** Restarting incremental Fock matrix formation ***
  1   -321.44972337  -0.0003237562  0.001074  0.002371  0.001446  0.000050
  2   -321.44975832  -0.0000349431  0.000320  0.001400  0.000778  0.000018
  3   -321.44975529   0.0000030296  0.000961  0.001066  0.000549  0.000011
  4   -321.44975970  -0.0000044080  0.000061  0.000076  0.000067  0.000002
  5   -321.44975971  -0.0000000158  0.000045  0.000039  0.000051  0.000001
  6   -321.44975974  -0.0000000302  0.000019  0.000023  0.000021  0.000001
  7   -321.44975975  -0.0000000041  0.000013  0.000013  0.000012  0.000000
  8   -321.44975975   0.0000000003  0.000005  0.000006  0.000007  0.000000
  9   -321.44975975  -0.0000000010  0.000004  0.000004  0.000003  0.000000
                  ***Gradient check signals convergence***
              ***Rediagonalizing the Fockian in SOSCF/NRSCF***

               *****************************************************
               *                     SUCCESS                       *
               *           SCF CONVERGED AFTER  10 CYCLES          *
               *****************************************************

Old exchange energy                            =     -7.622297219 Eh
New exchange energy                            =     -7.622293128 Eh
Exchange energy change after final integration =      0.000004092 Eh
Total energy after final integration           =   -321.449755655 Eh
Final COS-X integration done in                =     0.495 sec
Total Energy       :         -321.44975566 Eh           -8747.09254 eV
  Last Energy change         ...   -4.6555e-10  Tolerance :   1.0000e-08
  Last MAX-Density change    ...    8.3917e-16  Tolerance :   1.0000e-07
             **** THE GBW FILE WAS UPDATED (/home/rudenko/mopac_kie/for_orca/CH3NO2_H2O_near/orca/orca_start/start.gbw) ****
             **** DENSITY /home/rudenko/mopac_kie/for_orca/CH3NO2_H2O_near/orca/orca_start/start.scfp WAS UPDATED ****
             **** ENERGY FILE WAS UPDATED (/home/rudenko/mopac_kie/for_orca/CH3NO2_H2O_near/orca/orca_start/start.en.tmp) ****
             **** THE GBW FILE WAS UPDATED (/home/rudenko/mopac_kie/for_orca/CH3NO2_H2O_near/orca/orca_start/start.gbw) ****
             **** DENSITY /home/rudenko/mopac_kie/for_orca/CH3NO2_H2O_near/orca/orca_start/start.scfp WAS UPDATED ****
Total SCF time: 0 days 0 hours 0 min 7 sec 

Maximum memory used throughout the entire SCF-calculation: 65.2 MB


-------------------------------------------------------------------------------
                          DFT DISPERSION CORRECTION                            
                                                                               
                              DFTD3 V3.1  Rev 1                                
                          USING Becke-Johnson damping                          
-------------------------------------------------------------------------------
-------------------------   ----------------
Dispersion correction           -0.007828535
-------------------------   ----------------


-------------------------   --------------------
FINAL SINGLE POINT ENERGY      -321.457584190075
-------------------------   --------------------



           ************************************************************
           *        Program running with 18 parallel MPI-processes    *
           *              working on a common directory               *
           ************************************************************
------------------------------------------------------------------------------
                         ORCA SCF GRADIENT CALCULATION
------------------------------------------------------------------------------

 ... reading COSX grid (gridx3)
Gradient of the Kohn-Sham DFT energy:
Kohn-Sham wavefunction type      ... RKS
Hartree-Fock exchange scaling    ...    0.200
Number of operators              ...    1
Number of atoms                  ...   10
Basis set dimensions             ...  185
Integral neglect threshold       ... 2.5e-11
Integral primitive cutoff        ... 2.5e-12
SHARK Integral package           ... ON

Nuc. rep. gradient       (SHARK) ... done (  0.0 sec)
HCore & Overlap gradient (SHARK) ... done (  0.0 sec)
RI-J gradient            (SHARK) ... done (  0.2 sec)
COSX-gradient                    ... done (  0.5 sec)
Exchange-correlation gradient    ... done
Dispersion correction            ... done

------------------
CARTESIAN GRADIENT
------------------

   1   C   :   -0.000013051   -0.000041907   -0.000261704
   2   H   :    0.000263960    0.000254599    0.000015695
   3   H   :   -0.000030378   -0.000200859   -0.000096438
   4   H   :   -0.000201016    0.000073189   -0.000060428
   5   N   :   -0.000422983   -0.000032503   -0.000003416
   6   O   :   -0.000014553    0.000000206    0.000141731
   7   O   :    0.000469565   -0.000063116    0.000059076
   8   H   :    0.000020991   -0.000107214    0.000255159
   9   O   :   -0.000085039    0.000318818    0.000217929
  10   H   :    0.000044273   -0.000165740   -0.000354508

Difference to translation invariance:
           :    0.0000317707    0.0000354743   -0.0000869024

Difference to rotation invariance:
           :   -0.0001563824   -0.0013873651    0.0012278973

Norm of the cartesian gradient     ...    0.0010592002
RMS gradient                       ...    0.0001933826
MAX gradient                       ...    0.0004695652

-------
TIMINGS
-------

Total SCF gradient time            ...        1.649 sec

One electron gradient       ....       0.020 sec  (  1.2%)
RI-J Coulomb gradient       ....       0.154 sec  (  9.3%)
COSX gradient               ....       0.547 sec  ( 33.2%)
XC gradient                 ....       0.223 sec  ( 13.5%)
CPCM gradient               ....       0.141 sec  (  8.6%)
   A-Matrix (El+Nuc)        ....       0.041 sec  (  2.5%)
   Potential                ....       0.100 sec  (  6.1%)

Maximum memory used throughout the entire SCFGRAD-calculation: 39.5 MB
------------------------------------------------------------------------------
                         ORCA GEOMETRY RELAXATION STEP
------------------------------------------------------------------------------

Reading the OPT-File                    .... done
Getting information on internals        .... done
Copying old internal coords+grads       .... done
Making the new internal coordinates     .... (new redundants).... done
Validating the new internal coordinates .... (new redundants).... done
Calculating the B-matrix                .... done
Calculating the G,G- and P matrices     .... done
Transforming gradient to internals      .... done
Projecting the internal gradient        .... done
Number of atoms                         ....  10
Number of internal coordinates          ....  48
Current Energy                          ....  -321.457584190 Eh
Current gradient norm                   ....     0.001059200 Eh/bohr
Maximum allowed component of the step   ....  0.300
Current trust radius                    ....  0.300
Resetting Hessian after 50 BFGS Update Steps....
Build internal Hessian                  .... (Almloef) done
Updating Hessian with the last 5 steps  .... done
Forming the augmented Hessian           .... done
Diagonalizing the augmented Hessian     .... done
Last element of RFO vector              ....  0.982969738
Lowest eigenvalues of augmented Hessian:
 -0.000007930  0.000129181  0.000210740  0.000712933  0.005185364
Length of the computed step             ....  0.186951331
The final length of the internal step   ....  0.186951331
Converting the step to cartesian space:
 Initial RMS(Int)=    0.0269841003
Transforming coordinates:
 Iter   0:  RMS(Cart)=    0.0237647465 RMS(Int)=    0.0309204866
 Iter   1:  RMS(Cart)=    0.0008797910 RMS(Int)=    0.0085640672
 Iter   2:  RMS(Cart)=    0.0003062639 RMS(Int)=    0.0030084323
 Iter   3:  RMS(Cart)=    0.0001063684 RMS(Int)=    0.0010451236
 Iter   4:  RMS(Cart)=    0.0000369362 RMS(Int)=    0.0003628619
 Iter   5:  RMS(Cart)=    0.0000128232 RMS(Int)=    0.0001259883
 Iter   6:  RMS(Cart)=    0.0000044524 RMS(Int)=    0.0000437435
 Iter   7:  RMS(Cart)=    0.0000015459 RMS(Int)=    0.0000151879
 Iter   8:  RMS(Cart)=    0.0000005367 RMS(Int)=    0.0000052733
 Iter   9:  RMS(Cart)=    0.0000001864 RMS(Int)=    0.0000018309
 Iter  10:  RMS(Cart)=    0.0000000647 RMS(Int)=    0.0000006357
done
Storing new coordinates                 .... done

                                .--------------------.
          ----------------------|Geometry convergence|-------------------------
          Item                value                   Tolerance       Converged
          ---------------------------------------------------------------------
          Energy change      -0.0000063170            0.0000050000      NO
          RMS gradient        0.0001355537            0.0001000000      NO
          MAX gradient        0.0004286062            0.0003000000      NO
          RMS step            0.0269841003            0.0020000000      NO
          MAX step            0.0730664552            0.0040000000      NO
          ........................................................
          Max(Bonds)      0.0300      Max(Angles)    1.36
          Max(Dihed)        4.19      Max(Improp)    0.00
          ---------------------------------------------------------------------

The optimization has not yet converged - more geometry cycles are needed


    ---------------------------------------------------------------------------
                         Redundant Internal Coordinates
                            (Angstroem and degrees)

        Definition                    Value    dE/dq     Step     New-Value
    ----------------------------------------------------------------------------
     1. B(H   1,C   0)                1.0851 -0.000151 -0.0003    1.0848   
     2. B(H   2,C   0)                1.0886 -0.000132  0.0002    1.0888   
     3. B(H   3,C   0)                1.0831 -0.000089 -0.0000    1.0831   
     4. B(N   4,C   0)                1.4927 -0.000029  0.0002    1.4929   
     5. B(O   5,N   4)                1.2209  0.000176 -0.0002    1.2207   
     6. B(O   6,N   4)                1.2208 -0.000329  0.0000    1.2208   
     7. B(O   8,H   7)                0.9652 -0.000255  0.0001    0.9653   
     8. B(O   8,H   2)                3.2373  0.000006 -0.0256    3.2117   
     9. B(O   8,H   1)                3.2208 -0.000014 -0.0208    3.1999   
    10. B(O   8,C   0)                3.3392  0.000021 -0.0137    3.3255   
    11. B(O   8,H   3)                3.1035 -0.000018  0.0060    3.1095   
    12. B(H   9,H   2)                3.1049  0.000017 -0.0109    3.0940   
    13. B(H   9,H   1)                3.3665 -0.000158  0.0051    3.3716   
    14. B(H   9,C   0)                3.1934  0.000007  0.0098    3.2032   
    15. B(H   9,H   3)                2.7080  0.000092  0.0300    2.7380   
    16. B(H   9,O   8)                0.9650 -0.000376 -0.0001    0.9650   
    17. A(H   3,C   0,O   8)           68.15 -0.000021    1.00     69.16   
    18. A(H   2,C   0,O   8)           75.21 -0.000002   -0.67     74.54   
    19. A(N   4,C   0,O   8)          176.38 -0.000204    0.96    177.34   
    20. A(H   1,C   0,H   2)          110.06 -0.000131    0.06    110.12   
    21. A(H   3,C   0,N   4)          108.24 -0.000183   -0.03    108.20   
    22. A(H   2,C   0,H   3)          111.35  0.000036   -0.10    111.25   
    23. A(H   1,C   0,H   3)          112.71  0.000052    0.03    112.74   
    24. A(H   1,C   0,N   4)          107.79  0.000135    0.11    107.90   
    25. A(H   2,C   0,N   4)          106.41  0.000096   -0.06    106.35   
    26. A(H   1,C   0,O   8)           74.35 -0.000012   -0.41     73.94   
    27. A(C   0,N   4,O   5)          118.24  0.000105   -0.04    118.20   
    28. A(O   5,N   4,O   6)          124.22  0.000324   -0.01    124.21   
    29. A(C   0,N   4,O   6)          117.52 -0.000429    0.05    117.57   
    30. A(C   0,O   8,H   7)           73.48 -0.000049    0.36     73.84   
    31. A(H   7,O   8,H   9)          104.35 -0.000034   -0.02    104.32   
    32. A(C   0,O   8,H   9)           73.00 -0.000008    1.36     74.36   
    33. D(O   5,N   4,C   0,H   3)     15.97 -0.000026    2.46     18.42   
    34. D(O   6,N   4,C   0,H   1)    -42.97  0.000003    2.47    -40.49   
    35. D(O   5,N   4,C   0,H   1)    138.15  0.000009    2.54    140.69   
    36. D(O   6,N   4,C   0,H   3)   -165.15 -0.000033    2.39   -162.76   
    37. D(O   6,N   4,C   0,H   2)     75.08 -0.000032    2.56     77.64   
    38. D(O   6,N   4,C   0,O   8)   -168.78 -0.000011   -2.17   -170.95   
    39. D(O   5,N   4,C   0,O   8)     12.33 -0.000004   -2.10     10.23   
    40. D(O   5,N   4,C   0,H   2)   -103.81 -0.000025    2.63   -101.18   
    41. D(H   9,O   8,C   0,H   2)     88.72  0.000056   -1.51     87.22   
    42. D(H   9,O   8,C   0,H   1)   -155.02 -0.000086   -0.97   -155.99   
    43. D(H   7,O   8,C   0,N   4)   -139.48 -0.000006    4.19   -135.29   
    44. D(H   7,O   8,C   0,H   3)   -143.20  0.000013   -0.46   -143.66   
    45. D(H   7,O   8,C   0,H   2)    -22.43  0.000069   -0.72    -23.15   
    46. D(H   9,O   8,C   0,H   3)    -32.04 -0.000001   -1.26    -33.29   
    47. D(H   7,O   8,C   0,H   1)     93.83 -0.000072   -0.18     93.65   
    48. D(H   9,O   8,C   0,N   4)    -28.32 -0.000019    3.40    -24.93   
    ----------------------------------------------------------------------------




    ----------------------------------------------------------------------------
                                  WARNING !!!
       The optimization did not converge but reached the maximum number of
       optimization cycles.
       Please check your results very carefully.
    ----------------------------------------------------------------------------



                            ***************************************
                            *     ORCA property calculations      *
                            ***************************************

                                    ---------------------
                                    Active property flags
                                    ---------------------
   (+) Dipole Moment


------------------------------------------------------------------------------
                       ORCA ELECTRIC PROPERTIES CALCULATION
------------------------------------------------------------------------------

Dipole Moment Calculation                       ... on
Quadrupole Moment Calculation                   ... off
Polarizability Calculation                      ... off
GBWName                                         ... /home/rudenko/mopac_kie/for_orca/CH3NO2_H2O_near/orca/orca_start/start.gbw
Electron density file                           ... /home/rudenko/mopac_kie/for_orca/CH3NO2_H2O_near/orca/orca_start/start.scfp
The origin for moment calculation is the CENTER OF MASS  = ( 0.400473, -1.447110  0.819092)

-------------
DIPOLE MOMENT
-------------
                                X             Y             Z
Electronic contribution:     -6.86190       1.29712      -0.43124
Nuclear contribution   :      8.24995      -0.73083      -0.00950
                        -----------------------------------------
Total Dipole Moment    :      1.38805       0.56629      -0.44074
                        -----------------------------------------
Magnitude (a.u.)       :      1.56257
Magnitude (Debye)      :      3.97173



--------------------
Rotational spectrum 
--------------------
 
Rotational constants in cm-1:     0.399533     0.047251     0.042721 
Rotational constants in MHz : 11977.687823  1416.549285  1280.738763 

 Dipole components along the rotational axes: 
x,y,z [a.u.] :     1.248929     0.221895     0.912444 
x,y,z [Debye]:     3.174526     0.564013     2.319247 

 

Timings for individual modules:

Sum of individual times         ...      500.569 sec (=   8.343 min)
GTO integral calculation        ...       31.911 sec (=   0.532 min)   6.4 %
SCF iterations                  ...      358.207 sec (=   5.970 min)  71.6 %
SCF Gradient evaluation         ...      109.259 sec (=   1.821 min)  21.8 %
Geometry relaxation             ...        1.193 sec (=   0.020 min)   0.2 %
                             ****ORCA TERMINATED NORMALLY****
TOTAL RUN TIME: 0 days 0 hours 8 minutes 46 seconds 629 msec
