
                                 *****************
                                 * O   R   C   A *
                                 *****************

                                            #,                                       
                                            ###                                      
                                            ####                                     
                                            #####                                    
                                            ######                                   
                                           ########,                                 
                                     ,,################,,,,,                         
                               ,,#################################,,                 
                          ,,##########################################,,             
                       ,#########################################, ''#####,          
                    ,#############################################,,   '####,        
                  ,##################################################,,,,####,       
                ,###########''''           ''''###############################       
              ,#####''   ,,,,##########,,,,          '''####'''          '####       
            ,##' ,,,,###########################,,,                        '##       
           ' ,,###''''                  '''############,,,                           
         ,,##''                                '''############,,,,        ,,,,,,###''
      ,#''                                            '''#######################'''  
     '                                                          ''''####''''         
             ,#######,   #######,   ,#######,      ##                                
            ,#'     '#,  ##    ##  ,#'     '#,    #''#        ######   ,####,        
            ##       ##  ##   ,#'  ##            #'  '#       #        #'  '#        
            ##       ##  #######   ##           ,######,      #####,   #    #        
            '#,     ,#'  ##    ##  '#,     ,#' ,#      #,         ##   #,  ,#        
             '#######'   ##     ##  '#######'  #'      '#     #####' # '####'        



                  #######################################################
                  #                        -***-                        #
                  #          Department of theory and spectroscopy      #
                  #    Directorship and core code : Frank Neese         #
                  #        Max Planck Institute fuer Kohlenforschung    #
                  #                Kaiser Wilhelm Platz 1               #
                  #                 D-45470 Muelheim/Ruhr               #
                  #                      Germany                        #
                  #                                                     #
                  #                  All rights reserved                #
                  #                        -***-                        #
                  #######################################################


                         Program Version 5.0.4 -  RELEASE  -


 With contributions from (in alphabetic order):
   Daniel Aravena         : Magnetic Suceptibility
   Michael Atanasov       : Ab Initio Ligand Field Theory (pilot matlab implementation)
   Alexander A. Auer      : GIAO ZORA, VPT2 properties, NMR spectrum
   Ute Becker             : Parallelization
   Giovanni Bistoni       : ED, misc. LED, open-shell LED, HFLD
   Martin Brehm           : Molecular dynamics
   Dmytro Bykov           : SCF Hessian
   Vijay G. Chilkuri      : MRCI spin determinant printing, contributions to CSF-ICE
   Dipayan Datta          : RHF DLPNO-CCSD density
   Achintya Kumar Dutta   : EOM-CC, STEOM-CC
   Dmitry Ganyushin       : Spin-Orbit,Spin-Spin,Magnetic field MRCI
   Miquel Garcia          : C-PCM and meta-GGA Hessian, CC/C-PCM, Gaussian charge scheme
   Yang Guo               : DLPNO-NEVPT2, F12-NEVPT2, CIM, IAO-localization
   Andreas Hansen         : Spin unrestricted coupled pair/coupled cluster methods
   Benjamin Helmich-Paris : MC-RPA, TRAH-SCF, COSX integrals
   Lee Huntington         : MR-EOM, pCC
   Robert Izsak           : Overlap fitted RIJCOSX, COSX-SCS-MP3, EOM
   Marcus Kettner         : VPT2
   Christian Kollmar      : KDIIS, OOCD, Brueckner-CCSD(T), CCSD density, CASPT2, CASPT2-K
   Simone Kossmann        : Meta GGA functionals, TD-DFT gradient, OOMP2, MP2 Hessian
   Martin Krupicka        : Initial AUTO-CI
   Lucas Lang             : DCDCAS
   Marvin Lechner         : AUTO-CI (C++ implementation), FIC-MRCC
   Dagmar Lenk            : GEPOL surface, SMD
   Dimitrios Liakos       : Extrapolation schemes; Compound Job, initial MDCI parallelization
   Dimitrios Manganas     : Further ROCIS development; embedding schemes
   Dimitrios Pantazis     : SARC Basis sets
   Anastasios Papadopoulos: AUTO-CI, single reference methods and gradients
   Taras Petrenko         : DFT Hessian,TD-DFT gradient, ASA, ECA, R-Raman, ABS, FL, XAS/XES, NRVS
   Peter Pinski           : DLPNO-MP2, DLPNO-MP2 Gradient
   Christoph Reimann      : Effective Core Potentials
   Marius Retegan         : Local ZFS, SOC
   Christoph Riplinger    : Optimizer, TS searches, QM/MM, DLPNO-CCSD(T), (RO)-DLPNO pert. Triples
   Tobias Risthaus        : Range-separated hybrids, TD-DFT gradient, RPA, STAB
   Michael Roemelt        : Original ROCIS implementation
   Masaaki Saitow         : Open-shell DLPNO-CCSD energy and density
   Barbara Sandhoefer     : DKH picture change effects
   Avijit Sen             : IP-ROCIS
   Kantharuban Sivalingam : CASSCF convergence, NEVPT2, FIC-MRCI
   Bernardo de Souza      : ESD, SOC TD-DFT
   Georgi Stoychev        : AutoAux, RI-MP2 NMR, DLPNO-MP2 response
   Willem Van den Heuvel  : Paramagnetic NMR
   Boris Wezisla          : Elementary symmetry handling
   Frank Wennmohs         : Technical directorship


 We gratefully acknowledge several colleagues who have allowed us to
 interface, adapt or use parts of their codes:
   Stefan Grimme, W. Hujo, H. Kruse, P. Pracht,  : VdW corrections, initial TS optimization,
                  C. Bannwarth, S. Ehlert          DFT functionals, gCP, sTDA/sTD-DF
   Ed Valeev, F. Pavosevic, A. Kumar             : LibInt (2-el integral package), F12 methods
   Garnet Chan, S. Sharma, J. Yang, R. Olivares  : DMRG
   Ulf Ekstrom                                   : XCFun DFT Library
   Mihaly Kallay                                 : mrcc  (arbitrary order and MRCC methods)
   Jiri Pittner, Ondrej Demel                    : Mk-CCSD
   Frank Weinhold                                : gennbo (NPA and NBO analysis)
   Christopher J. Cramer and Donald G. Truhlar   : smd solvation model
   Lars Goerigk                                  : TD-DFT with DH, B97 family of functionals
   V. Asgeirsson, H. Jonsson                     : NEB implementation
   FAccTs GmbH                                   : IRC, NEB, NEB-TS, DLPNO-Multilevel, CI-OPT
                                                   MM, QMMM, 2- and 3-layer-ONIOM, Crystal-QMMM,
                                                   LR-CPCM, SF, NACMEs, symmetry and pop. for TD-DFT,
                                                   nearIR, NL-DFT gradient (VV10), updates on ESD,
                                                   ML-optimized integration grids
   S Lehtola, MJT Oliveira, MAL Marques          : LibXC Library
   Liviu Ungur et al                             : ANISO software


 Your calculation uses the libint2 library for the computation of 2-el integrals
 For citations please refer to: http://libint.valeyev.net

 Your ORCA version has been built with support for libXC version: 5.1.0
 For citations please refer to: https://tddft.org/programs/libxc/

 This ORCA versions uses:
   CBLAS   interface :  Fast vector & matrix operations
   LAPACKE interface :  Fast linear algebra routines
   SCALAPACK package :  Parallel linear algebra routines
   Shared memory     :  Shared parallel matrices
   BLAS/LAPACK       :  OpenBLAS 0.3.15  USE64BITINT DYNAMIC_ARCH NO_AFFINITY Prescott SINGLE_THREADED
        Core in use  :  Prescott
   Copyright (c) 2011-2014, The OpenBLAS Project


Your calculation utilizes the atom-pairwise dispersion correction
with the Becke-Johnson damping scheme (D3BJ)
Cite in your paper:
S.Grimme, S.Ehrlich, L.Goerigk, J Comput Chem, (2011), 32, 1456–1465 
S.Grimme, J.Antony, S.Ehrlich and H.Krieg, J.Chem.Phys., 132, (2010), 154104 
   

================================================================================

----- Orbital basis set information -----
Your calculation utilizes the basis: def2-TZVP
   F. Weigend and R. Ahlrichs, Phys. Chem. Chem. Phys. 7, 3297 (2005).

----- AuxJ basis set information -----
Your calculation utilizes the auxiliary basis: def2/J
   F. Weigend, Phys. Chem. Chem. Phys. 8, 1057 (2006).

================================================================================
                                        WARNINGS
                       Please study these warnings very carefully!
================================================================================

WARNING: Gradients needed for Numerical Frequencies
  ===> : Setting RunTyp to EnGrad

WARNING: your system is open-shell and RHF/RKS was chosen
  ===> : WILL SWITCH to UHF/UKS


INFO   : the flag for use of the SHARK integral package has been found!

================================================================================
                                       INPUT FILE
================================================================================
NAME = /home/rudenko/mop_saddle_orca_4_serv/for_orca/m-o2nc6h4chno2ch3_piperazine/orca/freq_D/f_D.inp
|  1> !  NUMFREQ B3LYP def2-TZVP CPCM D3 
|  2> %pal nprocs 102 end
|  3> %cpcm epsilon 78.4 end 
|  4> *xyz 0 2 
|  5> C   -4.20063760725521 -0.67618175063928 -1.23041092714541
|  6> C   -2.87374634838059 -0.59698243468463 -0.82821519569254
|  7> C   -1.89706436897629 -1.45420729425171 -1.35241823015704
|  8> C   -2.29726014129322 -2.40277108332832 -2.2951458837643
|  9> C   -3.62854728412004 -2.4655401431601 -2.68613387570566
| 10> C   -4.59759633508169 -1.61625555839151 -2.17046855080831
| 11> H   -4.93634832471524 -0.01017541759151 -0.79831225121648
| 12> H   -2.59129933648387 0.11788641542789 -0.06997346673563
| 13> H   -1.58144983284326 -3.08626507310877 -2.72528105052171
| 14> H   -5.62483521784131 -1.69689017243532 -2.48991504295863
| 15> N   -4.02286528010206 -3.46119760375324 -3.68227964966047
| 16> O   -5.20842031773568 -3.55893783207627 -3.97205311058278
| 17> O   -3.14168214852335 -4.13589429955958 -4.21515579736755
| 18> C   -0.4934875056207 -1.44479905345151 -0.89734611969916
| 19> C   0.13679776343161 -2.71077404532681 -0.40343385013523
| 20> H   0.88476593009737 -2.49874078945566 0.36252292265168
| 21> H   0.63687005643165 -3.27940366829008 -1.19761921362504
| 22> H   -0.63444349949321 -3.34841166464151 0.0310039451697
| 23> N   0.27418406720427 -0.38600311456702 -1.14818054041448
| 24> O   1.54021418529308 -0.42861225066959 -0.90518173376888
| 25> O   -0.21918022342339 0.70061833932514 -1.63410264011033
| 26> H   -0.38498908151678 -0.40347043880246 1.07586865230748 M = 2
| 27> C   2.98526053492422 3.88130256679029 2.37652377963655
| 28> N   4.14719020915112 3.14820889682339 2.20799188455561
| 29> C   4.1141011693289 2.05724792384889 1.23429426281469
| 30> C   2.88272374247007 1.19891387331274 1.43711765413869
| 31> N   1.65323917967587 2.05794021006353 1.42410030657864
| 32> C   1.71686969040653 3.11783170201025 2.49117228429039
| 33> H   3.07008119007191 4.82070369644904 2.90706686378177
| 34> H   4.99268625930314 3.69924408484264 2.17171419664194
| 35> H   4.99961098260643 1.43424834640998 1.36106054130127
| 36> H   4.11608839905985 2.44764951731581 0.20710630747768
| 37> H   2.75781440425474 0.46709059761234 0.64019194942042
| 38> H   2.89787987047611 0.69893083069645 2.40604968458973
| 39> H   1.54881665316967 2.49633199564508 0.50521199217521
| 40> H   0.84756338579689 3.76489425834084 2.38089680674387
| 41> H   1.62554870333611 2.57034178042919 3.44035728774352
| 42> H   -0.01258698559578 -0.55581369017645 2.56496764263343
| 43> H   0.82554585263222 1.44680906088491 1.56600525226751
| 44> O   -0.30741239012007 0.09113328213295 1.91040291314987
| 45> *
| 46> 
| 47>                          ****END OF INPUT****
================================================================================

                     *******************************
                     * Energy+Gradient Calculation *
                     *******************************

---------------------------------
CARTESIAN COORDINATES (ANGSTROEM)
---------------------------------
  C     -4.200638   -0.676182   -1.230411
  C     -2.873746   -0.596982   -0.828215
  C     -1.897064   -1.454207   -1.352418
  C     -2.297260   -2.402771   -2.295146
  C     -3.628547   -2.465540   -2.686134
  C     -4.597596   -1.616256   -2.170469
  H     -4.936348   -0.010175   -0.798312
  H     -2.591299    0.117886   -0.069973
  H     -1.581450   -3.086265   -2.725281
  H     -5.624835   -1.696890   -2.489915
  N     -4.022865   -3.461198   -3.682280
  O     -5.208420   -3.558938   -3.972053
  O     -3.141682   -4.135894   -4.215156
  C     -0.493488   -1.444799   -0.897346
  C      0.136798   -2.710774   -0.403434
  H      0.884766   -2.498741    0.362523
  H      0.636870   -3.279404   -1.197619
  H     -0.634443   -3.348412    0.031004
  N      0.274184   -0.386003   -1.148181
  O      1.540214   -0.428612   -0.905182
  O     -0.219180    0.700618   -1.634103
  H     -0.384989   -0.403470    1.075869
  C      2.985261    3.881303    2.376524
  N      4.147190    3.148209    2.207992
  C      4.114101    2.057248    1.234294
  C      2.882724    1.198914    1.437118
  N      1.653239    2.057940    1.424100
  C      1.716870    3.117832    2.491172
  H      3.070081    4.820704    2.907067
  H      4.992686    3.699244    2.171714
  H      4.999611    1.434248    1.361061
  H      4.116088    2.447650    0.207106
  H      2.757814    0.467091    0.640192
  H      2.897880    0.698931    2.406050
  H      1.548817    2.496332    0.505212
  H      0.847563    3.764894    2.380897
  H      1.625549    2.570342    3.440357
  H     -0.012587   -0.555814    2.564968
  H      0.825546    1.446809    1.566005
  O     -0.307412    0.091133    1.910403

----------------------------
CARTESIAN COORDINATES (A.U.)
----------------------------
  NO LB      ZA    FRAG     MASS         X           Y           Z
   0 C     6.0000    0    12.011   -7.938055   -1.277798   -2.325140
   1 C     6.0000    0    12.011   -5.430594   -1.128133   -1.565100
   2 C     6.0000    0    12.011   -3.584932   -2.748054   -2.555700
   3 C     6.0000    0    12.011   -4.341193   -4.540579   -4.337197
   4 C     6.0000    0    12.011   -6.856961   -4.659196   -5.076057
   5 C     6.0000    0    12.011   -8.688198   -3.054280   -4.101591
   6 H     1.0000    0     1.008   -9.328346   -0.019229   -1.508592
   7 H     1.0000    0     1.008   -4.896846    0.222773   -0.132231
   8 H     1.0000    0     1.008   -2.988507   -5.832196   -5.150035
   9 H     1.0000    0     1.008  -10.629398   -3.206658   -4.705258
  10 N     7.0000    0    14.007   -7.602114   -6.540716   -6.958500
  11 O     8.0000    0    15.999   -9.842488   -6.725418   -7.506093
  12 O     8.0000    0    15.999   -5.936919   -7.815708   -7.965490
  13 C     6.0000    0    12.011   -0.932556   -2.730275   -1.695738
  14 C     6.0000    0    12.011    0.258510   -5.122621   -0.762379
  15 H     1.0000    0     1.008    1.671965   -4.721936    0.685069
  16 H     1.0000    0     1.008    1.203510   -6.197175   -2.263172
  17 H     1.0000    0     1.008   -1.198924   -6.327581    0.058589
  18 N     7.0000    0    14.007    0.518133   -0.729440   -2.169747
  19 O     8.0000    0    15.999    2.910583   -0.809960   -1.710546
  20 O     8.0000    0    15.999   -0.414191    1.323977   -3.088006
  21 H     1.0000    0     2.000   -0.727524   -0.762449    2.033097
  22 C     6.0000    0    12.011    5.641325    7.334599    4.490979
  23 N     7.0000    0    14.007    7.837054    5.949253    4.172500
  24 C     6.0000    0    12.011    7.774524    3.887635    2.332478
  25 C     6.0000    0    12.011    5.447558    2.265619    2.715759
  26 N     7.0000    0    14.007    3.124169    3.888943    2.691160
  27 C     6.0000    0    12.011    3.244414    5.891848    4.707633
  28 H     1.0000    0     1.008    5.801613    9.109810    5.493560
  29 H     1.0000    0     1.008    9.434810    6.990558    4.103945
  30 H     1.0000    0     1.008    9.447896    2.710337    2.572032
  31 H     1.0000    0     1.008    7.778280    4.625387    0.391374
  32 H     1.0000    0     1.008    5.211514    0.882673    1.209787
  33 H     1.0000    0     1.008    5.476199    1.320788    4.546775
  34 H     1.0000    0     1.008    2.926839    4.717384    0.954712
  35 H     1.0000    0     1.008    1.601663    7.114619    4.499243
  36 H     1.0000    0     1.008    3.071842    4.857242    6.501333
  37 H     1.0000    0     1.008   -0.023786   -1.050336    4.847086
  38 H     1.0000    0     1.008    1.560056    2.734073    2.959321
  39 O     8.0000    0    15.999   -0.580925    0.172217    3.610138

--------------------------------
INTERNAL COORDINATES (ANGSTROEM)
--------------------------------
 C      0   0   0     0.000000000000     0.00000000     0.00000000
 C      1   0   0     1.388767205447     0.00000000     0.00000000
 C      2   1   0     1.401260493304   121.51491391     0.00000000
 C      3   2   1     1.395946040148   117.93776093   359.76098615
 C      4   3   2     1.388933771413   119.70945528     0.31647186
 C      1   2   3     1.387452100588   120.54529437     0.04498677
 H      1   2   3     1.082378843652   119.91581680   179.14760186
 H      2   1   3     1.079696395716   119.41188879   182.10851592
 H      4   3   2     1.079149986531   120.62367962   180.14687877
 H      6   1   2     1.078780665651   121.58169739   179.57951365
 N      5   4   3     1.462575421562   118.74477567   179.56986709
 O     11   5   4     1.224362102544   118.46357768   176.26087385
 O     11   5   4     1.231119950089   118.35338414   354.33906132
 C      3   2   1     1.475536225261   122.93828703   183.26304211
 C     14   3   2     1.497965797495   119.77150546   124.91409683
 H     15  14   3     1.091377229797   110.82905203   211.32168282
 H     15  14   3     1.097334196095   113.02004931    90.91824128
 H     15  14   3     1.090931261443   109.13611424   330.84642630
 N     14   3   2     1.331647997985   119.69246472   292.88056186
 O     19  14   3     1.289843486016   120.27075780   188.57515080
 O     19  14   3     1.288516509129   121.38748315     8.65167383
 H     14   3   2     2.233766713018   108.76050624    17.79196107
 C     22  14   3     5.604423783657   126.20123448   233.12254320
 N     23  22  14     1.384163970220    94.10750825   296.25002297
 C     24  23  22     1.462661200584   117.20016008    29.63528766
 C     25  24  23     1.514650137080   110.60520463   312.22482901
 N     26  25  24     1.499909326832   109.91879253    53.55752542
 C     23  22  14     1.484872848241    27.26951613   147.55248813
 H     23  22  14     1.082194525064   145.54426293   140.94550388
 H     24  23  22     1.009861089407   114.72077026   166.87585270
 H     25  24  23     1.090103569511   109.29794906   192.55777366
 H     25  24  23     1.098877813432   110.93098154    73.48642718
 H     26  25  24     1.089154823003   112.08768138   171.82431018
 H     26  25  24     1.090432038576   111.56301660   295.82266919
 H     27  26  25     1.023448658241   109.67895838    63.51868334
 H     28  23  22     1.089286043235   111.62058650   229.21161577
 H     28  23  22     1.099562143625   113.17911973   106.49383521
 H     22  14   3     1.542500434449   144.93102685   118.97304647
 H     27  26  25     1.038602204282   108.36473998   180.07359426
 O     38  22  14     0.966394013442    37.47216821   175.57845637

---------------------------
INTERNAL COORDINATES (A.U.)
---------------------------
 C      0   0   0     0.000000000000     0.00000000     0.00000000
 C      1   0   0     2.624389682066     0.00000000     0.00000000
 C      2   1   0     2.647998574628   121.51491391     0.00000000
 C      3   2   1     2.637955713611   117.93776093   359.76098615
 C      4   3   2     2.624704446124   119.70945528     0.31647186
 C      1   2   3     2.621904494045   120.54529437     0.04498677
 H      1   2   3     2.045399587652   119.91581680   179.14760186
 H      2   1   3     2.040330495685   119.41188879   182.10851592
 H      4   3   2     2.039297931969   120.62367962   180.14687877
 H      6   1   2     2.038600016650   121.58169739   179.57951365
 N      5   4   3     2.763866996957   118.74477567   179.56986709
 O     11   5   4     2.313709062560   118.46357768   176.26087385
 O     11   5   4     2.326479543674   118.35338414   354.33906132
 C      3   2   1     2.788359366424   122.93828703   183.26304211
 C     14   3   2     2.830745115246   119.77150546   124.91409683
 H     15  14   3     2.062404073113   110.82905203   211.32168282
 H     15  14   3     2.073661108006   113.02004931    90.91824128
 H     15  14   3     2.061561315060   109.13611424   330.84642630
 N     14   3   2     2.516450022976   119.69246472   292.88056186
 O     19  14   3     2.437450944193   120.27075780   188.57515080
 O     19  14   3     2.434943321290   121.38748315     8.65167383
 H     14   3   2     4.221207334673   108.76050624    17.79196107
 C     22  14   3    10.590826089547   126.20123448   233.12254320
 N     23  22  14     2.615690828156    94.10750825   296.25002297
 C     24  23  22     2.764029095816   117.20016008    29.63528766
 C     25  24  23     2.862273947787   110.60520463   312.22482901
 N     26  25  24     2.834417853427   109.91879253    53.55752542
 C     23  22  14     2.806003026871    27.26951613   147.55248813
 H     23  22  14     2.045051276000   145.54426293   140.94550388
 H     24  23  22     1.908360892283   114.72077026   166.87585270
 H     25  24  23     2.059997203986   109.29794906   192.55777366
 H     25  24  23     2.076578122029   110.93098154    73.48642718
 H     26  25  24     2.058204332915   112.08768138   171.82431018
 H     26  25  24     2.060617920563   111.56301660   295.82266919
 H     27  26  25     1.934037676204   109.67895838    63.51868334
 H     28  23  22     2.058452303217   111.62058650   229.21161577
 H     28  23  22     2.077871318678   113.17911973   106.49383521
 H     22  14   3     2.914903382563   144.93102685   118.97304647
 H     27  26  25     1.962673728180   108.36473998   180.07359426
 O     38  22  14     1.826220022867    37.47216821   175.57845637

---------------------
BASIS SET INFORMATION
---------------------
There are 4 groups of distinct atoms

 Group   1 Type C   : 11s6p2d1f contracted to 5s3p2d1f pattern {62111/411/11/1}
 Group   2 Type H   : 5s1p contracted to 3s1p pattern {311/1}
 Group   3 Type N   : 11s6p2d1f contracted to 5s3p2d1f pattern {62111/411/11/1}
 Group   4 Type O   : 11s6p2d1f contracted to 5s3p2d1f pattern {62111/411/11/1}

Atom   0C    basis set group =>   1
Atom   1C    basis set group =>   1
Atom   2C    basis set group =>   1
Atom   3C    basis set group =>   1
Atom   4C    basis set group =>   1
Atom   5C    basis set group =>   1
Atom   6H    basis set group =>   2
Atom   7H    basis set group =>   2
Atom   8H    basis set group =>   2
Atom   9H    basis set group =>   2
Atom  10N    basis set group =>   3
Atom  11O    basis set group =>   4
Atom  12O    basis set group =>   4
Atom  13C    basis set group =>   1
Atom  14C    basis set group =>   1
Atom  15H    basis set group =>   2
Atom  16H    basis set group =>   2
Atom  17H    basis set group =>   2
Atom  18N    basis set group =>   3
Atom  19O    basis set group =>   4
Atom  20O    basis set group =>   4
Atom  21H    basis set group =>   2
Atom  22C    basis set group =>   1
Atom  23N    basis set group =>   3
Atom  24C    basis set group =>   1
Atom  25C    basis set group =>   1
Atom  26N    basis set group =>   3
Atom  27C    basis set group =>   1
Atom  28H    basis set group =>   2
Atom  29H    basis set group =>   2
Atom  30H    basis set group =>   2
Atom  31H    basis set group =>   2
Atom  32H    basis set group =>   2
Atom  33H    basis set group =>   2
Atom  34H    basis set group =>   2
Atom  35H    basis set group =>   2
Atom  36H    basis set group =>   2
Atom  37H    basis set group =>   2
Atom  38H    basis set group =>   2
Atom  39O    basis set group =>   4
---------------------------------
AUXILIARY/J BASIS SET INFORMATION
---------------------------------
There are 4 groups of distinct atoms

 Group   1 Type C   : 12s5p4d2f1g contracted to 6s4p3d1f1g pattern {711111/2111/211/2/1}
 Group   2 Type H   : 5s2p1d contracted to 3s1p1d pattern {311/2/1}
 Group   3 Type N   : 12s5p4d2f1g contracted to 6s4p3d1f1g pattern {711111/2111/211/2/1}
 Group   4 Type O   : 12s5p4d2f1g contracted to 6s4p3d1f1g pattern {711111/2111/211/2/1}

Atom   0C    basis set group =>   1
Atom   1C    basis set group =>   1
Atom   2C    basis set group =>   1
Atom   3C    basis set group =>   1
Atom   4C    basis set group =>   1
Atom   5C    basis set group =>   1
Atom   6H    basis set group =>   2
Atom   7H    basis set group =>   2
Atom   8H    basis set group =>   2
Atom   9H    basis set group =>   2
Atom  10N    basis set group =>   3
Atom  11O    basis set group =>   4
Atom  12O    basis set group =>   4
Atom  13C    basis set group =>   1
Atom  14C    basis set group =>   1
Atom  15H    basis set group =>   2
Atom  16H    basis set group =>   2
Atom  17H    basis set group =>   2
Atom  18N    basis set group =>   3
Atom  19O    basis set group =>   4
Atom  20O    basis set group =>   4
Atom  21H    basis set group =>   2
Atom  22C    basis set group =>   1
Atom  23N    basis set group =>   3
Atom  24C    basis set group =>   1
Atom  25C    basis set group =>   1
Atom  26N    basis set group =>   3
Atom  27C    basis set group =>   1
Atom  28H    basis set group =>   2
Atom  29H    basis set group =>   2
Atom  30H    basis set group =>   2
Atom  31H    basis set group =>   2
Atom  32H    basis set group =>   2
Atom  33H    basis set group =>   2
Atom  34H    basis set group =>   2
Atom  35H    basis set group =>   2
Atom  36H    basis set group =>   2
Atom  37H    basis set group =>   2
Atom  38H    basis set group =>   2
Atom  39O    basis set group =>   4


           ************************************************************
           *        Program running with 102 parallel MPI-processes   *
           *              working on a common directory               *
           ************************************************************
------------------------------------------------------------------------------
                           ORCA GTO INTEGRAL CALCULATION
                           -- RI-GTO INTEGRALS CHOSEN --
------------------------------------------------------------------------------
------------------------------------------------------------------------------
                   ___                                                        
                  /   \      - P O W E R E D   B Y -                         
                 /     \                                                     
                 |  |  |   _    _      __       _____    __    __             
                 |  |  |  | |  | |    /  \     |  _  \  |  |  /  |          
                  \  \/   | |  | |   /    \    | | | |  |  | /  /          
                 / \  \   | |__| |  /  /\  \   | |_| |  |  |/  /          
                |  |  |   |  __  | /  /__\  \  |    /   |      \           
                |  |  |   | |  | | |   __   |  |    \   |  |\   \          
                \     /   | |  | | |  |  |  |  | |\  \  |  | \   \       
                 \___/    |_|  |_| |__|  |__|  |_| \__\ |__|  \__/        
                                                                              
                      - O R C A' S   B I G   F R I E N D -                    
                                      &                                       
                       - I N T E G R A L  F E E D E R -                       
                                                                              
 v1 FN, 2020, v2 2021                                                         
------------------------------------------------------------------------------


Reading SHARK input file /home/rudenko/mop_saddle_orca_4_serv/for_orca/m-o2nc6h4chno2ch3_piperazine/orca/freq_D/f_D.SHARKINP.tmp ... ok
----------------------
SHARK INTEGRAL PACKAGE
----------------------

Number of atoms                             ...     40
Number of basis functions                   ...    765
Number of shells                            ...    307
Maximum angular momentum                    ...      3
Integral batch strategy                     ... SHARK/LIBINT Hybrid
RI-J (if used) integral strategy            ... SPLIT-RIJ (Revised 2003 algorithm where possible)
Printlevel                                  ...      1
Contraction scheme used                     ... SEGMENTED contraction
Coulomb Range Separation                    ... NOT USED
Exchange Range Separation                   ... NOT USED
Finite Nucleus Model                        ... NOT USED
Auxiliary Coulomb fitting basis             ... AVAILABLE
   # of basis functions in Aux-J            ...   1238
   # of shells in Aux-J                     ...    410
   Maximum angular momentum in Aux-J        ...      4
Auxiliary J/K fitting basis                 ... NOT available
Auxiliary Correlation fitting basis         ... NOT available
Auxiliary 'external' fitting basis          ... NOT available
Integral threshold                          ...     2.500000e-11
Primitive cut-off                           ...     2.500000e-12
Primitive pair pre-selection threshold      ...     2.500000e-12

Calculating pre-screening integrals         ... done (  0.1 sec) Dimension = 307
Organizing shell pair data                  ... done (  0.8 sec)
Shell pair information
Total number of shell pairs                 ...     47278
Shell pairs after pre-screening             ...     29585
Total number of primitive shell pairs       ...    143364
Primitive shell pairs kept                  ...     59960
          la=0 lb=0:   8197 shell pairs
          la=1 lb=0:   8753 shell pairs
          la=1 lb=1:   2374 shell pairs
          la=2 lb=0:   4035 shell pairs
          la=2 lb=1:   2183 shell pairs
          la=2 lb=2:    513 shell pairs
          la=3 lb=0:   1901 shell pairs
          la=3 lb=1:   1040 shell pairs
          la=3 lb=2:    469 shell pairs
          la=3 lb=3:    120 shell pairs

Calculating one electron integrals          ... done (  0.3 sec)
Calculating RI/J V-Matrix + Cholesky decomp.... done (  0.2 sec)
Calculating Nuclear repulsion               ... done (  0.0 sec) ENN=   1675.841766695130 Eh

SHARK setup successfully completed in   1.9 seconds

Maximum memory used throughout the entire GTOINT-calculation: 46.8 MB


           ************************************************************
           *        Program running with 102 parallel MPI-processes   *
           *              working on a common directory               *
           ************************************************************
-------------------------------------------------------------------------------
                                 ORCA SCF
-------------------------------------------------------------------------------

------------
SCF SETTINGS
------------
Hamiltonian:
 Density Functional     Method          .... DFT(GTOs)
 Exchange Functional    Exchange        .... B88
   X-Alpha parameter    XAlpha          ....  0.666667
   Becke's b parameter  XBeta           ....  0.004200
 Correlation Functional Correlation     .... LYP
 LDA part of GGA corr.  LDAOpt          .... VWN-5
 Gradients option       PostSCFGGA      .... off
 Hybrid DFT is turned on
   Fraction HF Exchange ScalHFX         ....  0.200000
   Scaling of DF-GGA-X  ScalDFX         ....  0.720000
   Scaling of DF-GGA-C  ScalDFC         ....  0.810000
   Scaling of DF-LDA-C  ScalLDAC        ....  1.000000
   Perturbative correction              ....  0.000000
   Density functional embedding theory  .... OFF
   NL short-range parameter             ....  4.800000
 RI-approximation to the Coulomb term is turned on
   Number of AuxJ basis functions       .... 1238
   RIJ-COSX (HFX calculated with COS-X)).... on


General Settings:
 Integral files         IntName         .... /home/rudenko/mop_saddle_orca_4_serv/for_orca/m-o2nc6h4chno2ch3_piperazine/orca/freq_D/f_D
 Hartree-Fock type      HFTyp           .... UHF
 Total Charge           Charge          ....    0
 Multiplicity           Mult            ....    2
 Number of Electrons    NEL             ....  159
 Basis Dimension        Dim             ....  765
 Nuclear Repulsion      ENuc            ....   1675.8417666951 Eh

Convergence Acceleration:
 DIIS                   CNVDIIS         .... on
   Start iteration      DIISMaxIt       ....    12
   Startup error        DIISStart       ....  0.200000
   # of expansion vecs  DIISMaxEq       ....     5
   Bias factor          DIISBfac        ....   1.050
   Max. coefficient     DIISMaxC        ....  10.000
 Trust-Rad. Augm. Hess. CNVTRAH         .... auto
   Auto Start mean grad. ratio tolernc. ....  1.125000
   Auto Start start iteration           ....    20
   Auto Start num. interpolation iter.  ....    10
   Max. Number of Micro iterations      ....    16
   Max. Number of Macro iterations      .... Maxiter - #DIIS iter
   Number of Davidson start vectors     ....     2
   Converg. threshold I  (grad. norm)   ....   1.000e-05
   Converg. threshold II (energy diff.) ....   1.000e-08
   Grad. Scal. Fac. for Micro threshold ....   0.100
   Minimum threshold for Micro iter.    ....   0.010
   NR start threshold (gradient norm)   ....   0.001
   Initial trust radius                 ....   0.400
   Minimum AH scaling param. (alpha)    ....   1.000
   Maximum AH scaling param. (alpha)    .... 1000.000
   Orbital update algorithm             .... Taylor
   White noise on init. David. guess    .... on
   Maximum white noise                  ....   0.010
   Quad. conv. algorithm                .... NR
 SOSCF                  CNVSOSCF        .... off
 Level Shifting         CNVShift        .... on
   Level shift para.    LevelShift      ....    0.2500
   Turn off err/grad.   ShiftErr        ....    0.0010
 Zerner damping         CNVZerner       .... off
 Static damping         CNVDamp         .... on
   Fraction old density DampFac         ....    0.7000
   Max. Damping (<1)    DampMax         ....    0.9800
   Min. Damping (>=0)   DampMin         ....    0.0000
   Turn off err/grad.   DampErr         ....    0.1000
 Fernandez-Rico         CNVRico         .... off

SCF Procedure:
 Maximum # iterations   MaxIter         ....   125
 SCF integral mode      SCFMode         .... Direct
   Integral package                     .... SHARK and LIBINT hybrid scheme
 Reset frequency        DirectResetFreq ....    20
 Integral Threshold     Thresh          ....  2.500e-11 Eh
 Primitive CutOff       TCut            ....  2.500e-12 Eh

Convergence Tolerance:
 Convergence Check Mode ConvCheckMode   .... Total+1el-Energy
 Convergence forced     ConvForced      .... 0
 Energy Change          TolE            ....  1.000e-08 Eh
 1-El. energy change                    ....  1.000e-05 Eh
 DIIS Error             TolErr          ....  5.000e-07


Diagonalization of the overlap matrix:
Smallest eigenvalue                        ... 7.302e-06
Time for diagonalization                   ...    0.416 sec
Threshold for overlap eigenvalues          ... 1.000e-08
Number of eigenvalues below threshold      ... 0
Time for construction of square roots      ...    0.570 sec
Total time needed                          ...    0.991 sec

Time for model grid setup =    0.302 sec

------------------------------
INITIAL GUESS: MODEL POTENTIAL
------------------------------
Loading Hartree-Fock densities                     ... done
Calculating cut-offs                               ... done
Initializing the effective Hamiltonian             ... done
Setting up the integral package (SHARK)            ... done
Starting the Coulomb interaction                   ... done (   0.1 sec)
Reading the grid                                   ... done
Mapping shells                                     ... done
Starting the XC term evaluation                    ... done (   0.1 sec)
  promolecular density results
     # of electrons  =    158.989537201
     EX              =   -134.651592578
     EC              =     -5.470358450
     EX+EC           =   -140.121951028
Transforming the Hamiltonian                       ... done (   0.6 sec)
Diagonalizing the Hamiltonian                      ... done (   0.3 sec)
Back transforming the eigenvectors                 ... done (   0.1 sec)
Now organizing SCF variables                       ... done
                      ------------------
                      INITIAL GUESS DONE (   1.8 sec)
                      ------------------
-------------------
DFT GRID GENERATION
-------------------

General Integration Accuracy     IntAcc      ... 4.388
Radial Grid Type                 RadialGrid  ... OptM3 with GC (2021)
Angular Grid (max. ang.)         AngularGrid ... 4 (Lebedev-302)
Angular grid pruning method      GridPruning ... 4 (adaptive)
Weight generation scheme         WeightScheme... Becke
Basis function cutoff            BFCut       ... 1.0000e-11
Integration weight cutoff        WCut        ... 1.0000e-14
Angular grids for H and He will be reduced by one unit
Partially contracted basis set               ... off
Rotationally invariant grid construction     ... off

Total number of grid points                  ...   186634
Total number of batches                      ...     2937
Average number of points per batch           ...       63
Average number of grid points per atom       ...     4666
Time for grid setup =    1.533 sec

--------------------
COSX GRID GENERATION
--------------------

GRIDX 1
-------
General Integration Accuracy     IntAcc      ... 3.816
Radial Grid Type                 RadialGrid  ... OptM3 with GC (2021)
Angular Grid (max. ang.)         AngularGrid ... 1 (Lebedev-50)
Angular grid pruning method      GridPruning ... 4 (adaptive)
Weight generation scheme         WeightScheme... Becke
Basis function cutoff            BFCut       ... 1.0000e-11
Integration weight cutoff        WCut        ... 1.0000e-14
Angular grids for H and He will be reduced by one unit
Partially contracted basis set               ... on
Rotationally invariant grid construction     ... off

Total number of grid points                  ...    23721
Total number of batches                      ...      391
Average number of points per batch           ...       60
Average number of grid points per atom       ...      593
UseSFitting                                  ... on

GRIDX 2
-------
General Integration Accuracy     IntAcc      ... 4.020
Radial Grid Type                 RadialGrid  ... OptM3 with GC (2021)
Angular Grid (max. ang.)         AngularGrid ... 2 (Lebedev-110)
Angular grid pruning method      GridPruning ... 4 (adaptive)
Weight generation scheme         WeightScheme... Becke
Basis function cutoff            BFCut       ... 1.0000e-11
Integration weight cutoff        WCut        ... 1.0000e-14
Angular grids for H and He will be reduced by one unit
Partially contracted basis set               ... on
Rotationally invariant grid construction     ... off

Total number of grid points                  ...    51293
Total number of batches                      ...      821
Average number of points per batch           ...       62
Average number of grid points per atom       ...     1282
UseSFitting                                  ... on

GRIDX 3
-------
General Integration Accuracy     IntAcc      ... 4.338
Radial Grid Type                 RadialGrid  ... OptM3 with GC (2021)
Angular Grid (max. ang.)         AngularGrid ... 3 (Lebedev-194)
Angular grid pruning method      GridPruning ... 4 (adaptive)
Weight generation scheme         WeightScheme... Becke
Basis function cutoff            BFCut       ... 1.0000e-11
Integration weight cutoff        WCut        ... 1.0000e-14
Angular grids for H and He will be reduced by one unit
Partially contracted basis set               ... on
Rotationally invariant grid construction     ... off

Total number of grid points                  ...   112033
Total number of batches                      ...     1770
Average number of points per batch           ...       63
Average number of grid points per atom       ...     2801
UseSFitting                                  ... on

Time for X-Grid setup             =    3.038 sec


--------------------
CPCM SOLVATION MODEL
--------------------
CPCM parameters:
  Epsilon                                         ...      78.4000
  Refrac                                          ...       1.3300
  Rsolv                                           ...       1.3000
  Surface type                                    ... GAUSSIAN VDW
  Epsilon function type                           ...         CPCM
Radii:
 Radius for C  used is    3.8550 Bohr (=   2.0400 Ang.)
 Radius for H  used is    2.4944 Bohr (=   1.3200 Ang.)
 Radius for N  used is    3.5149 Bohr (=   1.8600 Ang.)
 Radius for O  used is    3.4469 Bohr (=   1.8240 Ang.)
Calculating surface                               ...        done! (  0.0s)
GEPOL surface points                              ...         2212
GEPOL Volume                                      ...    2379.0132
GEPOL Surface-area                                ...    1287.4146
Calculating surface distance matrix               ...        done! (  0.2s)
Performing Cholesky decomposition & store         ...        done! (  0.9s)
Overall time for CPCM initialization              ...                 1.0s
--------------
SCF ITERATIONS
--------------
ITER       Energy         Delta-E        Max-DP      RMS-DP      [F,P]     Damp
               ***  Starting incremental Fock matrix formation  ***
  0  -1062.7834318939   0.000000000000 0.10700043  0.00053557  0.1572064 0.7000
  1  -1063.1076288177  -0.324196923798 0.09538570  0.00044717  0.0622212 0.7000
                               ***Turning on DIIS***
  2  -1063.2233568332  -0.115728015474 0.09794233  0.00066289  0.0201518 0.0000
  3  -1063.4267331895  -0.203376356280 0.09233456  0.00036681  0.0355849 0.0000
  4  -1063.4609147370  -0.034181547566 0.01984662  0.00010774  0.0106935 0.0000
  5  -1063.4638150274  -0.002900290378 0.00889351  0.00004147  0.0019756 0.0000
  6  -1063.4639722152  -0.000157187792 0.00691333  0.00002631  0.0008102 0.0000
               *** Restarting incremental Fock matrix formation ***
                                   *** Resetting DIIS ***
  7  -1063.4639400471   0.000032168095 0.00106562  0.00001124  0.0007586 0.0000
  8  -1063.4639316684   0.000008378709 0.00036416  0.00000327  0.0012246 0.0000
  9  -1063.4639479996  -0.000016331215 0.00045610  0.00000292  0.0003224 0.0000
 10  -1063.4639492622  -0.000001262558 0.00009081  0.00000080  0.0000856 0.0000
 11  -1063.4639493949  -0.000000132720 0.00008599  0.00000077  0.0000967 0.0000
 12  -1063.4639495176  -0.000000122727 0.00004195  0.00000046  0.0000437 0.0000
 13  -1063.4639495377  -0.000000020053 0.00008742  0.00000055  0.0000380 0.0000
 14  -1063.4639495471  -0.000000009489 0.00003343  0.00000035  0.0000109 0.0000
 15  -1063.4639495370   0.000000010180 0.00004289  0.00000052  0.0000060 0.0000
 16  -1063.4639495488  -0.000000011853 0.00003103  0.00000023  0.0000018 0.0000
 17  -1063.4639495638  -0.000000014980 0.00002186  0.00000015  0.0000011 0.0000
 18  -1063.4639495436   0.000000020245 0.00001318  0.00000016  0.0000014 0.0000
                            ***DIIS convergence achieved***

               *****************************************************
               *                     SUCCESS                       *
               *           SCF CONVERGED AFTER  19 CYCLES          *
               *****************************************************

Old exchange energy                            =    -27.283646166 Eh
New exchange energy                            =    -27.283658425 Eh
Exchange energy change after final integration =     -0.000012259 Eh
Total energy after final integration           =  -1063.463961792 Eh
Final COS-X integration done in                =     4.772 sec

----------------
TOTAL SCF ENERGY
----------------

Total Energy       :        -1063.46396179 Eh          -28938.32560 eV

Components:
Nuclear Repulsion  :         1675.84176670 Eh           45601.97283 eV
Electronic Energy  :        -2739.30572849 Eh          -74540.29843 eV
One Electron Energy:        -4780.70748368 Eh         -130089.66426 eV
Two Electron Energy:         2041.40175520 Eh           55549.36583 eV
Max COSX asymmetry :            0.00000049 Eh               0.00001 eV
CPCM Dielectric    :           -0.06790724 Eh              -1.84785 eV

Virial components:
Potential Energy   :        -2122.46336836 Eh          -57755.16447 eV
Kinetic Energy     :         1058.99940656 Eh           28816.83887 eV
Virial Ratio       :            2.00421582


DFT components:
N(Alpha)           :       80.000065527054 electrons
N(Beta)            :       79.000043043443 electrons
N(Total)           :      159.000108570497 electrons
E(X)               :     -108.613875894109 Eh       
E(C)               :       -6.438068403448 Eh       
E(XC)              :     -115.051944297557 Eh       
DFET-embed. en.    :        0.000000000000 Eh       
CPCM Solvation Model Properties:
Surface-charge          :           -0.03171683
Charge-correction       :           -0.00008805 Eh              -0.00240 eV
Free-energy (cav+disp)  :  This term is not implemented in the current solvation scheme

---------------
SCF CONVERGENCE
---------------

  Last Energy change         ...    1.1469e-08  Tolerance :   1.0000e-08
  Last MAX-Density change    ...    0.0000e+00  Tolerance :   1.0000e-07
  Last RMS-Density change    ...    0.0000e+00  Tolerance :   5.0000e-09
  Last DIIS Error            ...    5.4352e-07  Tolerance :   5.0000e-07

             **** THE GBW FILE WAS UPDATED (/home/rudenko/mop_saddle_orca_4_serv/for_orca/m-o2nc6h4chno2ch3_piperazine/orca/freq_D/f_D.gbw) ****
             **** DENSITY /home/rudenko/mop_saddle_orca_4_serv/for_orca/m-o2nc6h4chno2ch3_piperazine/orca/freq_D/f_D.scfp WAS UPDATED ****
             **** ENERGY FILE WAS UPDATED (/home/rudenko/mop_saddle_orca_4_serv/for_orca/m-o2nc6h4chno2ch3_piperazine/orca/freq_D/f_D.en.tmp) ****
----------------------
UHF SPIN CONTAMINATION
----------------------

Warning: in a DFT calculation there is little theoretical justification to 
         calculate <S**2> as in Hartree-Fock theory. We will do it anyways
         but you should keep in mind that the values have only limited relevance

Expectation value of <S**2>     :     0.753738
Ideal value S*(S+1) for S=0.5   :     0.750000
Deviation                       :     0.003738

             **** THE GBW FILE WAS UPDATED (/home/rudenko/mop_saddle_orca_4_serv/for_orca/m-o2nc6h4chno2ch3_piperazine/orca/freq_D/f_D.gbw) ****
             **** DENSITY /home/rudenko/mop_saddle_orca_4_serv/for_orca/m-o2nc6h4chno2ch3_piperazine/orca/freq_D/f_D.scfp WAS UPDATED ****
----------------
ORBITAL ENERGIES
----------------
                 SPIN UP ORBITALS
  NO   OCC          E(Eh)            E(eV) 
   0   1.0000     -19.167140      -521.5644 
   1   1.0000     -19.165619      -521.5230 
   2   1.0000     -19.139174      -520.8034 
   3   1.0000     -19.085117      -519.3324 
   4   1.0000     -19.081952      -519.2463 
   5   1.0000     -14.559311      -396.1790 
   6   1.0000     -14.475472      -393.8976 
   7   1.0000     -14.411722      -392.1629 
   8   1.0000     -14.336994      -390.1294 
   9   1.0000     -10.234242      -278.4879 
  10   1.0000     -10.224298      -278.2173 
  11   1.0000     -10.216961      -278.0176 
  12   1.0000     -10.209538      -277.8157 
  13   1.0000     -10.198053      -277.5031 
  14   1.0000     -10.196338      -277.4565 
  15   1.0000     -10.193375      -277.3758 
  16   1.0000     -10.192162      -277.3428 
  17   1.0000     -10.187668      -277.2205 
  18   1.0000     -10.187515      -277.2164 
  19   1.0000     -10.185840      -277.1708 
  20   1.0000     -10.159693      -276.4593 
  21   1.0000      -1.237948       -33.6863 
  22   1.0000      -1.132159       -30.8076 
  23   1.0000      -1.062341       -28.9078 
  24   1.0000      -1.022691       -27.8288 
  25   1.0000      -0.998597       -27.1732 
  26   1.0000      -0.955045       -25.9881 
  27   1.0000      -0.931817       -25.3560 
  28   1.0000      -0.890553       -24.2332 
  29   1.0000      -0.831232       -22.6190 
  30   1.0000      -0.798777       -21.7358 
  31   1.0000      -0.787452       -21.4277 
  32   1.0000      -0.758204       -20.6318 
  33   1.0000      -0.721066       -19.6212 
  34   1.0000      -0.703344       -19.1390 
  35   1.0000      -0.694053       -18.8861 
  36   1.0000      -0.663920       -18.0662 
  37   1.0000      -0.631046       -17.1716 
  38   1.0000      -0.606374       -16.5003 
  39   1.0000      -0.602063       -16.3830 
  40   1.0000      -0.573707       -15.6113 
  41   1.0000      -0.564299       -15.3554 
  42   1.0000      -0.545264       -14.8374 
  43   1.0000      -0.543169       -14.7804 
  44   1.0000      -0.540024       -14.6948 
  45   1.0000      -0.529268       -14.4021 
  46   1.0000      -0.519929       -14.1480 
  47   1.0000      -0.503835       -13.7100 
  48   1.0000      -0.491032       -13.3617 
  49   1.0000      -0.486794       -13.2463 
  50   1.0000      -0.482987       -13.1428 
  51   1.0000      -0.480677       -13.0799 
  52   1.0000      -0.474106       -12.9011 
  53   1.0000      -0.468303       -12.7432 
  54   1.0000      -0.457809       -12.4576 
  55   1.0000      -0.445854       -12.1323 
  56   1.0000      -0.444497       -12.0954 
  57   1.0000      -0.417456       -11.3596 
  58   1.0000      -0.413089       -11.2407 
  59   1.0000      -0.407380       -11.0854 
  60   1.0000      -0.393526       -10.7084 
  61   1.0000      -0.390753       -10.6329 
  62   1.0000      -0.389589       -10.6013 
  63   1.0000      -0.385658       -10.4943 
  64   1.0000      -0.376195       -10.2368 
  65   1.0000      -0.375172       -10.2089 
  66   1.0000      -0.367153        -9.9907 
  67   1.0000      -0.354818        -9.6551 
  68   1.0000      -0.331144        -9.0109 
  69   1.0000      -0.328753        -8.9458 
  70   1.0000      -0.327522        -8.9123 
  71   1.0000      -0.316873        -8.6226 
  72   1.0000      -0.307309        -8.3623 
  73   1.0000      -0.281657        -7.6643 
  74   1.0000      -0.276566        -7.5257 
  75   1.0000      -0.271904        -7.3989 
  76   1.0000      -0.259988        -7.0746 
  77   1.0000      -0.233361        -6.3501 
  78   1.0000      -0.193000        -5.2518 
  79   1.0000      -0.160300        -4.3620 
  80   0.0000      -0.101111        -2.7514 
  81   0.0000      -0.031975        -0.8701 
  82   0.0000      -0.004282        -0.1165 
  83   0.0000       0.007122         0.1938 
  84   0.0000       0.027050         0.7361 
  85   0.0000       0.040926         1.1137 
  86   0.0000       0.057120         1.5543 
  87   0.0000       0.060065         1.6345 
  88   0.0000       0.067074         1.8252 
  89   0.0000       0.070787         1.9262 
  90   0.0000       0.076018         2.0686 
  91   0.0000       0.086623         2.3571 
  92   0.0000       0.093061         2.5323 
  93   0.0000       0.101145         2.7523 
  94   0.0000       0.104276         2.8375 
  95   0.0000       0.107660         2.9296 
  96   0.0000       0.113085         3.0772 
  97   0.0000       0.118460         3.2235 
  98   0.0000       0.124983         3.4010 
  99   0.0000       0.125752         3.4219 
 100   0.0000       0.131410         3.5758 
 101   0.0000       0.136418         3.7121 
 102   0.0000       0.138228         3.7614 
 103   0.0000       0.145627         3.9627 
 104   0.0000       0.151477         4.1219 
 105   0.0000       0.158809         4.3214 
 106   0.0000       0.165490         4.5032 
 107   0.0000       0.170239         4.6324 
 108   0.0000       0.172008         4.6806 
 109   0.0000       0.175661         4.7800 
 110   0.0000       0.181384         4.9357 
 111   0.0000       0.185130         5.0377 
 112   0.0000       0.191144         5.2013 
 113   0.0000       0.200348         5.4517 
 114   0.0000       0.207733         5.6527 
 115   0.0000       0.208174         5.6647 
 116   0.0000       0.215669         5.8687 
 117   0.0000       0.220748         6.0069 
 118   0.0000       0.223889         6.0923 
 119   0.0000       0.226815         6.1720 
 120   0.0000       0.229690         6.2502 
 121   0.0000       0.235636         6.4120 
 122   0.0000       0.241676         6.5763 
 123   0.0000       0.247867         6.7448 
 124   0.0000       0.250911         6.8276 
 125   0.0000       0.253575         6.9001 
 126   0.0000       0.254126         6.9151 
 127   0.0000       0.260995         7.1020 
 128   0.0000       0.269928         7.3451 
 129   0.0000       0.271201         7.3798 
 130   0.0000       0.276059         7.5119 
 131   0.0000       0.290332         7.9003 
 132   0.0000       0.297607         8.0983 
 133   0.0000       0.297930         8.1071 
 134   0.0000       0.307827         8.3764 
 135   0.0000       0.308622         8.3980 
 136   0.0000       0.313432         8.5289 
 137   0.0000       0.320855         8.7309 
 138   0.0000       0.326769         8.8918 
 139   0.0000       0.337347         9.1797 
 140   0.0000       0.338889         9.2216 
 141   0.0000       0.351398         9.5620 
 142   0.0000       0.359175         9.7737 
 143   0.0000       0.360109         9.7991 
 144   0.0000       0.363237         9.8842 
 145   0.0000       0.365194         9.9374 
 146   0.0000       0.372561        10.1379 
 147   0.0000       0.373303        10.1581 
 148   0.0000       0.381975        10.3941 
 149   0.0000       0.386338        10.5128 
 150   0.0000       0.389986        10.6121 
 151   0.0000       0.392777        10.6880 
 152   0.0000       0.399341        10.8666 
 153   0.0000       0.404996        11.0205 
 154   0.0000       0.407564        11.0904 
 155   0.0000       0.413806        11.2602 
 156   0.0000       0.416000        11.3199 
 157   0.0000       0.420609        11.4454 
 158   0.0000       0.425170        11.5695 
 159   0.0000       0.429085        11.6760 
 160   0.0000       0.429309        11.6821 
 161   0.0000       0.433072        11.7845 
 162   0.0000       0.441864        12.0237 
 163   0.0000       0.444979        12.1085 
 164   0.0000       0.445429        12.1207 
 165   0.0000       0.446329        12.1452 
 166   0.0000       0.451295        12.2804 
 167   0.0000       0.456703        12.4275 
 168   0.0000       0.460789        12.5387 
 169   0.0000       0.463183        12.6039 
 170   0.0000       0.463761        12.6196 
 171   0.0000       0.467265        12.7149 
 172   0.0000       0.476652        12.9703 
 173   0.0000       0.485254        13.2044 
 174   0.0000       0.486834        13.2474 
 175   0.0000       0.490859        13.3570 
 176   0.0000       0.491346        13.3702 
 177   0.0000       0.497633        13.5413 
 178   0.0000       0.502398        13.6710 
 179   0.0000       0.508315        13.8320 
 180   0.0000       0.512492        13.9456 
 181   0.0000       0.516877        14.0649 
 182   0.0000       0.518512        14.1094 
 183   0.0000       0.527306        14.3487 
 184   0.0000       0.533671        14.5219 
 185   0.0000       0.544446        14.8151 
 186   0.0000       0.547726        14.9044 
 187   0.0000       0.556075        15.1316 
 188   0.0000       0.559247        15.2179 
 189   0.0000       0.563731        15.3399 
 190   0.0000       0.572903        15.5895 
 191   0.0000       0.581740        15.8300 
 192   0.0000       0.585499        15.9322 
 193   0.0000       0.593292        16.1443 
 194   0.0000       0.601060        16.3557 
 195   0.0000       0.604660        16.4536 
 196   0.0000       0.611234        16.6325 
 197   0.0000       0.616222        16.7683 
 198   0.0000       0.626444        17.0464 
 199   0.0000       0.634212        17.2578 
 200   0.0000       0.635673        17.2975 
 201   0.0000       0.639074        17.3901 
 202   0.0000       0.649558        17.6754 
 203   0.0000       0.656977        17.8772 
 204   0.0000       0.665579        18.1113 
 205   0.0000       0.669293        18.2124 
 206   0.0000       0.678430        18.4610 
 207   0.0000       0.688414        18.7327 
 208   0.0000       0.690108        18.7788 
 209   0.0000       0.699855        19.0440 
 210   0.0000       0.708690        19.2844 
 211   0.0000       0.714529        19.4433 
 212   0.0000       0.727377        19.7929 
 213   0.0000       0.729663        19.8551 
 214   0.0000       0.734615        19.9899 
 215   0.0000       0.735940        20.0259 
 216   0.0000       0.741574        20.1793 
 217   0.0000       0.747281        20.3345 
 218   0.0000       0.773483        21.0475 
 219   0.0000       0.778149        21.1745 
 220   0.0000       0.783638        21.3239 
 221   0.0000       0.787408        21.4265 
 222   0.0000       0.794429        21.6175 
 223   0.0000       0.798896        21.7391 
 224   0.0000       0.803445        21.8628 
 225   0.0000       0.806207        21.9380 
 226   0.0000       0.811756        22.0890 
 227   0.0000       0.824207        22.4278 
 228   0.0000       0.833390        22.6777 
 229   0.0000       0.841418        22.8961 
 230   0.0000       0.852510        23.1980 
 231   0.0000       0.859872        23.3983 
 232   0.0000       0.864878        23.5345 
 233   0.0000       0.879986        23.9456 
 234   0.0000       0.882911        24.0252 
 235   0.0000       0.886902        24.1338 
 236   0.0000       0.894893        24.3513 
 237   0.0000       0.906169        24.6581 
 238   0.0000       0.910679        24.7808 
 239   0.0000       0.928473        25.2650 
 240   0.0000       0.936496        25.4833 
 241   0.0000       0.943157        25.6646 
 242   0.0000       0.955541        26.0016 
 243   0.0000       0.962731        26.1973 
 244   0.0000       0.979732        26.6599 
 245   0.0000       0.992905        27.0183 
 246   0.0000       0.996982        27.1293 
 247   0.0000       1.009115        27.4594 
 248   0.0000       1.013805        27.5870 
 249   0.0000       1.023699        27.8563 
 250   0.0000       1.029404        28.0115 
 251   0.0000       1.041045        28.3283 
 252   0.0000       1.044641        28.4261 
 253   0.0000       1.054206        28.6864 
 254   0.0000       1.060730        28.8639 
 255   0.0000       1.075616        29.2690 
 256   0.0000       1.076760        29.3001 
 257   0.0000       1.087303        29.5870 
 258   0.0000       1.097750        29.8713 
 259   0.0000       1.104359        30.0511 
 260   0.0000       1.113461        30.2988 
 261   0.0000       1.118909        30.4471 
 262   0.0000       1.124935        30.6110 
 263   0.0000       1.129912        30.7465 
 264   0.0000       1.139836        31.0165 
 265   0.0000       1.152995        31.3746 
 266   0.0000       1.165696        31.7202 
 267   0.0000       1.174573        31.9617 
 268   0.0000       1.189254        32.3613 
 269   0.0000       1.196376        32.5550 
 270   0.0000       1.205448        32.8019 
 271   0.0000       1.209750        32.9190 
 272   0.0000       1.221518        33.2392 
 273   0.0000       1.232128        33.5279 
 274   0.0000       1.238858        33.7111 
 275   0.0000       1.250435        34.0261 
 276   0.0000       1.259646        34.2767 
 277   0.0000       1.265711        34.4417 
 278   0.0000       1.266882        34.4736 
 279   0.0000       1.281807        34.8798 
 280   0.0000       1.290296        35.1107 
 281   0.0000       1.301888        35.4262 
 282   0.0000       1.310806        35.6689 
 283   0.0000       1.320477        35.9320 
 284   0.0000       1.336732        36.3743 
 285   0.0000       1.350733        36.7553 
 286   0.0000       1.353329        36.8260 
 287   0.0000       1.359566        36.9957 
 288   0.0000       1.366555        37.1859 
 289   0.0000       1.378637        37.5146 
 290   0.0000       1.394450        37.9449 
 291   0.0000       1.403076        38.1796 
 292   0.0000       1.407855        38.3097 
 293   0.0000       1.413418        38.4611 
 294   0.0000       1.423766        38.7426 
 295   0.0000       1.437053        39.1042 
 296   0.0000       1.444590        39.3093 
 297   0.0000       1.457591        39.6631 
 298   0.0000       1.465855        39.8880 
 299   0.0000       1.468454        39.9587 
 300   0.0000       1.475500        40.1504 
 301   0.0000       1.478324        40.2272 
 302   0.0000       1.492394        40.6101 
 303   0.0000       1.495267        40.6883 
 304   0.0000       1.506321        40.9891 
 305   0.0000       1.513443        41.1829 
 306   0.0000       1.522279        41.4233 
 307   0.0000       1.523740        41.4631 
 308   0.0000       1.540122        41.9088 
 309   0.0000       1.542172        41.9646 
 310   0.0000       1.554859        42.3099 
 311   0.0000       1.561874        42.5008 
 312   0.0000       1.572250        42.7831 
 313   0.0000       1.575885        42.8820 
 314   0.0000       1.580253        43.0009 
 315   0.0000       1.591308        43.3017 
 316   0.0000       1.594607        43.3915 
 317   0.0000       1.603035        43.6208 
 318   0.0000       1.611552        43.8525 
 319   0.0000       1.614165        43.9237 
 320   0.0000       1.621441        44.1217 
 321   0.0000       1.629313        44.3359 
 322   0.0000       1.634827        44.4859 
 323   0.0000       1.637982        44.5717 
 324   0.0000       1.645111        44.7658 
 325   0.0000       1.648022        44.8450 
 326   0.0000       1.656049        45.0634 
 327   0.0000       1.671730        45.4901 
 328   0.0000       1.678821        45.6830 
 329   0.0000       1.685090        45.8536 
 330   0.0000       1.687264        45.9128 
 331   0.0000       1.696819        46.1728 
 332   0.0000       1.703287        46.3488 
 333   0.0000       1.711449        46.5709 
 334   0.0000       1.713304        46.6214 
 335   0.0000       1.713877        46.6370 
 336   0.0000       1.722205        46.8636 
 337   0.0000       1.740121        47.3511 
 338   0.0000       1.749707        47.6120 
 339   0.0000       1.752484        47.6875 
 340   0.0000       1.759119        47.8681 
 341   0.0000       1.768679        48.1282 
 342   0.0000       1.783766        48.5388 
 343   0.0000       1.790500        48.7220 
 344   0.0000       1.805714        49.1360 
 345   0.0000       1.807877        49.1948 
 346   0.0000       1.819633        49.5147 
 347   0.0000       1.829535        49.7842 
 348   0.0000       1.833814        49.9006 
 349   0.0000       1.844245        50.1845 
 350   0.0000       1.853353        50.4323 
 351   0.0000       1.862734        50.6876 
 352   0.0000       1.867981        50.8304 
 353   0.0000       1.884409        51.2774 
 354   0.0000       1.889692        51.4211 
 355   0.0000       1.902660        51.7740 
 356   0.0000       1.928392        52.4742 
 357   0.0000       1.931001        52.5452 
 358   0.0000       1.936180        52.6861 
 359   0.0000       1.944346        52.9083 
 360   0.0000       1.951695        53.1083 
 361   0.0000       1.961575        53.3772 
 362   0.0000       1.964859        53.4665 
 363   0.0000       1.975089        53.7449 
 364   0.0000       1.981726        53.9255 
 365   0.0000       1.995452        54.2990 
 366   0.0000       2.008741        54.6606 
 367   0.0000       2.014800        54.8255 
 368   0.0000       2.017985        54.9122 
 369   0.0000       2.021473        55.0071 
 370   0.0000       2.037150        55.4337 
 371   0.0000       2.046803        55.6963 
 372   0.0000       2.048254        55.7358 
 373   0.0000       2.057170        55.9784 
 374   0.0000       2.064492        56.1777 
 375   0.0000       2.075624        56.4806 
 376   0.0000       2.078776        56.5664 
 377   0.0000       2.090979        56.8984 
 378   0.0000       2.091961        56.9251 
 379   0.0000       2.103700        57.2446 
 380   0.0000       2.119043        57.6621 
 381   0.0000       2.122463        57.7551 
 382   0.0000       2.131586        58.0034 
 383   0.0000       2.141477        58.2725 
 384   0.0000       2.147598        58.4391 
 385   0.0000       2.153220        58.5921 
 386   0.0000       2.155826        58.6630 
 387   0.0000       2.169291        59.0294 
 388   0.0000       2.173766        59.1512 
 389   0.0000       2.184874        59.4534 
 390   0.0000       2.191596        59.6364 
 391   0.0000       2.194127        59.7052 
 392   0.0000       2.213888        60.2430 
 393   0.0000       2.222056        60.4652 
 394   0.0000       2.243739        61.0553 
 395   0.0000       2.251582        61.2687 
 396   0.0000       2.263163        61.5838 
 397   0.0000       2.267522        61.7024 
 398   0.0000       2.277994        61.9874 
 399   0.0000       2.285794        62.1996 
 400   0.0000       2.300319        62.5948 
 401   0.0000       2.305217        62.7282 
 402   0.0000       2.325225        63.2726 
 403   0.0000       2.328099        63.3508 
 404   0.0000       2.336671        63.5840 
 405   0.0000       2.341775        63.7229 
 406   0.0000       2.366125        64.3855 
 407   0.0000       2.376877        64.6781 
 408   0.0000       2.393340        65.1261 
 409   0.0000       2.403031        65.3898 
 410   0.0000       2.412005        65.6340 
 411   0.0000       2.418091        65.7996 
 412   0.0000       2.435659        66.2777 
 413   0.0000       2.451315        66.7037 
 414   0.0000       2.462114        66.9975 
 415   0.0000       2.468402        67.1686 
 416   0.0000       2.473070        67.2957 
 417   0.0000       2.474816        67.3432 
 418   0.0000       2.476616        67.3921 
 419   0.0000       2.493157        67.8422 
 420   0.0000       2.501079        68.0578 
 421   0.0000       2.507490        68.2323 
 422   0.0000       2.514500        68.4230 
 423   0.0000       2.522669        68.6453 
 424   0.0000       2.530086        68.8471 
 425   0.0000       2.535760        69.0015 
 426   0.0000       2.558850        69.6299 
 427   0.0000       2.564256        69.7770 
 428   0.0000       2.570836        69.9560 
 429   0.0000       2.572444        69.9998 
 430   0.0000       2.579702        70.1973 
 431   0.0000       2.599804        70.7443 
 432   0.0000       2.602705        70.8232 
 433   0.0000       2.607383        70.9505 
 434   0.0000       2.620467        71.3065 
 435   0.0000       2.620942        71.3195 
 436   0.0000       2.625840        71.4527 
 437   0.0000       2.629608        71.5553 
 438   0.0000       2.635382        71.7124 
 439   0.0000       2.638177        71.7885 
 440   0.0000       2.641034        71.8662 
 441   0.0000       2.658509        72.3417 
 442   0.0000       2.667204        72.5783 
 443   0.0000       2.668766        72.6208 
 444   0.0000       2.671993        72.7086 
 445   0.0000       2.684918        73.0603 
 446   0.0000       2.692324        73.2619 
 447   0.0000       2.696459        73.3744 
 448   0.0000       2.705506        73.6206 
 449   0.0000       2.720625        74.0320 
 450   0.0000       2.723850        74.1197 
 451   0.0000       2.732745        74.3618 
 452   0.0000       2.738238        74.5112 
 453   0.0000       2.744784        74.6894 
 454   0.0000       2.754683        74.9587 
 455   0.0000       2.762119        75.1611 
 456   0.0000       2.764202        75.2178 
 457   0.0000       2.773966        75.4835 
 458   0.0000       2.789003        75.8926 
 459   0.0000       2.795242        76.0624 
 460   0.0000       2.801087        76.2214 
 461   0.0000       2.805101        76.3307 
 462   0.0000       2.810550        76.4789 
 463   0.0000       2.815466        76.6127 
 464   0.0000       2.821659        76.7812 
 465   0.0000       2.827535        76.9412 
 466   0.0000       2.834287        77.1249 
 467   0.0000       2.841041        77.3087 
 468   0.0000       2.856528        77.7301 
 469   0.0000       2.860467        77.8373 
 470   0.0000       2.867140        78.0188 
 471   0.0000       2.887549        78.5742 
 472   0.0000       2.894291        78.7577 
 473   0.0000       2.910248        79.1919 
 474   0.0000       2.914202        79.2995 
 475   0.0000       2.921654        79.5023 
 476   0.0000       2.933578        79.8267 
 477   0.0000       2.942037        80.0569 
 478   0.0000       2.958926        80.5165 
 479   0.0000       2.967960        80.7623 
 480   0.0000       2.971322        80.8538 
 481   0.0000       2.975556        80.9690 
 482   0.0000       2.976851        81.0042 
 483   0.0000       2.989209        81.3405 
 484   0.0000       3.008814        81.8740 
 485   0.0000       3.011580        81.9493 
 486   0.0000       3.016366        82.0795 
 487   0.0000       3.029257        82.4303 
 488   0.0000       3.033718        82.5517 
 489   0.0000       3.043907        82.8289 
 490   0.0000       3.056163        83.1624 
 491   0.0000       3.067321        83.4660 
 492   0.0000       3.078652        83.7744 
 493   0.0000       3.085414        83.9584 
 494   0.0000       3.093049        84.1661 
 495   0.0000       3.102749        84.4301 
 496   0.0000       3.104775        84.4852 
 497   0.0000       3.112997        84.7089 
 498   0.0000       3.114690        84.7550 
 499   0.0000       3.125107        85.0385 
 500   0.0000       3.135053        85.3091 
 501   0.0000       3.144187        85.5577 
 502   0.0000       3.149521        85.7028 
 503   0.0000       3.159083        85.9630 
 504   0.0000       3.171412        86.2985 
 505   0.0000       3.175089        86.3986 
 506   0.0000       3.184983        86.6678 
 507   0.0000       3.188134        86.7535 
 508   0.0000       3.189669        86.7953 
 509   0.0000       3.199084        87.0515 
 510   0.0000       3.200505        87.0902 
 511   0.0000       3.204524        87.1995 
 512   0.0000       3.211676        87.3941 
 513   0.0000       3.214433        87.4692 
 514   0.0000       3.223412        87.7135 
 515   0.0000       3.236712        88.0754 
 516   0.0000       3.250936        88.4625 
 517   0.0000       3.253277        88.5262 
 518   0.0000       3.267828        88.9221 
 519   0.0000       3.270293        88.9892 
 520   0.0000       3.281334        89.2896 
 521   0.0000       3.284697        89.3811 
 522   0.0000       3.293569        89.6226 
 523   0.0000       3.295155        89.6657 
 524   0.0000       3.300300        89.8057 
 525   0.0000       3.312570        90.1396 
 526   0.0000       3.328198        90.5649 
 527   0.0000       3.335100        90.7527 
 528   0.0000       3.336850        90.8003 
 529   0.0000       3.344187        91.0000 
 530   0.0000       3.359371        91.4131 
 531   0.0000       3.370442        91.7144 
 532   0.0000       3.371398        91.7404 
 533   0.0000       3.388906        92.2168 
 534   0.0000       3.393579        92.3440 
 535   0.0000       3.408899        92.7609 
 536   0.0000       3.411108        92.8210 
 537   0.0000       3.417048        92.9826 
 538   0.0000       3.423326        93.1534 
 539   0.0000       3.430439        93.3470 
 540   0.0000       3.437929        93.5508 
 541   0.0000       3.439049        93.5813 
 542   0.0000       3.454341        93.9974 
 543   0.0000       3.462826        94.2283 
 544   0.0000       3.483668        94.7954 
 545   0.0000       3.490608        94.9843 
 546   0.0000       3.499810        95.2347 
 547   0.0000       3.515670        95.6662 
 548   0.0000       3.518279        95.7372 
 549   0.0000       3.530615        96.0729 
 550   0.0000       3.546192        96.4968 
 551   0.0000       3.550214        96.6062 
 552   0.0000       3.577759        97.3558 
 553   0.0000       3.596973        97.8786 
 554   0.0000       3.598795        97.9282 
 555   0.0000       3.608506        98.1924 
 556   0.0000       3.630423        98.7888 
 557   0.0000       3.639257        99.0292 
 558   0.0000       3.645355        99.1952 
 559   0.0000       3.646148        99.2167 
 560   0.0000       3.671644        99.9105 
 561   0.0000       3.675191       100.0070 
 562   0.0000       3.716137       101.1212 
 563   0.0000       3.729579       101.4870 
 564   0.0000       3.741869       101.8214 
 565   0.0000       3.756550       102.2209 
 566   0.0000       3.757699       102.2522 
 567   0.0000       3.777015       102.7778 
 568   0.0000       3.781843       102.9092 
 569   0.0000       3.793461       103.2253 
 570   0.0000       3.799259       103.3831 
 571   0.0000       3.805448       103.5515 
 572   0.0000       3.815627       103.8285 
 573   0.0000       3.841169       104.5235 
 574   0.0000       3.856561       104.9424 
 575   0.0000       3.868130       105.2572 
 576   0.0000       3.874911       105.4417 
 577   0.0000       3.898859       106.0934 
 578   0.0000       3.901271       106.1590 
 579   0.0000       3.923774       106.7713 
 580   0.0000       3.963717       107.8582 
 581   0.0000       3.966113       107.9234 
 582   0.0000       3.969282       108.0097 
 583   0.0000       3.975784       108.1866 
 584   0.0000       3.994860       108.7057 
 585   0.0000       3.997109       108.7669 
 586   0.0000       4.012452       109.1844 
 587   0.0000       4.020145       109.3937 
 588   0.0000       4.027701       109.5993 
 589   0.0000       4.034783       109.7920 
 590   0.0000       4.057497       110.4101 
 591   0.0000       4.064658       110.6050 
 592   0.0000       4.071955       110.8035 
 593   0.0000       4.091759       111.3424 
 594   0.0000       4.099825       111.5619 
 595   0.0000       4.117147       112.0333 
 596   0.0000       4.120293       112.1189 
 597   0.0000       4.125330       112.2559 
 598   0.0000       4.162042       113.2549 
 599   0.0000       4.187246       113.9408 
 600   0.0000       4.194902       114.1491 
 601   0.0000       4.216972       114.7497 
 602   0.0000       4.221074       114.8613 
 603   0.0000       4.237012       115.2950 
 604   0.0000       4.242332       115.4397 
 605   0.0000       4.254650       115.7749 
 606   0.0000       4.264043       116.0305 
 607   0.0000       4.274417       116.3128 
 608   0.0000       4.284218       116.5795 
 609   0.0000       4.293087       116.8208 
 610   0.0000       4.304410       117.1289 
 611   0.0000       4.341348       118.1341 
 612   0.0000       4.356813       118.5549 
 613   0.0000       4.381465       119.2257 
 614   0.0000       4.390052       119.4594 
 615   0.0000       4.413169       120.0884 
 616   0.0000       4.419320       120.2558 
 617   0.0000       4.463834       121.4671 
 618   0.0000       4.475367       121.7809 
 619   0.0000       4.498716       122.4163 
 620   0.0000       4.501455       122.4908 
 621   0.0000       4.522381       123.0602 
 622   0.0000       4.535266       123.4109 
 623   0.0000       4.584252       124.7438 
 624   0.0000       4.593599       124.9982 
 625   0.0000       4.599856       125.1684 
 626   0.0000       4.625242       125.8592 
 627   0.0000       4.648587       126.4945 
 628   0.0000       4.660794       126.8266 
 629   0.0000       4.679052       127.3235 
 630   0.0000       4.682403       127.4147 
 631   0.0000       4.696995       127.8117 
 632   0.0000       4.718445       128.3954 
 633   0.0000       4.739417       128.9661 
 634   0.0000       4.750954       129.2800 
 635   0.0000       4.764981       129.6617 
 636   0.0000       4.787900       130.2854 
 637   0.0000       4.788470       130.3009 
 638   0.0000       4.792913       130.4218 
 639   0.0000       4.813096       130.9710 
 640   0.0000       4.837322       131.6302 
 641   0.0000       4.847534       131.9081 
 642   0.0000       4.866015       132.4110 
 643   0.0000       4.890131       133.0672 
 644   0.0000       4.907064       133.5280 
 645   0.0000       4.936364       134.3253 
 646   0.0000       4.947452       134.6270 
 647   0.0000       4.963598       135.0664 
 648   0.0000       4.968936       135.2116 
 649   0.0000       4.990217       135.7907 
 650   0.0000       5.011782       136.3775 
 651   0.0000       5.025294       136.7452 
 652   0.0000       5.034291       136.9900 
 653   0.0000       5.036608       137.0531 
 654   0.0000       5.062375       137.7542 
 655   0.0000       5.069549       137.9494 
 656   0.0000       5.074450       138.0828 
 657   0.0000       5.087382       138.4347 
 658   0.0000       5.097583       138.7123 
 659   0.0000       5.109264       139.0302 
 660   0.0000       5.115607       139.2027 
 661   0.0000       5.118026       139.2686 
 662   0.0000       5.134882       139.7272 
 663   0.0000       5.144962       140.0015 
 664   0.0000       5.155382       140.2851 
 665   0.0000       5.190141       141.2309 
 666   0.0000       5.195997       141.3903 
 667   0.0000       5.202712       141.5730 
 668   0.0000       5.211392       141.8092 
 669   0.0000       5.218199       141.9944 
 670   0.0000       5.221208       142.0763 
 671   0.0000       5.232895       142.3943 
 672   0.0000       5.236860       142.5022 
 673   0.0000       5.268356       143.3593 
 674   0.0000       5.270950       143.4298 
 675   0.0000       5.287910       143.8913 
 676   0.0000       5.292091       144.0051 
 677   0.0000       5.296371       144.1216 
 678   0.0000       5.319724       144.7570 
 679   0.0000       5.335838       145.1955 
 680   0.0000       5.379891       146.3943 
 681   0.0000       5.383126       146.4823 
 682   0.0000       5.402712       147.0153 
 683   0.0000       5.422743       147.5603 
 684   0.0000       5.430284       147.7656 
 685   0.0000       5.436036       147.9221 
 686   0.0000       5.446570       148.2087 
 687   0.0000       5.465710       148.7295 
 688   0.0000       5.469842       148.8420 
 689   0.0000       5.476237       149.0160 
 690   0.0000       5.504936       149.7969 
 691   0.0000       5.539523       150.7381 
 692   0.0000       5.551373       151.0605 
 693   0.0000       5.554426       151.1436 
 694   0.0000       5.579005       151.8124 
 695   0.0000       5.607462       152.5868 
 696   0.0000       5.612147       152.7143 
 697   0.0000       5.629184       153.1779 
 698   0.0000       5.657190       153.9400 
 699   0.0000       5.717432       155.5792 
 700   0.0000       5.759535       156.7249 
 701   0.0000       5.801279       157.8608 
 702   0.0000       5.810662       158.1161 
 703   0.0000       5.829241       158.6217 
 704   0.0000       5.860710       159.4780 
 705   0.0000       5.943641       161.7347 
 706   0.0000       5.951995       161.9620 
 707   0.0000       6.034612       164.2101 
 708   0.0000       6.212499       169.0507 
[...]
    118      -0.000027  -0.000021   0.000010   0.000145  -0.000004   0.038308
    119      -0.000024  -0.000012   0.000019   0.000155  -0.000005  -0.044966


-----------
IR SPECTRUM
-----------

 Mode   freq       eps      Int      T**2         TX        TY        TZ
       cm**-1   L/(mol*cm) km/mol    a.u.
----------------------------------------------------------------------------
  8:     15.26   0.001336    6.75  0.027333  (-0.031963 -0.110698  0.118563)
  9:     32.19   0.000801    4.05  0.007767  ( 0.023030 -0.052661 -0.066806)
 10:     35.73   0.001626    8.22  0.014197  ( 0.059067  0.098584  0.031446)
 11:     46.48   0.000569    2.87  0.003818  ( 0.058545 -0.007542 -0.018255)
 12:     52.14   0.000190    0.96  0.001138  ( 0.029576  0.002416  0.016060)
 13:     62.05   0.000706    3.57  0.003553  ( 0.017346  0.039283  0.041340)
 14:     71.47   0.002473   12.50  0.010800  (-0.005511  0.053489 -0.088928)
 15:     99.00   0.002920   14.76  0.009204  ( 0.086242  0.004156  0.041823)
 16:    114.02   0.000124    0.63  0.000340  (-0.004151 -0.004324 -0.017447)
 17:    121.33   0.000848    4.29  0.002182  ( 0.013448  0.032826  0.030383)
 18:    140.88   0.004618   23.34  0.010229  (-0.002313 -0.020859 -0.098937)
 19:    163.89   0.000211    1.07  0.000402  ( 0.006621  0.018115 -0.005445)
 20:    171.20   0.000412    2.08  0.000751  (-0.018146 -0.020450  0.001748)
 21:    176.57   0.003482   17.60  0.006155  ( 0.041945  0.061850 -0.023867)
 22:    219.95   0.019597   99.03  0.027804  (-0.063244 -0.018691  0.153150)
 23:    240.39   0.003449   17.43  0.004478  (-0.062825 -0.020797 -0.009914)
 24:    241.94   0.001091    5.52  0.001408  (-0.020213 -0.023606  0.021022)
 25:    268.30   0.000655    3.31  0.000762  ( 0.027277  0.004143  0.001086)
 26:    279.89   0.013910   70.29  0.015509  (-0.118339 -0.038789  0.000399)
 27:    309.84   0.012155   61.43  0.012242  (-0.110274  0.008734 -0.002365)
 28:    316.80   0.021838  110.36  0.021512  (-0.132802 -0.062228 -0.001701)
 29:    366.35   0.004326   21.86  0.003685  (-0.040741  0.007832  0.044312)
 30:    375.92   0.001086    5.49  0.000902  (-0.008369  0.008311  0.027619)
 31:    398.66   0.001034    5.23  0.000810  (-0.026708 -0.001231 -0.009738)
 32:    406.18   0.008944   45.20  0.006872  (-0.003405  0.065040 -0.051281)
 33:    434.06   0.000190    0.96  0.000136  (-0.003581 -0.001187 -0.011050)
 34:    444.17   0.009158   46.28  0.006434  (-0.032772  0.021914 -0.069855)
 35:    446.12   0.010295   52.02  0.007201  (-0.076574  0.015316 -0.033211)
 36:    489.60   0.012054   60.92  0.007683  (-0.021489 -0.078055  0.033598)
 37:    513.38   0.015807   79.88  0.009609  ( 0.024848 -0.038096  0.086833)
 38:    531.95   0.000821    4.15  0.000481  (-0.017165 -0.010743 -0.008448)
 39:    559.80   0.000691    3.49  0.000385  ( 0.000716 -0.019561  0.001348)
 40:    619.69   0.004669   23.60  0.002351  ( 0.038171 -0.021238  0.021051)
 41:    641.98   0.010555   53.34  0.005131  ( 0.057437 -0.001126  0.042786)
 42:    656.67   0.002042   10.32  0.000970  ( 0.030060  0.006976  0.004265)
 43:    694.00   0.012658   63.97  0.005692  (-0.011447  0.042109 -0.061544)
 44:    700.40   0.004123   20.83  0.001837  ( 0.029936  0.025596  0.016897)
 45:    727.25   0.008946   45.21  0.003839  (-0.040869  0.008662 -0.045752)
 46:    745.93   0.001769    8.94  0.000740  (-0.008485  0.015496  0.020685)
 47:    769.54   0.011784   59.55  0.004778  ( 0.027476  0.040520 -0.048802)
 48:    786.12   0.015975   80.73  0.006342  ( 0.046851  0.051921  0.038090)
 49:    823.99   0.001425    7.20  0.000540  ( 0.000904  0.012727 -0.019412)
 50:    827.73   0.000407    2.06  0.000153  (-0.006323  0.008980 -0.005720)
 51:    876.40   0.001839    9.29  0.000655  (-0.020417 -0.007017 -0.013741)
 52:    886.82   0.004493   22.71  0.001581  (-0.027909  0.002777  0.028186)
 53:    895.94   0.002813   14.21  0.000980  ( 0.018161  0.013335  0.021725)
 54:    925.39   0.003909   19.76  0.001318  (-0.019939 -0.018624  0.023956)
 55:    927.70   0.008376   42.33  0.002818  (-0.037560 -0.033531 -0.016807)
 56:    952.73   0.000900    4.55  0.000295  ( 0.004467  0.006859 -0.015093)
 57:    956.12   0.011825   59.76  0.003860  (-0.023563 -0.057395  0.003178)
 58:    995.43   0.002683   13.56  0.000841  ( 0.015349  0.014773 -0.019678)
 59:    997.28   0.000035    0.18  0.000011  (-0.000410 -0.003030 -0.001313)
 60:   1022.36   0.000352    1.78  0.000108  (-0.004256 -0.001044 -0.009399)
 61:   1045.20   0.030617  154.73  0.009141  (-0.062802 -0.071082  0.012023)
 62:   1048.61   0.001640    8.29  0.000488  ( 0.004607 -0.018921 -0.010426)
 63:   1063.92   0.002548   12.87  0.000747  ( 0.013815 -0.020916  0.010903)
 64:   1073.13   0.002782   14.06  0.000809  ( 0.019899  0.007328 -0.018955)
 65:   1088.00   0.013766   69.57  0.003948  (-0.060557  0.016755  0.000646)
 66:   1116.13   0.022780  115.12  0.006369  ( 0.049924  0.047129  0.040690)
 67:   1121.78   0.039011  197.14  0.010852  ( 0.073090  0.052367  0.052609)
 68:   1137.94   0.001821    9.20  0.000499  (-0.006209 -0.017993 -0.011705)
 69:   1158.76   0.051557  260.55  0.013885  ( 0.058199  0.093036 -0.042918)
 70:   1190.39   0.001354    6.84  0.000355  (-0.011008  0.014354 -0.005257)
 71:   1198.67   0.005375   27.17  0.001399  ( 0.014538 -0.025945 -0.022692)
 72:   1222.97   0.021065  106.45  0.005375  ( 0.065872 -0.024628  0.020721)
 73:   1231.41   0.068783  347.60  0.017431  (-0.114813  0.050937 -0.040675)
 74:   1257.54   0.011373   57.47  0.002822  ( 0.030870 -0.041849 -0.010858)
 75:   1304.42   0.015407   77.86  0.003686  (-0.005344  0.058923  0.013613)
 76:   1330.94   0.015425   77.95  0.003617  ( 0.007986  0.058518  0.011337)
 77:   1340.41   0.001105    5.58  0.000257  ( 0.011602  0.010953 -0.001609)
 78:   1344.77   0.045141  228.12  0.010475  (-0.015614 -0.077570 -0.064918)
 79:   1346.85   0.112069  566.35  0.025966  ( 0.051241  0.101180  0.114469)
 80:   1362.90   0.009070   45.84  0.002077  ( 0.031451 -0.032949 -0.001421)
 81:   1368.43   0.007283   36.80  0.001661  (-0.034808  0.014874  0.015097)
 82:   1386.66   0.016494   83.36  0.003712  ( 0.008708 -0.055327 -0.023982)
 83:   1401.42   0.007320   36.99  0.001630  ( 0.023914  0.032462  0.002070)
 84:   1413.53   0.001494    7.55  0.000330  (-0.005742  0.014662  0.009051)
 85:   1428.03   0.008680   43.87  0.001897  ( 0.019075 -0.035581 -0.016339)
 86:   1447.16   0.040012  202.20  0.008628  (-0.085970 -0.033446  0.010892)
 87:   1451.56   0.001089    5.50  0.000234  ( 0.001948 -0.014453  0.004620)
 88:   1455.20   0.005121   25.88  0.001098  (-0.010165 -0.017612  0.026166)
 89:   1469.44   0.008758   44.26  0.001860  ( 0.019922  0.037862 -0.005435)
 90:   1474.58   0.002647   13.38  0.000560  ( 0.021972  0.003090 -0.008235)
 91:   1485.14   0.000952    4.81  0.000200  (-0.007507  0.002817  0.011653)
 92:   1497.74   0.002696   13.63  0.000562  (-0.002189 -0.022279  0.007785)
 93:   1503.66   0.001151    5.82  0.000239  ( 0.002002 -0.013438 -0.007368)
 94:   1506.65   0.042582  215.19  0.008820  (-0.091304  0.013691  0.017198)
 95:   1514.04   0.010657   53.86  0.002197  (-0.042434  0.004496  0.019384)
 96:   1517.79   0.082427  416.55  0.016947  ( 0.062160  0.113458 -0.014518)
 97:   1536.96   0.107073  541.10  0.021740  (-0.147391 -0.001096 -0.003837)
 98:   1604.20   0.001626    8.22  0.000316  (-0.015139  0.006965  0.006209)
 99:   1647.00   0.000497    2.51  0.000094  ( 0.005722 -0.001648  0.007666)
100:   1655.16   0.018376   92.86  0.003465  (-0.035307  0.001865 -0.047058)
101:   2636.77   0.077043  389.34  0.009118  ( 0.015482  0.033976  0.087886)
102:   2964.32   0.015123   76.43  0.001592  (-0.018674 -0.011440  0.033353)
103:   2974.77   0.012568   63.52  0.001318  (-0.009790  0.004182  0.034715)
104:   2987.46   0.013876   70.12  0.001449  (-0.014546  0.034613  0.006311)
105:   3059.54   0.005854   29.58  0.000597  ( 0.005408  0.004568 -0.023388)
106:   3071.85   0.008871   44.83  0.000901  ( 0.016790  0.006441  0.024038)
107:   3097.31   0.005255   26.56  0.000529  (-0.021370  0.006575 -0.005437)
108:   3099.84   0.005783   29.22  0.000582  ( 0.021147  0.011428  0.002081)
109:   3110.88   0.005429   27.44  0.000545  (-0.009006 -0.021518  0.000695)
110:   3116.27   0.191876  969.66  0.019215  ( 0.104158  0.090694 -0.011843)
111:   3132.93   0.024879  125.73  0.002478  (-0.034755 -0.035015 -0.006643)
112:   3186.21   0.001636    8.27  0.000160  ( 0.011294 -0.005212 -0.002337)
113:   3190.29   0.001192    6.02  0.000117  (-0.005041  0.008970  0.003267)
114:   3215.90   0.001411    7.13  0.000137  ( 0.000539  0.007810  0.008699)
115:   3226.20   0.000893    4.51  0.000086  ( 0.000506 -0.006764 -0.006353)
116:   3233.70   0.000980    4.95  0.000095  ( 0.007415  0.004097  0.004773)
117:   3423.82   0.013943   70.46  0.001271  ( 0.000914  0.019159 -0.030048)
118:   3574.60   0.011970   60.49  0.001045  (-0.029778 -0.012571  0.000488)
119:   3794.72   0.024643  124.54  0.002027  ( 0.011616 -0.021999  0.037519)

* The epsilon (eps) is given for a Dirac delta lineshape.
** The dipole moment derivative (T) already includes vibrational overlap.

The first frequency considered to be a vibration is 8
The total number of vibrations considered is 112


--------------------------
THERMOCHEMISTRY AT 298.15K
--------------------------

Temperature         ... 298.15 K
Pressure            ... 1.00 atm
Total Mass          ... 300.30 AMU

Throughout the following assumptions are being made:
  (1) The electronic state is orbitally nondegenerate
      but the spin degeneracy is treated
  (2) There are no thermally accessible electronically excited states
  (3) Hindered rotations indicated by low frequency modes are not
      treated as such but are treated as vibrations and this may
      cause some error
  (4) All equations used are the standard statistical mechanics
      equations for an ideal gas
  (5) All vibrations are strictly harmonic

freq.      15.26  E(vib)   ...       0.57 
freq.      32.19  E(vib)   ...       0.55 
freq.      35.73  E(vib)   ...       0.54 
freq.      46.48  E(vib)   ...       0.53 
freq.      52.14  E(vib)   ...       0.52 
freq.      62.05  E(vib)   ...       0.51 
freq.      71.47  E(vib)   ...       0.50 
freq.      99.00  E(vib)   ...       0.46 
freq.     114.02  E(vib)   ...       0.44 
freq.     121.33  E(vib)   ...       0.44 
freq.     140.88  E(vib)   ...       0.41 
freq.     163.89  E(vib)   ...       0.39 
freq.     171.20  E(vib)   ...       0.38 
freq.     176.57  E(vib)   ...       0.38 
freq.     219.95  E(vib)   ...       0.33 
freq.     240.39  E(vib)   ...       0.31 
freq.     241.94  E(vib)   ...       0.31 
freq.     268.30  E(vib)   ...       0.29 
freq.     279.89  E(vib)   ...       0.28 
freq.     309.84  E(vib)   ...       0.26 
freq.     316.80  E(vib)   ...       0.25 
freq.     366.35  E(vib)   ...       0.22 
freq.     375.92  E(vib)   ...       0.21 
freq.     398.66  E(vib)   ...       0.19 
freq.     406.18  E(vib)   ...       0.19 
freq.     434.06  E(vib)   ...       0.17 
freq.     444.17  E(vib)   ...       0.17 
freq.     446.12  E(vib)   ...       0.17 
freq.     489.60  E(vib)   ...       0.15 
freq.     513.38  E(vib)   ...       0.13 
freq.     531.95  E(vib)   ...       0.13 
freq.     559.80  E(vib)   ...       0.12 
freq.     619.69  E(vib)   ...       0.09 
freq.     641.98  E(vib)   ...       0.09 
freq.     656.67  E(vib)   ...       0.08 
freq.     694.00  E(vib)   ...       0.07 
freq.     700.40  E(vib)   ...       0.07 
freq.     727.25  E(vib)   ...       0.06 
freq.     745.93  E(vib)   ...       0.06 
freq.     769.54  E(vib)   ...       0.06 
freq.     786.12  E(vib)   ...       0.05 
freq.     823.99  E(vib)   ...       0.05 
freq.     827.73  E(vib)   ...       0.04 
freq.     876.40  E(vib)   ...       0.04 
freq.     886.82  E(vib)   ...       0.04 
freq.     895.94  E(vib)   ...       0.03 
freq.     925.39  E(vib)   ...       0.03 
freq.     927.70  E(vib)   ...       0.03 
freq.     952.73  E(vib)   ...       0.03 
freq.     956.12  E(vib)   ...       0.03 
freq.     995.43  E(vib)   ...       0.02 
freq.     997.28  E(vib)   ...       0.02 
freq.    1022.36  E(vib)   ...       0.02 
freq.    1045.20  E(vib)   ...       0.02 
freq.    1048.61  E(vib)   ...       0.02 
freq.    1063.92  E(vib)   ...       0.02 
freq.    1073.13  E(vib)   ...       0.02 
freq.    1088.00  E(vib)   ...       0.02 
freq.    1116.13  E(vib)   ...       0.01 
freq.    1121.78  E(vib)   ...       0.01 
freq.    1137.94  E(vib)   ...       0.01 
freq.    1158.76  E(vib)   ...       0.01 
freq.    1190.39  E(vib)   ...       0.01 
freq.    1198.67  E(vib)   ...       0.01 
freq.    1222.97  E(vib)   ...       0.01 
freq.    1231.41  E(vib)   ...       0.01 
freq.    1257.54  E(vib)   ...       0.01 
freq.    1304.42  E(vib)   ...       0.01 
freq.    1330.94  E(vib)   ...       0.01 
freq.    1340.41  E(vib)   ...       0.01 
freq.    1344.77  E(vib)   ...       0.01 
freq.    1346.85  E(vib)   ...       0.01 
freq.    1362.90  E(vib)   ...       0.01 
freq.    1368.43  E(vib)   ...       0.01 
freq.    1386.66  E(vib)   ...       0.00 
freq.    1401.42  E(vib)   ...       0.00 
freq.    1413.53  E(vib)   ...       0.00 
freq.    1428.03  E(vib)   ...       0.00 
freq.    1447.16  E(vib)   ...       0.00 
freq.    1451.56  E(vib)   ...       0.00 
freq.    1455.20  E(vib)   ...       0.00 
freq.    1469.44  E(vib)   ...       0.00 
freq.    1474.58  E(vib)   ...       0.00 
freq.    1485.14  E(vib)   ...       0.00 
freq.    1497.74  E(vib)   ...       0.00 
freq.    1503.66  E(vib)   ...       0.00 
freq.    1506.65  E(vib)   ...       0.00 
freq.    1514.04  E(vib)   ...       0.00 
freq.    1517.79  E(vib)   ...       0.00 
freq.    1536.96  E(vib)   ...       0.00 
freq.    1604.20  E(vib)   ...       0.00 
freq.    1647.00  E(vib)   ...       0.00 
freq.    1655.16  E(vib)   ...       0.00 
freq.    2636.77  E(vib)   ...       0.00 
freq.    2964.32  E(vib)   ...       0.00 
freq.    2974.77  E(vib)   ...       0.00 
freq.    2987.46  E(vib)   ...       0.00 
freq.    3059.54  E(vib)   ...       0.00 
freq.    3071.85  E(vib)   ...       0.00 
freq.    3097.31  E(vib)   ...       0.00 
freq.    3099.84  E(vib)   ...       0.00 
freq.    3110.88  E(vib)   ...       0.00 
freq.    3116.27  E(vib)   ...       0.00 
freq.    3132.93  E(vib)   ...       0.00 
freq.    3186.21  E(vib)   ...       0.00 
freq.    3190.29  E(vib)   ...       0.00 
freq.    3215.90  E(vib)   ...       0.00 
freq.    3226.20  E(vib)   ...       0.00 
freq.    3233.70  E(vib)   ...       0.00 
freq.    3423.82  E(vib)   ...       0.00 
freq.    3574.60  E(vib)   ...       0.00 
freq.    3794.72  E(vib)   ...       0.00 

------------
INNER ENERGY
------------

The inner energy is: U= E(el) + E(ZPE) + E(vib) + E(rot) + E(trans)
    E(el)   - is the total energy from the electronic structure calculation
              = E(kin-el) + E(nuc-el) + E(el-el) + E(nuc-nuc)
    E(ZPE)  - the the zero temperature vibrational energy from the frequency calculation
    E(vib)  - the the finite temperature correction to E(ZPE) due to population
              of excited vibrational states
    E(rot)  - is the rotational thermal energy
    E(trans)- is the translational thermal energy

Summary of contributions to the inner energy U:
Electronic energy                ...  -1063.53922818 Eh
Zero point energy                ...      0.31762541 Eh     199.31 kcal/mol
Thermal vibrational correction   ...      0.01882101 Eh      11.81 kcal/mol
Thermal rotational correction    ...      0.00141627 Eh       0.89 kcal/mol
Thermal translational correction ...      0.00141627 Eh       0.89 kcal/mol
-----------------------------------------------------------------------
Total thermal energy                  -1063.19994922 Eh


Summary of corrections to the electronic energy:
(perhaps to be used in another calculation)
Total thermal correction                  0.02165355 Eh      13.59 kcal/mol
Non-thermal (ZPE) correction              0.31762541 Eh     199.31 kcal/mol
-----------------------------------------------------------------------
Total correction                          0.33927896 Eh     212.90 kcal/mol


--------
ENTHALPY
--------

The enthalpy is H = U + kB*T
                kB is Boltzmann's constant
Total free energy                 ...  -1063.19994922 Eh 
Thermal Enthalpy correction       ...      0.00094421 Eh       0.59 kcal/mol
-----------------------------------------------------------------------
Total Enthalpy                    ...  -1063.19900501 Eh


Note: Only C1 symmetry has been detected, increase convergence thresholds 
      if your molecule has a higher symmetry. Symmetry factor of 1.0 is   
      used for the rotational entropy correction. 
 

Note: Rotational entropy computed according to Herzberg 
Infrared and Raman Spectra, Chapter V,1, Van Nostrand Reinhold, 1945 
Point Group:  C1, Symmetry Number:   1  
Rotational constants in cm-1:     0.029114     0.003357     0.003192 

Vibrational entropy computed according to the QRRHO of S. Grimme
Chem.Eur.J. 2012 18 9955


-------
ENTROPY
-------

The entropy contributions are T*S = T*(S(el)+S(vib)+S(rot)+S(trans))
     S(el)   - electronic entropy
     S(vib)  - vibrational entropy
     S(rot)  - rotational entropy
     S(trans)- translational entropy
The entropies will be listed as multiplied by the temperature to get
units of energy

Electronic entropy                ...      0.00065446 Eh      0.41 kcal/mol
Vibrational entropy               ...      0.03408773 Eh     21.39 kcal/mol
Rotational entropy                ...      0.01658279 Eh     10.41 kcal/mol
Translational entropy             ...      0.02042859 Eh     12.82 kcal/mol
-----------------------------------------------------------------------
Final entropy term                ...      0.07175356 Eh     45.03 kcal/mol

In case the symmetry of your molecule has not been determined correctly
or in case you have a reason to use a different symmetry number we print 
out the resulting rotational entropy values for sn=1,12 :
 --------------------------------------------------------
|  sn= 1 | S(rot)=       0.01658279 Eh     10.41 kcal/mol|
|  sn= 2 | S(rot)=       0.01592833 Eh     10.00 kcal/mol|
|  sn= 3 | S(rot)=       0.01554550 Eh      9.75 kcal/mol|
|  sn= 4 | S(rot)=       0.01527388 Eh      9.58 kcal/mol|
|  sn= 5 | S(rot)=       0.01506319 Eh      9.45 kcal/mol|
|  sn= 6 | S(rot)=       0.01489104 Eh      9.34 kcal/mol|
|  sn= 7 | S(rot)=       0.01474550 Eh      9.25 kcal/mol|
|  sn= 8 | S(rot)=       0.01461942 Eh      9.17 kcal/mol|
|  sn= 9 | S(rot)=       0.01450821 Eh      9.10 kcal/mol|
|  sn=10 | S(rot)=       0.01440873 Eh      9.04 kcal/mol|
|  sn=11 | S(rot)=       0.01431874 Eh      8.99 kcal/mol|
|  sn=12 | S(rot)=       0.01423659 Eh      8.93 kcal/mol|
 --------------------------------------------------------


-------------------
GIBBS FREE ENERGY
-------------------

The Gibbs free energy is G = H - T*S

Total enthalpy                    ...  -1063.19900501 Eh 
Total entropy correction          ...     -0.07175356 Eh    -45.03 kcal/mol
-----------------------------------------------------------------------
Final Gibbs free energy         ...  -1063.27075858 Eh

For completeness - the Gibbs free energy minus the electronic energy
G-E(el)                           ...      0.26846960 Eh    168.47 kcal/mol



Timings for individual modules:

Sum of individual times         ...     7511.791 sec (= 125.197 min)
GTO integral calculation        ...       11.953 sec (=   0.199 min)   0.2 %
SCF iterations                  ...      344.999 sec (=   5.750 min)   4.6 %
SCF Gradient evaluation         ...       45.441 sec (=   0.757 min)   0.6 %
Numerical frequency calculation ...     7109.399 sec (= 118.490 min)  94.6 %
                             ****ORCA TERMINATED NORMALLY****
TOTAL RUN TIME: 0 days 2 hours 1 minutes 53 seconds 818 msec
