
                                 *****************
                                 * O   R   C   A *
                                 *****************

                                            #,                                       
                                            ###                                      
                                            ####                                     
                                            #####                                    
                                            ######                                   
                                           ########,                                 
                                     ,,################,,,,,                         
                               ,,#################################,,                 
                          ,,##########################################,,             
                       ,#########################################, ''#####,          
                    ,#############################################,,   '####,        
                  ,##################################################,,,,####,       
                ,###########''''           ''''###############################       
              ,#####''   ,,,,##########,,,,          '''####'''          '####       
            ,##' ,,,,###########################,,,                        '##       
           ' ,,###''''                  '''############,,,                           
         ,,##''                                '''############,,,,        ,,,,,,###''
      ,#''                                            '''#######################'''  
     '                                                          ''''####''''         
             ,#######,   #######,   ,#######,      ##                                
            ,#'     '#,  ##    ##  ,#'     '#,    #''#        ######   ,####,        
            ##       ##  ##   ,#'  ##            #'  '#       #        #'  '#        
            ##       ##  #######   ##           ,######,      #####,   #    #        
            '#,     ,#'  ##    ##  '#,     ,#' ,#      #,         ##   #,  ,#        
             '#######'   ##     ##  '#######'  #'      '#     #####' # '####'        



                  #######################################################
                  #                        -***-                        #
                  #          Department of theory and spectroscopy      #
                  #    Directorship and core code : Frank Neese         #
                  #        Max Planck Institute fuer Kohlenforschung    #
                  #                Kaiser Wilhelm Platz 1               #
                  #                 D-45470 Muelheim/Ruhr               #
                  #                      Germany                        #
                  #                                                     #
                  #                  All rights reserved                #
                  #                        -***-                        #
                  #######################################################


                         Program Version 5.0.4 -  RELEASE  -


 With contributions from (in alphabetic order):
   Daniel Aravena         : Magnetic Suceptibility
   Michael Atanasov       : Ab Initio Ligand Field Theory (pilot matlab implementation)
   Alexander A. Auer      : GIAO ZORA, VPT2 properties, NMR spectrum
   Ute Becker             : Parallelization
   Giovanni Bistoni       : ED, misc. LED, open-shell LED, HFLD
   Martin Brehm           : Molecular dynamics
   Dmytro Bykov           : SCF Hessian
   Vijay G. Chilkuri      : MRCI spin determinant printing, contributions to CSF-ICE
   Dipayan Datta          : RHF DLPNO-CCSD density
   Achintya Kumar Dutta   : EOM-CC, STEOM-CC
   Dmitry Ganyushin       : Spin-Orbit,Spin-Spin,Magnetic field MRCI
   Miquel Garcia          : C-PCM and meta-GGA Hessian, CC/C-PCM, Gaussian charge scheme
   Yang Guo               : DLPNO-NEVPT2, F12-NEVPT2, CIM, IAO-localization
   Andreas Hansen         : Spin unrestricted coupled pair/coupled cluster methods
   Benjamin Helmich-Paris : MC-RPA, TRAH-SCF, COSX integrals
   Lee Huntington         : MR-EOM, pCC
   Robert Izsak           : Overlap fitted RIJCOSX, COSX-SCS-MP3, EOM
   Marcus Kettner         : VPT2
   Christian Kollmar      : KDIIS, OOCD, Brueckner-CCSD(T), CCSD density, CASPT2, CASPT2-K
   Simone Kossmann        : Meta GGA functionals, TD-DFT gradient, OOMP2, MP2 Hessian
   Martin Krupicka        : Initial AUTO-CI
   Lucas Lang             : DCDCAS
   Marvin Lechner         : AUTO-CI (C++ implementation), FIC-MRCC
   Dagmar Lenk            : GEPOL surface, SMD
   Dimitrios Liakos       : Extrapolation schemes; Compound Job, initial MDCI parallelization
   Dimitrios Manganas     : Further ROCIS development; embedding schemes
   Dimitrios Pantazis     : SARC Basis sets
   Anastasios Papadopoulos: AUTO-CI, single reference methods and gradients
   Taras Petrenko         : DFT Hessian,TD-DFT gradient, ASA, ECA, R-Raman, ABS, FL, XAS/XES, NRVS
   Peter Pinski           : DLPNO-MP2, DLPNO-MP2 Gradient
   Christoph Reimann      : Effective Core Potentials
   Marius Retegan         : Local ZFS, SOC
   Christoph Riplinger    : Optimizer, TS searches, QM/MM, DLPNO-CCSD(T), (RO)-DLPNO pert. Triples
   Tobias Risthaus        : Range-separated hybrids, TD-DFT gradient, RPA, STAB
   Michael Roemelt        : Original ROCIS implementation
   Masaaki Saitow         : Open-shell DLPNO-CCSD energy and density
   Barbara Sandhoefer     : DKH picture change effects
   Avijit Sen             : IP-ROCIS
   Kantharuban Sivalingam : CASSCF convergence, NEVPT2, FIC-MRCI
   Bernardo de Souza      : ESD, SOC TD-DFT
   Georgi Stoychev        : AutoAux, RI-MP2 NMR, DLPNO-MP2 response
   Willem Van den Heuvel  : Paramagnetic NMR
   Boris Wezisla          : Elementary symmetry handling
   Frank Wennmohs         : Technical directorship


 We gratefully acknowledge several colleagues who have allowed us to
 interface, adapt or use parts of their codes:
   Stefan Grimme, W. Hujo, H. Kruse, P. Pracht,  : VdW corrections, initial TS optimization,
                  C. Bannwarth, S. Ehlert          DFT functionals, gCP, sTDA/sTD-DF
   Ed Valeev, F. Pavosevic, A. Kumar             : LibInt (2-el integral package), F12 methods
   Garnet Chan, S. Sharma, J. Yang, R. Olivares  : DMRG
   Ulf Ekstrom                                   : XCFun DFT Library
   Mihaly Kallay                                 : mrcc  (arbitrary order and MRCC methods)
   Jiri Pittner, Ondrej Demel                    : Mk-CCSD
   Frank Weinhold                                : gennbo (NPA and NBO analysis)
   Christopher J. Cramer and Donald G. Truhlar   : smd solvation model
   Lars Goerigk                                  : TD-DFT with DH, B97 family of functionals
   V. Asgeirsson, H. Jonsson                     : NEB implementation
   FAccTs GmbH                                   : IRC, NEB, NEB-TS, DLPNO-Multilevel, CI-OPT
                                                   MM, QMMM, 2- and 3-layer-ONIOM, Crystal-QMMM,
                                                   LR-CPCM, SF, NACMEs, symmetry and pop. for TD-DFT,
                                                   nearIR, NL-DFT gradient (VV10), updates on ESD,
                                                   ML-optimized integration grids
   S Lehtola, MJT Oliveira, MAL Marques          : LibXC Library
   Liviu Ungur et al                             : ANISO software


 Your calculation uses the libint2 library for the computation of 2-el integrals
 For citations please refer to: http://libint.valeyev.net

 Your ORCA version has been built with support for libXC version: 5.1.0
 For citations please refer to: https://tddft.org/programs/libxc/

 This ORCA versions uses:
   CBLAS   interface :  Fast vector & matrix operations
   LAPACKE interface :  Fast linear algebra routines
   SCALAPACK package :  Parallel linear algebra routines
   Shared memory     :  Shared parallel matrices
   BLAS/LAPACK       :  OpenBLAS 0.3.15  USE64BITINT DYNAMIC_ARCH NO_AFFINITY Prescott SINGLE_THREADED
        Core in use  :  Prescott
   Copyright (c) 2011-2014, The OpenBLAS Project


Your calculation utilizes the atom-pairwise dispersion correction
with the Becke-Johnson damping scheme (D3BJ)
Cite in your paper:
S.Grimme, S.Ehrlich, L.Goerigk, J Comput Chem, (2011), 32, 1456–1465 
S.Grimme, J.Antony, S.Ehrlich and H.Krieg, J.Chem.Phys., 132, (2010), 154104 
   

================================================================================

----- Orbital basis set information -----
Your calculation utilizes the basis: def2-TZVP
   F. Weigend and R. Ahlrichs, Phys. Chem. Chem. Phys. 7, 3297 (2005).

----- AuxJ basis set information -----
Your calculation utilizes the auxiliary basis: def2/J
   F. Weigend, Phys. Chem. Chem. Phys. 8, 1057 (2006).

================================================================================
                                        WARNINGS
                       Please study these warnings very carefully!
================================================================================


WARNING: Geometry Optimization
  ===> : Switching off AutoStart
         For restart on a previous wavefunction, please use MOREAD

INFO   : the flag for use of the SHARK integral package has been found!

================================================================================
                                       INPUT FILE
================================================================================
NAME = /home/rudenko/mop_saddle_orca_4_serv/for_orca/m-clc6h4chno2ch3_oh/orca/orca_end/end.inp
|  1> !  opt B3LYP def2-TZVP CPCM D3 
|  2> %pal nprocs 102 end
|  3> %cpcm epsilon 78.4 end 
|  4> *xyz -1 1 
|  5> C   1.53294806 3.05141345 2.07784035
|  6> C   1.8023646 1.68969567 1.94998079
|  7> C   0.75782023 0.77265465 1.79834053
|  8> C   -0.56823832 1.22328531 1.77831582
|  9> C   -0.79617942 2.58311794 1.90809381
| 10> C   0.21810675 3.51654902 2.05690623
| 11> H   2.35425617 3.76060968 2.19415376
| 12> H   2.83590921 1.34050465 1.96760519
| 13> H   -1.38550159 0.50943852 1.66378656
| 14> Cl   -2.42857257 3.13562851 1.87825265
| 15> H   0.00782424 4.58107068 2.15540724
| 16> C   1.01156293 -0.6636513 1.68661982
| 17> C   0.96472228 -1.46583294 2.94050007
| 18> H   1.44086784 -2.45143956 2.82865646
| 19> H   -0.07367836 -1.64694893 3.259813
| 20> H   1.46988406 -0.95128397 3.77097647
| 21> N   1.10365386 -1.24253076 0.49481257
| 22> O   1.21479176 -2.49461492 0.36464328
| 23> O   1.12339942 -0.55785462 -0.56863135
| 24> H   3.17941788 -0.79652388 1.83883217
| 25> O   6.53148993 -0.82637275 3.06833312
| 26> H   7.07078269 -0.40518593 2.3891896
| 27> H   5.64231855 -0.82622166 2.69761765
| 28> H   4.34633109 -1.4039717 1.07240915
| 29> O   4.1510296 -0.80618134 1.80680309
| 30> *
| 31> 
| 32>                          ****END OF INPUT****
================================================================================

                       *****************************
                       * Geometry Optimization Run *
                       *****************************

Geometry optimization settings:
Update method            Update   .... BFGS
Choice of coordinates    CoordSys .... Z-matrix Internals
Initial Hessian          InHess   .... Almoef's Model

Convergence Tolerances:
Energy Change            TolE     ....  5.0000e-06 Eh
Max. Gradient            TolMAXG  ....  3.0000e-04 Eh/bohr
RMS Gradient             TolRMSG  ....  1.0000e-04 Eh/bohr
Max. Displacement        TolMAXD  ....  4.0000e-03 bohr
RMS Displacement         TolRMSD  ....  2.0000e-03 bohr
Strict Convergence                ....  False
------------------------------------------------------------------------------
                        ORCA OPTIMIZATION COORDINATE SETUP
------------------------------------------------------------------------------

The optimization will be done in new redundant internal coordinates
Making redundant internal coordinates   ...  (new redundants) done
Evaluating the initial hessian          ...  (Almloef) done
Evaluating the coordinates              ...  done
Calculating the B-matrix                .... done
Calculating the G-matrix                .... done
Diagonalizing the G-matrix              .... done
The first mode is                       ....  206
The number of degrees of freedom        ....   69

    -----------------------------------------------------------------
                    Redundant Internal Coordinates


    -----------------------------------------------------------------
         Definition                    Initial Value    Approx d2E/dq
    -----------------------------------------------------------------
      1. B(C   1,C   0)                  1.3940         0.615705   
      2. B(C   2,C   1)                  1.3982         0.606201   
      3. B(C   3,C   2)                  1.4007         0.600761   
      4. B(C   4,C   3)                  1.3849         0.636616   
      5. B(C   5,C   0)                  1.3948         0.613771   
      6. B(C   5,C   4)                  1.3864         0.633022   
      7. B(H   6,C   0)                  1.0913         0.358324   
      8. B(H   7,C   1)                  1.0911         0.358672   
      9. B(H   8,C   3)                  1.0912         0.358579   
     10. B(Cl  9,C   4)                  1.7236         0.411590   
     11. B(H  10,C   5)                  1.0896         0.360691   
     12. B(C  11,C   2)                  1.4628         0.478145   
     13. B(C  12,C  11)                  1.4893         0.433881   
     14. B(H  13,C  12)                  1.1003         0.346738   
     15. B(H  14,C  12)                  1.1014         0.345355   
     16. B(H  15,C  12)                  1.0998         0.347320   
     17. B(N  16,C  11)                  1.3282         0.702345   
     18. B(O  17,N  16)                  1.2637         0.797022   
     19. B(O  18,N  16)                  1.2649         0.793470   
     20. B(H  19,N  16)                  2.5128         0.001732   
     21. B(H  19,H  15)                  2.5845         0.000285   
     22. B(H  19,H  13)                  2.5964         0.000272   
     23. B(H  19,C  12)                  2.5625         0.001611   
     24. B(H  19,C  11)                  2.1773         0.006634   
     25. B(H  19,H   7)                  2.1683         0.001313   
     26. B(H  21,O  20)                  0.9641         0.512201   
     27. B(H  22,O  20)                  0.9634         0.513584   
     28. B(H  23,H  22)                  2.1575         0.001366   
     29. B(O  24,H   7)                  2.5226         0.001671   
     30. B(O  24,H  23)                  0.9669         0.507005   
     31. B(O  24,H  19)                  0.9722         0.497190   
     32. B(O  24,H  22)                  1.7372         0.029921   
     33. A(C   1,C   0,H   6)          119.9418         0.352199   
     34. A(C   5,C   0,H   6)          119.6236         0.352012   
     35. A(C   1,C   0,C   5)          120.4346         0.432737   
     36. A(C   0,C   1,H   7)          119.6189         0.352257   
     37. A(C   2,C   1,H   7)          119.9672         0.351332   
     38. A(C   0,C   1,C   2)          120.4138         0.431773   
     39. A(C   1,C   2,C  11)          121.5117         0.412707   
     40. A(C   3,C   2,C  11)          118.6214         0.412047   
     41. A(C   1,C   2,C   3)          119.8543         0.429872   
     42. A(C   4,C   3,H   8)          121.9333         0.354239   
     43. A(C   2,C   3,C   4)          118.0591         0.433670   
     44. A(C   2,C   3,H   8)          120.0075         0.350782   
     45. A(C   3,C   4,Cl  9)          117.9699         0.423647   
     46. A(C   3,C   4,C   5)          123.4164         0.437775   
     47. A(C   5,C   4,Cl  9)          118.6136         0.423219   
     48. A(C   0,C   5,C   4)          117.8213         0.434902   
     49. A(C   0,C   5,H  10)          120.4229         0.352404   
     50. A(C   4,C   5,H  10)          121.7558         0.354252   
     51. A(H  19,H   7,O  24)           22.3195         0.102266   
     52. A(C   1,H   7,O  24)          139.9207         0.148069   
     53. A(C   1,H   7,H  19)          117.6803         0.134250   
     54. A(C  12,C  11,N  16)          121.5287         0.413702   
     55. A(C   2,C  11,N  16)          120.5649         0.420920   
     56. A(N  16,C  11,H  19)           88.1144         0.198021   
     57. A(C  12,C  11,H  19)           86.5363         0.187572   
     58. A(C   2,C  11,H  19)          103.1379         0.189763   
     59. A(C   2,C  11,C  12)          117.3305         0.389107   
     60. A(H  15,C  12,H  19)           78.7826         0.147846   
     61. A(H  14,C  12,H  15)          106.9214         0.287310   
     62. A(H  13,C  12,H  15)          107.2817         0.287489   
     63. A(C  11,C  12,H  15)          111.6725         0.330443   
     64. A(C  11,C  12,H  19)           58.0055         0.160553   
     65. A(H  13,C  12,H  14)          106.8678         0.287235   
     66. A(C  11,C  12,H  14)          111.2433         0.330133   
     67. A(C  11,C  12,H  13)          112.5386         0.330352   
     68. A(H  13,C  12,H  19)           79.4124         0.147824   
     69. A(H  14,C  12,H  19)          169.2454         0.147770   
     70. A(C  12,H  13,H  19)           75.9695         0.120457   
     71. A(C  12,H  15,H  19)           76.5455         0.120780   
     72. A(C  11,N  16,H  19)           59.9969         0.168510   
     73. A(C  11,N  16,O  17)          122.0301         0.455447   
     74. A(C  11,N  16,O  18)          121.3033         0.455077   
     75. A(O  17,N  16,O  18)          116.6355         0.462545   
     76. A(O  18,N  16,H  19)          109.9196         0.170050   
     77. A(O  17,N  16,H  19)           99.1085         0.170132   
     78. A(H  13,H  19,H  15)           39.9955         0.094037   
     79. A(C  12,H  19,H  15)           24.6719         0.098418   
     80. A(C  11,H  19,H  15)           52.9377         0.101975   
     81. A(H   7,H  19,H  15)           84.8265         0.096190   
     82. A(H  15,H  19,O  24)          133.2434         0.123067   
     83. A(C  12,H  19,H  13)           24.6182         0.098326   
     84. A(C  11,H  19,H  13)           53.0462         0.101847   
     85. A(H   7,H  19,H  13)          119.9661         0.096119   
     86. A(H  13,H  19,O  24)          132.4886         0.122732   
     87. A(C  11,H  19,C  12)           35.4582         0.113024   
     88. A(H   7,H  19,C  12)           95.4498         0.102313   
     89. A(C  12,H  19,O  24)          151.0830         0.152079   
     90. A(H   7,H  19,C  11)           77.6586         0.107340   
     91. A(C  11,H  19,O  24)          173.4127         0.175898   
     92. A(H  15,H  19,N  16)           80.9568         0.098463   
     93. A(C  12,H  19,N  16)           57.9701         0.106521   
     94. A(H   7,H  19,O  24)           99.7923         0.137153   
     95. A(C  11,H  19,N  16)           31.8887         0.113137   
     96. A(H   7,H  19,N  16)           94.3490         0.102375   
     97. A(N  16,H  19,O  24)          143.7269         0.152376   
     98. A(H  13,H  19,N  16)           62.4595         0.098370   
     99. A(H  21,O  20,H  22)          104.1910         0.320397   
    100. A(H  23,H  22,O  24)           25.9926         0.114720   
    101. A(O  20,H  22,O  24)          171.7549         0.210669   
    102. A(O  20,H  22,H  23)          147.5946         0.137946   
    103. A(H  22,H  23,O  24)           51.9461         0.137804   
    104. A(H   7,O  24,H  22)          115.1291         0.122275   
    105. A(H  22,O  24,H  23)          102.0614         0.210314   
    106. A(H  19,O  24,H  22)          147.2620         0.209778   
    107. A(H   7,O  24,H  23)          132.8326         0.152138   
    108. A(H   7,O  24,H  19)           57.8881         0.151859   
    109. A(H  19,O  24,H  23)          103.4761         0.318174   
    110. D(C   2,C   1,C   0,H   6)   -179.8989         0.026210   
    111. D(C   2,C   1,C   0,C   5)      0.0358         0.026210   
    112. D(H   7,C   1,C   0,C   5)    179.9672         0.026210   
    113. D(H   7,C   1,C   0,H   6)      0.0326         0.026210   
    114. D(C  11,C   2,C   1,C   0)   -178.8697         0.025362   
    115. D(C  11,C   2,C   1,H   7)      1.1991         0.025362   
    116. D(C   3,C   2,C   1,C   0)     -0.1771         0.025362   
    117. D(C   3,C   2,C   1,H   7)    179.8917         0.025362   
    118. D(H   8,C   3,C   2,C   1)   -179.7757         0.024884   
    119. D(C   4,C   3,C   2,C  11)    178.9050         0.024884   
    120. D(H   8,C   3,C   2,C  11)     -1.0454         0.024884   
    121. D(C   4,C   3,C   2,C   1)      0.1748         0.024884   
    122. D(C   5,C   4,C   3,C   2)     -0.0353         0.028138   
    123. D(Cl  9,C   4,C   3,C   2)    179.8146         0.028138   
    124. D(C   5,C   4,C   3,H   8)    179.9141         0.028138   
    125. D(Cl  9,C   4,C   3,H   8)     -0.2360         0.028138   
    126. D(C   4,C   5,C   0,C   1)      0.1012         0.026036   
    127. D(H  10,C   5,C   0,C   1)   -179.9109         0.026036   
    128. D(H  10,C   5,C   4,C   3)    179.9098         0.027801   
    129. D(H  10,C   5,C   4,Cl  9)      0.0608         0.027801   
    130. D(C   0,C   5,C   4,C   3)     -0.1026         0.027801   
    131. D(C   4,C   5,C   0,H   6)   -179.9639         0.026036   
    132. D(H  10,C   5,C   0,H   6)      0.0240         0.026036   
    133. D(C   0,C   5,C   4,Cl  9)   -179.9515         0.027801   
    134. D(O  24,H   7,C   1,C   2)      0.1342         0.120300   
    135. D(O  24,H   7,C   1,C   0)   -179.7975         0.120300   
    136. D(H  19,H   7,C   1,C   0)    177.7460         0.120300   
    137. D(H  19,H   7,C   1,C   2)     -2.3222         0.120300   
    138. D(C  12,C  11,C   2,C   1)     93.4435         0.016857   
    139. D(N  16,C  11,C   2,C   1)    -95.1265         0.016857   
    140. D(H  19,C  11,C   2,C   3)   -178.1761         0.016857   
    141. D(H  19,C  11,C   2,C   1)      0.5322         0.016857   
    142. D(N  16,C  11,C   2,C   3)     86.1653         0.016857   
    143. D(C  12,C  11,C   2,C   3)    -85.2648         0.016857   
    144. D(H  14,C  12,C  11,H  19)    179.6990         0.015807   
    145. D(H  13,C  12,C  11,H  19)    -60.4073         0.015807   
    146. D(H  19,C  12,C  11,N  16)     85.6525         0.015807   
    147. D(H  19,C  12,C  11,C   2)   -103.0054         0.015807   
    148. D(H  15,C  12,C  11,H  19)     60.3244         0.015807   
    149. D(H  15,C  12,C  11,N  16)    145.9769         0.015807   
    150. D(H  13,C  12,C  11,C   2)   -163.4127         0.015807   
    151. D(H  14,C  12,C  11,C   2)     76.6936         0.015807   
    152. D(H  14,C  12,C  11,N  16)    -94.6486         0.015807   
    153. D(H  13,C  12,C  11,N  16)     25.2451         0.015807   
    154. D(H  15,C  12,C  11,C   2)    -42.6809         0.015807   
    155. D(H  19,H  13,C  12,H  15)    -74.6085         0.120852   
    156. D(H  19,H  13,C  12,C  11)     48.6115         0.120852   
    157. D(H  19,H  13,C  12,H  14)    171.0070         0.120852   
    158. D(H  19,H  15,C  12,C  11)    -48.6958         0.121344   
    159. D(H  19,H  15,C  12,H  13)     75.0560         0.121344   
    160. D(H  19,H  15,C  12,H  14)   -170.5954         0.121344   
    161. D(O  18,N  16,C  11,C  12)    178.9514         0.047860   
    162. D(O  17,N  16,C  11,C   2)   -174.2101         0.047860   
    163. D(O  17,N  16,C  11,H  19)     81.6273         0.047860   
    164. D(O  17,N  16,C  11,C  12)     -3.1449         0.047860   
    165. D(O  18,N  16,C  11,H  19)    -96.2764         0.047860   
    166. D(O  18,N  16,C  11,C   2)      7.8861         0.047860   
    167. D(H  19,N  16,C  11,C  12)    -84.7722         0.047860   
    168. D(H  19,N  16,C  11,C   2)    104.1625         0.047860   
    169. D(C  12,H  19,H   7,C   1)    -28.8322         0.001523   
    170. D(C  11,H  19,N  16,O  17)   -121.8487         0.001503   
    171. D(C  11,H  19,H   7,O  24)   -173.8101         0.001523   
    172. D(C  11,H  19,H   7,C   1)      2.0229         0.001523   
    173. D(H   7,H  19,N  16,C  11)    -58.1298         0.001503   
    174. D(O  24,H  19,N  16,O  18)    -55.8070         0.001503   
    175. D(O  24,H  19,H   7,C   1)    175.8330         0.001523   
    176. D(O  24,H  19,N  16,C  11)   -171.2045         0.001503   
    177. D(N  16,H  19,H  15,C  12)     19.9357         0.001501   
    178. D(H  13,H  19,H  15,C  12)    -37.4662         0.001501   
    179. D(C  11,H  19,H  15,C  12)     36.7559         0.001501   
    180. D(H   7,H  19,H  15,C  12)    115.1862         0.001501   
    181. D(O  24,H  19,H  15,C  12)   -146.2286         0.001501   
    182. D(N  16,H  19,H  13,C  12)    -72.6718         0.001501   
    183. D(C  11,H  19,H  13,C  12)    -36.3792         0.001501   
    184. D(H   7,H  19,H  13,C  12)      5.6779         0.001501   
    185. D(O  24,H  19,H  13,C  12)    148.2709         0.001501   
    186. D(N  16,H  19,C  12,H  14)    -33.5025         0.001502   
    187. D(N  16,H  19,C  12,H  13)     93.2105         0.001502   
    188. D(N  16,H  19,C  12,C  11)    -31.9987         0.001502   
    189. D(H  15,H  19,C  12,H  13)   -110.1922         0.001502   
    190. D(H  15,H  19,C  12,C  11)    124.5986         0.001502   
    191. D(H  13,H  19,C  12,H  15)    110.1922         0.001502   
    192. D(H  13,H  19,C  12,H  14)   -126.7130         0.001502   
    193. D(H  13,H  19,C  12,C  11)   -125.2091         0.001502   
    194. D(C  11,H  19,C  12,H  15)   -124.5986         0.001502   
    195. D(C  11,H  19,C  12,H  14)     -1.5039         0.001502   
    196. D(H   7,H  19,C  12,H  15)    -64.8685         0.001502   
    197. D(H   7,H  19,C  12,H  14)     58.2263         0.001502   
    198. D(H   7,H  19,C  12,H  13)   -175.0607         0.001502   
    199. D(H   7,H  19,C  12,C  11)     59.7301         0.001502   
    200. D(O  24,H  19,C  12,H  15)     56.8693         0.001502   
    201. D(O  24,H  19,C  12,H  14)    179.9641         0.001502   
    202. D(O  24,H  19,C  12,H  13)    -53.3229         0.001502   
    203. D(C  11,H  19,C  12,H  13)    125.2091         0.001502   
    204. D(O  24,H  19,C  12,C  11)   -178.5320         0.001502   
    205. D(N  16,H  19,C  11,C  12)    121.7463         0.001530   
    206. D(N  16,H  19,C  11,C   2)   -120.9828         0.001530   
    207. D(H  15,H  19,C  11,N  16)   -147.2512         0.001530   
    208. D(H  13,H  19,C  11,N  16)    -96.5376         0.001530   
    209. D(H  13,H  19,C  11,C  12)     25.2087         0.001530   
    210. D(H   7,H  19,C  11,C  12)   -118.3462         0.001530   
    211. D(H  15,H  19,C  12,H  14)    123.0948         0.001502   
    212. D(C  12,H  19,C  11,C   2)    117.2709         0.001530   
    213. D(H   7,H  19,C  11,N  16)    119.9074         0.001530   
    214. D(H  13,H  19,C  11,C   2)    142.4796         0.001530   
    215. D(N  16,H  19,C  12,H  15)   -156.5973         0.001502   
    216. D(H   7,H  19,C  11,C   2)     -1.0754         0.001530   
    217. D(O  24,H  19,C  11,N  16)     52.0547         0.001530   
    218. D(O  24,H  19,C  11,C  12)    173.8011         0.001530   
    219. D(H  15,H  19,H  13,C  12)     37.5561         0.001501   
    220. D(C  12,H  19,C  11,N  16)   -121.7463         0.001530   
    221. D(O  24,H  19,C  11,C   2)    -68.9281         0.001530   
    222. D(N  16,H  19,H   7,O  24)   -146.4717         0.001523   
    223. D(H  15,H  19,C  11,C  12)    -25.5048         0.001530   
    224. D(N  16,H  19,H   7,C   1)     29.3613         0.001523   
    225. D(H  15,H  19,H   7,O  24)    133.0350         0.001523   
    226. D(H  15,H  19,C  11,C   2)     91.7660         0.001530   
    227. D(O  24,H  19,N  16,O  17)     66.9469         0.001503   
    228. D(H  15,H  19,N  16,O  18)    141.3169         0.001503   
    229. D(H  15,H  19,N  16,C  11)     25.9194         0.001503   
    230. D(H   7,H  19,N  16,O  17)   -179.9784         0.001503   
    231. D(H   7,H  19,N  16,O  18)     57.2677         0.001503   
    232. D(H  13,H  19,H   7,O  24)    152.9620         0.001523   
    233. D(C  11,H  19,N  16,O  18)    115.3975         0.001503   
    234. D(C  12,H  19,N  16,C  11)     35.5841         0.001503   
    235. D(C  12,H  19,N  16,O  17)    -86.2645         0.001503   
    236. D(H  13,H  19,N  16,O  18)    178.9554         0.001503   
    237. D(H  13,H  19,N  16,O  17)    -58.2907         0.001503   
    238. D(H  13,H  19,H   7,C   1)    -31.2050         0.001523   
    239. D(H  13,H  19,N  16,C  11)     63.5580         0.001503   
    240. D(C  12,H  19,N  16,O  18)    150.9816         0.001503   
    241. D(H  15,H  19,N  16,O  17)    -95.9293         0.001503   
    242. D(C  12,H  19,H   7,O  24)    155.3348         0.001523   
    243. D(H  15,H  19,H   7,C   1)    -51.1319         0.001523   
    244. D(O  24,H  22,O  20,H  21)     22.2347         0.334947   
    245. D(H  23,H  22,O  20,H  21)     56.7826         0.334947   
    246. D(O  24,H  23,H  22,O  20)   -169.3058         0.001517   
    247. D(H   7,O  24,H  23,H  22)    142.2077         0.359294   
    248. D(H  19,O  24,H  23,H  22)   -159.3412         0.359294   
    249. D(H   7,O  24,H  22,H  23)   -150.2396         0.002092   
    250. D(H   7,O  24,H  22,O  20)   -106.3353         0.002092   
    251. D(H  23,O  24,H  22,O  20)     43.9043         0.002092   
    252. D(H  19,O  24,H  22,H  23)    140.6237         0.002092   
    253. D(H  19,O  24,H  22,O  20)   -175.4720         0.002092   
    254. D(H  22,O  24,H  19,H  15)     -4.9158         0.482007   
    255. D(H  22,O  24,H  19,H  13)    -60.5330         0.482007   
    256. D(H  22,O  24,H  19,C  12)    -33.5926         0.482007   
    257. D(H  22,O  24,H  19,H   7)     87.1877         0.482007   
    258. D(H   7,O  24,H  19,N  16)    111.4231         0.482007   
    259. D(H   7,O  24,H  19,H  15)    -92.1034         0.482007   
    260. D(H   7,O  24,H  19,H  13)   -147.7206         0.482007   
    261. D(H   7,O  24,H  19,C  12)   -120.7802         0.482007   
    262. D(H   7,O  24,H  19,C  11)     66.6631         0.482007   
    263. D(H  22,O  24,H  19,C  11)    153.8508         0.482007   
    264. D(H  23,O  24,H  19,N  16)    -21.0299         0.482007   
    265. D(H  23,O  24,H  19,H  15)    135.4435         0.482007   
    266. D(H  23,O  24,H  19,H  13)     79.8263         0.482007   
    267. D(H  22,O  24,H  19,N  16)   -161.3892         0.482007   
    268. D(H  23,O  24,H  19,C  12)    106.7667         0.482007   
    269. D(H  23,O  24,H  19,C  11)    -65.7900         0.482007   
    270. D(H  23,O  24,H  19,H   7)   -132.4531         0.482007   
    271. D(H  22,O  24,H   7,H  19)   -143.3721         0.001502   
    272. D(H  22,O  24,H   7,C   1)   -149.1080         0.001502   
    273. D(H  23,O  24,H   7,H  19)     78.0745         0.001502   
    274. D(H  23,O  24,H   7,C   1)     72.3387         0.001502   
    275. D(H  19,O  24,H   7,C   1)     -5.7358         0.001502   
    -----------------------------------------------------------------

Number of atoms                         .... 25
Number of degrees of freedom            .... 275

         *************************************************************
         *                GEOMETRY OPTIMIZATION CYCLE   1            *
         *************************************************************
---------------------------------
CARTESIAN COORDINATES (ANGSTROEM)
---------------------------------
  C      1.532948    3.051413    2.077840
  C      1.802365    1.689696    1.949981
  C      0.757820    0.772655    1.798341
  C     -0.568238    1.223285    1.778316
  C     -0.796179    2.583118    1.908094
  C      0.218107    3.516549    2.056906
  H      2.354256    3.760610    2.194154
  H      2.835909    1.340505    1.967605
  H     -1.385502    0.509439    1.663787
  Cl    -2.428573    3.135629    1.878253
  H      0.007824    4.581071    2.155407
  C      1.011563   -0.663651    1.686620
  C      0.964722   -1.465833    2.940500
  H      1.440868   -2.451440    2.828656
  H     -0.073678   -1.646949    3.259813
  H      1.469884   -0.951284    3.770976
  N      1.103654   -1.242531    0.494813
  O      1.214792   -2.494615    0.364643
  O      1.123399   -0.557855   -0.568631
  H      3.179418   -0.796524    1.838832
  O      6.531490   -0.826373    3.068333
  H      7.070783   -0.405186    2.389190
  H      5.642319   -0.826222    2.697618
  H      4.346331   -1.403972    1.072409
  O      4.151030   -0.806181    1.806803

----------------------------
CARTESIAN COORDINATES (A.U.)
----------------------------
  NO LB      ZA    FRAG     MASS         X           Y           Z
   0 C     6.0000    0    12.011    2.896852    5.766336    3.926549
   1 C     6.0000    0    12.011    3.405975    3.193062    3.684930
   2 C     6.0000    0    12.011    1.432073    1.460106    3.398371
   3 C     6.0000    0    12.011   -1.073815    2.311674    3.360530
   4 C     6.0000    0    12.011   -1.504561    4.881385    3.605775
   5 C     6.0000    0    12.011    0.412162    6.645315    3.886989
   6 H     1.0000    0     1.008    4.448899    7.106522    4.146350
   7 H     1.0000    0     1.008    5.359092    2.533187    3.718235
   8 H     1.0000    0     1.008   -2.618219    0.962699    3.144101
   9 Cl   17.0000    0    35.453   -4.589337    5.925479    3.549383
  10 H     1.0000    0     1.008    0.014786    8.656969    4.073129
  11 C     6.0000    0    12.011    1.911577   -1.254119    3.187250
  12 C     6.0000    0    12.011    1.823061   -2.770023    5.556740
  13 H     1.0000    0     1.008    2.722846   -4.632549    5.345386
  14 H     1.0000    0     1.008   -0.139232   -3.112282    6.160154
  15 H     1.0000    0     1.008    2.777678   -1.797666    7.126113
  16 N     7.0000    0    14.007    2.085604   -2.348043    0.935060
  17 O     8.0000    0    15.999    2.295624   -4.714139    0.689076
  18 O     8.0000    0    15.999    2.122917   -1.054192   -1.074558
  19 H     1.0000    0     1.008    6.008229   -1.505212    3.474889
  20 O     8.0000    0    15.999   12.342727   -1.561618    5.798309
  21 H     1.0000    0     1.008   13.361843   -0.765690    4.514914
  22 H     1.0000    0     1.008   10.662437   -1.561333    5.097759
  23 H     1.0000    0     1.008    8.213375   -2.653122    2.026560
  24 O     8.0000    0    15.999    7.844309   -1.523462    3.414363

--------------------------------
INTERNAL COORDINATES (ANGSTROEM)
--------------------------------
 C      0   0   0     0.000000000000     0.00000000     0.00000000
 C      1   0   0     1.393990190596     0.00000000     0.00000000
 C      2   1   0     1.398224567698   120.41383964     0.00000000
 C      3   2   1     1.400678499432   119.85434710   359.82290158
 C      4   3   2     1.384898643717   118.05912282     0.17476532
 C      5   4   3     1.386439739805   123.41640313   359.96468114
 H      1   2   3     1.091345551850   119.94176096   180.10109178
 H      2   1   3     1.091081779146   119.61887842   179.93146223
 H      4   3   2     1.091152346595   120.00754523   180.22431807
 Cl     5   4   3     1.723619975795   117.96987656   179.81455578
 H      6   5   4     1.089553829598   121.75579864   179.90975787
 C      3   2   1     1.462819762258   121.51165098   181.13028359
 C     12   3   2     1.489263278063   117.33047262    93.44348106
 H     13  12   3     1.100292686876   112.53858042   196.58728795
 H     13  12   3     1.101380787126   111.24325124    76.69357120
 H     13  12   3     1.099836404861   111.67247805   317.31906221
 N     12   3   2     1.328151606463   120.56491107   264.87352915
 O     17  12   3     1.263728776518   122.03013058   185.78985109
 O     17  12   3     1.264944376172   121.30326517     7.88614074
 H      8   2   1     2.168287719626   117.68029378   177.74598961
 O     20   8   2     3.570567261582    97.84642595   198.04368113
 H     21  20   8     0.964090731772   106.19624538   290.82443539
 H     21  20   8     0.963356489331     2.53384146   252.92411603
 H     20   8   2     1.522525382147   122.99318242   142.92710966
 O     24  20   8     0.966866301830    38.38593151    60.09779490

---------------------------
INTERNAL COORDINATES (A.U.)
---------------------------
 C      0   0   0     0.000000000000     0.00000000     0.00000000
 C      1   0   0     2.634259693599     0.00000000     0.00000000
 C      2   1   0     2.642261506670   120.41383964     0.00000000
 C      3   2   1     2.646898765598   119.85434710   359.82290158
 C      4   3   2     2.617079159865   118.05912282     0.17476532
 C      5   4   3     2.619991409416   123.41640313   359.96468114
 H      1   2   3     2.062344210471   119.94176096   180.10109178
 H      2   1   3     2.061845752297   119.61887842   179.93146223
 H      4   3   2     2.061979105451   120.00754523   180.22431807
 Cl     5   4   3     3.257169713208   117.96987656   179.81455578
 H      6   5   4     2.058958346106   121.75579864   179.90975787
 C      3   2   1     2.764328733955   121.51165098   181.13028359
 C     12   3   2     2.814299736844   117.33047262    93.44348106
 H     13  12   3     2.079251845352   112.53858042   196.58728795
 H     13  12   3     2.081308056832   111.24325124    76.69357120
 H     13  12   3     2.078389597304   111.67247805   317.31906221
 N     12   3   2     2.509842800543   120.56491107   264.87352915
 O     17  12   3     2.388101295173   122.03013058   185.78985109
 O     17  12   3     2.390398445610   121.30326517     7.88614074
 H      8   2   1     4.097469969637   117.68029378   177.74598961
 O     20   8   2     6.747394267135    97.84642595   198.04368113
 H     21  20   8     1.821867451300   106.19624538   290.82443539
 H     21  20   8     1.820479934172     2.53384146   252.92411603
 H     20   8   2     2.877156004201   122.99318242   142.92710966
 O     24  20   8     1.827112518575    38.38593151    60.09779490

---------------------
BASIS SET INFORMATION
---------------------
There are 5 groups of distinct atoms

 Group   1 Type C   : 11s6p2d1f contracted to 5s3p2d1f pattern {62111/411/11/1}
 Group   2 Type H   : 5s1p contracted to 3s1p pattern {311/1}
 Group   3 Type Cl  : 14s9p3d1f contracted to 5s5p2d1f pattern {73211/51111/21/1}
 Group   4 Type N   : 11s6p2d1f contracted to 5s3p2d1f pattern {62111/411/11/1}
 Group   5 Type O   : 11s6p2d1f contracted to 5s3p2d1f pattern {62111/411/11/1}

Atom   0C    basis set group =>   1
Atom   1C    basis set group =>   1
Atom   2C    basis set group =>   1
Atom   3C    basis set group =>   1
Atom   4C    basis set group =>   1
Atom   5C    basis set group =>   1
Atom   6H    basis set group =>   2
Atom   7H    basis set group =>   2
Atom   8H    basis set group =>   2
Atom   9Cl   basis set group =>   3
Atom  10H    basis set group =>   2
Atom  11C    basis set group =>   1
Atom  12C    basis set group =>   1
Atom  13H    basis set group =>   2
Atom  14H    basis set group =>   2
Atom  15H    basis set group =>   2
Atom  16N    basis set group =>   4
Atom  17O    basis set group =>   5
Atom  18O    basis set group =>   5
Atom  19H    basis set group =>   2
Atom  20O    basis set group =>   5
Atom  21H    basis set group =>   2
Atom  22H    basis set group =>   2
Atom  23H    basis set group =>   2
Atom  24O    basis set group =>   5
---------------------------------
AUXILIARY/J BASIS SET INFORMATION
---------------------------------
There are 5 groups of distinct atoms

 Group   1 Type C   : 12s5p4d2f1g contracted to 6s4p3d1f1g pattern {711111/2111/211/2/1}
 Group   2 Type H   : 5s2p1d contracted to 3s1p1d pattern {311/2/1}
 Group   3 Type Cl  : 14s5p5d2f1g contracted to 8s4p3d1f1g pattern {71111111/2111/311/2/1}
 Group   4 Type N   : 12s5p4d2f1g contracted to 6s4p3d1f1g pattern {711111/2111/211/2/1}
 Group   5 Type O   : 12s5p4d2f1g contracted to 6s4p3d1f1g pattern {711111/2111/211/2/1}

Atom   0C    basis set group =>   1
Atom   1C    basis set group =>   1
Atom   2C    basis set group =>   1
Atom   3C    basis set group =>   1
Atom   4C    basis set group =>   1
Atom   5C    basis set group =>   1
Atom   6H    basis set group =>   2
Atom   7H    basis set group =>   2
Atom   8H    basis set group =>   2
Atom   9Cl   basis set group =>   3
Atom  10H    basis set group =>   2
Atom  11C    basis set group =>   1
Atom  12C    basis set group =>   1
Atom  13H    basis set group =>   2
Atom  14H    basis set group =>   2
Atom  15H    basis set group =>   2
Atom  16N    basis set group =>   4
Atom  17O    basis set group =>   5
Atom  18O    basis set group =>   5
Atom  19H    basis set group =>   2
Atom  20O    basis set group =>   5
Atom  21H    basis set group =>   2
Atom  22H    basis set group =>   2
Atom  23H    basis set group =>   2
Atom  24O    basis set group =>   5


           ************************************************************
           *        Program running with 102 parallel MPI-processes   *
           *              working on a common directory               *
           ************************************************************
------------------------------------------------------------------------------
                           ORCA GTO INTEGRAL CALCULATION
                           -- RI-GTO INTEGRALS CHOSEN --
------------------------------------------------------------------------------
------------------------------------------------------------------------------
                   ___                                                        
                  /   \      - P O W E R E D   B Y -                         
                 /     \                                                     
                 |  |  |   _    _      __       _____    __    __             
                 |  |  |  | |  | |    /  \     |  _  \  |  |  /  |          
                  \  \/   | |  | |   /    \    | | | |  |  | /  /          
                 / \  \   | |__| |  /  /\  \   | |_| |  |  |/  /          
                |  |  |   |  __  | /  /__\  \  |    /   |      \           
                |  |  |   | |  | | |   __   |  |    \   |  |\   \          
                \     /   | |  | | |  |  |  |  | |\  \  |  | \   \       
                 \___/    |_|  |_| |__|  |__|  |_| \__\ |__|  \__/        
                                                                              
                      - O R C A' S   B I G   F R I E N D -                    
                                      &                                       
                       - I N T E G R A L  F E E D E R -                       
                                                                              
 v1 FN, 2020, v2 2021                                                         
------------------------------------------------------------------------------


Reading SHARK input file /home/rudenko/mop_saddle_orca_4_serv/for_orca/m-clc6h4chno2ch3_oh/orca/orca_end/end.SHARKINP.tmp ... ok
----------------------
SHARK INTEGRAL PACKAGE
----------------------

Number of atoms                             ...     25
Number of basis functions                   ...    506
Number of shells                            ...    200
Maximum angular momentum                    ...      3
Integral batch strategy                     ... SHARK/LIBINT Hybrid
RI-J (if used) integral strategy            ... SPLIT-RIJ (Revised 2003 algorithm where possible)
Printlevel                                  ...      1
Contraction scheme used                     ... SEGMENTED contraction
Coulomb Range Separation                    ... NOT USED
Exchange Range Separation                   ... NOT USED
Finite Nucleus Model                        ... NOT USED
Auxiliary Coulomb fitting basis             ... AVAILABLE
   # of basis functions in Aux-J            ...    809
   # of shells in Aux-J                     ...    267
   Maximum angular momentum in Aux-J        ...      4
Auxiliary J/K fitting basis                 ... NOT available
Auxiliary Correlation fitting basis         ... NOT available
Auxiliary 'external' fitting basis          ... NOT available
Integral threshold                          ...     2.500000e-11
Primitive cut-off                           ...     2.500000e-12
Primitive pair pre-selection threshold      ...     2.500000e-12

Calculating pre-screening integrals         ... done (  0.1 sec) Dimension = 200
Organizing shell pair data                  ... done (  0.4 sec)
Shell pair information
Total number of shell pairs                 ...     20100
Shell pairs after pre-screening             ...     15284
Total number of primitive shell pairs       ...     62836
Primitive shell pairs kept                  ...     32641
          la=0 lb=0:   3953 shell pairs
          la=1 lb=0:   4413 shell pairs
          la=1 lb=1:   1263 shell pairs
          la=2 lb=0:   2151 shell pairs
          la=2 lb=1:   1220 shell pairs
          la=2 lb=2:    311 shell pairs
          la=3 lb=0:   1028 shell pairs
          la=3 lb=1:    580 shell pairs
          la=3 lb=2:    288 shell pairs
          la=3 lb=3:     77 shell pairs

Calculating one electron integrals          ... done (  0.1 sec)
Calculating RI/J V-Matrix + Cholesky decomp.... done (  0.1 sec)
Calculating Nuclear repulsion               ... done (  0.0 sec) ENN=    974.083338161915 Eh

SHARK setup successfully completed in   1.1 seconds

Maximum memory used throughout the entire GTOINT-calculation: 29.2 MB


           ************************************************************
           *        Program running with 102 parallel MPI-processes   *
           *              working on a common directory               *
           ************************************************************
-------------------------------------------------------------------------------
                                 ORCA SCF
-------------------------------------------------------------------------------

------------
SCF SETTINGS
------------
Hamiltonian:
 Density Functional     Method          .... DFT(GTOs)
 Exchange Functional    Exchange        .... B88
   X-Alpha parameter    XAlpha          ....  0.666667
   Becke's b parameter  XBeta           ....  0.004200
 Correlation Functional Correlation     .... LYP
 LDA part of GGA corr.  LDAOpt          .... VWN-5
 Gradients option       PostSCFGGA      .... off
 Hybrid DFT is turned on
   Fraction HF Exchange ScalHFX         ....  0.200000
   Scaling of DF-GGA-X  ScalDFX         ....  0.720000
   Scaling of DF-GGA-C  ScalDFC         ....  0.810000
   Scaling of DF-LDA-C  ScalLDAC        ....  1.000000
   Perturbative correction              ....  0.000000
   Density functional embedding theory  .... OFF
   NL short-range parameter             ....  4.800000
 RI-approximation to the Coulomb term is turned on
   Number of AuxJ basis functions       .... 809
   RIJ-COSX (HFX calculated with COS-X)).... on


General Settings:
 Integral files         IntName         .... /home/rudenko/mop_saddle_orca_4_serv/for_orca/m-clc6h4chno2ch3_oh/orca/orca_end/end
 Hartree-Fock type      HFTyp           .... RHF
 Total Charge           Charge          ....   -1
 Multiplicity           Mult            ....    1
 Number of Electrons    NEL             ....  116
 Basis Dimension        Dim             ....  506
 Nuclear Repulsion      ENuc            ....    974.0833381619 Eh

Convergence Acceleration:
 DIIS                   CNVDIIS         .... on
   Start iteration      DIISMaxIt       ....    12
   Startup error        DIISStart       ....  0.200000
   # of expansion vecs  DIISMaxEq       ....     5
   Bias factor          DIISBfac        ....   1.050
   Max. coefficient     DIISMaxC        ....  10.000
 Trust-Rad. Augm. Hess. CNVTRAH         .... auto
   Auto Start mean grad. ratio tolernc. ....  1.125000
   Auto Start start iteration           ....    20
   Auto Start num. interpolation iter.  ....    10
   Max. Number of Micro iterations      ....    16
   Max. Number of Macro iterations      .... Maxiter - #DIIS iter
   Number of Davidson start vectors     ....     2
   Converg. threshold I  (grad. norm)   ....   1.000e-05
   Converg. threshold II (energy diff.) ....   1.000e-08
   Grad. Scal. Fac. for Micro threshold ....   0.100
   Minimum threshold for Micro iter.    ....   0.010
   NR start threshold (gradient norm)   ....   0.001
   Initial trust radius                 ....   0.400
   Minimum AH scaling param. (alpha)    ....   1.000
   Maximum AH scaling param. (alpha)    .... 1000.000
   Orbital update algorithm             .... Taylor
   White noise on init. David. guess    .... on
   Maximum white noise                  ....   0.010
   Quad. conv. algorithm                .... NR
 SOSCF                  CNVSOSCF        .... on
   Start iteration      SOSCFMaxIt      ....   150
   Startup grad/error   SOSCFStart      ....  0.003300
 Level Shifting         CNVShift        .... on
   Level shift para.    LevelShift      ....    0.2500
   Turn off err/grad.   ShiftErr        ....    0.0010
 Zerner damping         CNVZerner       .... off
 Static damping         CNVDamp         .... on
   Fraction old density DampFac         ....    0.7000
   Max. Damping (<1)    DampMax         ....    0.9800
   Min. Damping (>=0)   DampMin         ....    0.0000
   Turn off err/grad.   DampErr         ....    0.1000
 Fernandez-Rico         CNVRico         .... off

SCF Procedure:
 Maximum # iterations   MaxIter         ....   125
 SCF integral mode      SCFMode         .... Direct
   Integral package                     .... SHARK and LIBINT hybrid scheme
 Reset frequency        DirectResetFreq ....    20
 Integral Threshold     Thresh          ....  2.500e-11 Eh
 Primitive CutOff       TCut            ....  2.500e-12 Eh

Convergence Tolerance:
 Convergence Check Mode ConvCheckMode   .... Total+1el-Energy
 Convergence forced     ConvForced      .... 0
 Energy Change          TolE            ....  1.000e-08 Eh
 1-El. energy change                    ....  1.000e-05 Eh
 Orbital Gradient       TolG            ....  1.000e-05
 Orbital Rotation angle TolX            ....  1.000e-05
 DIIS Error             TolErr          ....  5.000e-07


Diagonalization of the overlap matrix:
Smallest eigenvalue                        ... 7.959e-06
Time for diagonalization                   ...    0.080 sec
Threshold for overlap eigenvalues          ... 1.000e-08
Number of eigenvalues below threshold      ... 0
Time for construction of square roots      ...    0.175 sec
Total time needed                          ...    0.258 sec

Time for model grid setup =    0.187 sec

------------------------------
INITIAL GUESS: MODEL POTENTIAL
------------------------------
Loading Hartree-Fock densities                     ... done
Calculating cut-offs                               ... done
Initializing the effective Hamiltonian             ... done
Setting up the integral package (SHARK)            ... done
Starting the Coulomb interaction                   ... done (   0.0 sec)
Reading the grid                                   ... done
Mapping shells                                     ... done
Starting the XC term evaluation                    ... done (   0.0 sec)
  promolecular density results
     # of electrons  =    114.995617339
     EX              =   -111.278690658
     EC              =     -4.076169018
     EX+EC           =   -115.354859676
Transforming the Hamiltonian                       ... done (   0.2 sec)
Diagonalizing the Hamiltonian                      ... done (   0.1 sec)
Back transforming the eigenvectors                 ... done (   0.0 sec)
Now organizing SCF variables                       ... done
                      ------------------
                      INITIAL GUESS DONE (   0.7 sec)
                      ------------------
-------------------
DFT GRID GENERATION
-------------------

General Integration Accuracy     IntAcc      ... 4.388
Radial Grid Type                 RadialGrid  ... OptM3 with GC (2021)
Angular Grid (max. ang.)         AngularGrid ... 4 (Lebedev-302)
Angular grid pruning method      GridPruning ... 4 (adaptive)
Weight generation scheme         WeightScheme... Becke
Basis function cutoff            BFCut       ... 1.0000e-11
Integration weight cutoff        WCut        ... 1.0000e-14
Angular grids for H and He will be reduced by one unit
Partially contracted basis set               ... off
Rotationally invariant grid construction     ... off

Total number of grid points                  ...   120870
Total number of batches                      ...     1903
Average number of points per batch           ...       63
Average number of grid points per atom       ...     4835
Time for grid setup =    1.009 sec

--------------------
COSX GRID GENERATION
--------------------

GRIDX 1
-------
General Integration Accuracy     IntAcc      ... 3.816
Radial Grid Type                 RadialGrid  ... OptM3 with GC (2021)
Angular Grid (max. ang.)         AngularGrid ... 1 (Lebedev-50)
Angular grid pruning method      GridPruning ... 4 (adaptive)
Weight generation scheme         WeightScheme... Becke
Basis function cutoff            BFCut       ... 1.0000e-11
Integration weight cutoff        WCut        ... 1.0000e-14
Angular grids for H and He will be reduced by one unit
Partially contracted basis set               ... on
Rotationally invariant grid construction     ... off

Total number of grid points                  ...    15317
Total number of batches                      ...      250
Average number of points per batch           ...       61
Average number of grid points per atom       ...      613
UseSFitting                                  ... on

GRIDX 2
-------
General Integration Accuracy     IntAcc      ... 4.020
Radial Grid Type                 RadialGrid  ... OptM3 with GC (2021)
Angular Grid (max. ang.)         AngularGrid ... 2 (Lebedev-110)
Angular grid pruning method      GridPruning ... 4 (adaptive)
Weight generation scheme         WeightScheme... Becke
Basis function cutoff            BFCut       ... 1.0000e-11
Integration weight cutoff        WCut        ... 1.0000e-14
Angular grids for H and He will be reduced by one unit
Partially contracted basis set               ... on
Rotationally invariant grid construction     ... off

Total number of grid points                  ...    33476
Total number of batches                      ...      535
Average number of points per batch           ...       62
Average number of grid points per atom       ...     1339
UseSFitting                                  ... on

GRIDX 3
-------
General Integration Accuracy     IntAcc      ... 4.338
Radial Grid Type                 RadialGrid  ... OptM3 with GC (2021)
Angular Grid (max. ang.)         AngularGrid ... 3 (Lebedev-194)
Angular grid pruning method      GridPruning ... 4 (adaptive)
Weight generation scheme         WeightScheme... Becke
Basis function cutoff            BFCut       ... 1.0000e-11
Integration weight cutoff        WCut        ... 1.0000e-14
Angular grids for H and He will be reduced by one unit
Partially contracted basis set               ... on
Rotationally invariant grid construction     ... off

Total number of grid points                  ...    73966
Total number of batches                      ...     1168
Average number of points per batch           ...       63
Average number of grid points per atom       ...     2959
UseSFitting                                  ... on

Time for X-Grid setup             =    1.417 sec


--------------------
CPCM SOLVATION MODEL
--------------------
CPCM parameters:
  Epsilon                                         ...      78.4000
  Refrac                                          ...       1.3300
  Rsolv                                           ...       1.3000
  Surface type                                    ... GAUSSIAN VDW
  Epsilon function type                           ...         CPCM
Radii:
 Radius for C  used is    3.8550 Bohr (=   2.0400 Ang.)
 Radius for H  used is    2.4944 Bohr (=   1.3200 Ang.)
 Radius for Cl used is    3.9684 Bohr (=   2.1000 Ang.)
 Radius for N  used is    3.5149 Bohr (=   1.8600 Ang.)
 Radius for O  used is    3.4469 Bohr (=   1.8240 Ang.)
Calculating surface                               ...        done! (  0.0s)
GEPOL surface points                              ...         1465
GEPOL Volume                                      ...    1720.1103
GEPOL Surface-area                                ...     981.8151
Calculating surface distance matrix               ...        done! (  0.1s)
Performing Cholesky decomposition & store         ...        done! (  0.5s)
Overall time for CPCM initialization              ...                 0.6s
--------------
SCF ITERATIONS
--------------
ITER       Energy         Delta-E        Max-DP      RMS-DP      [F,P]     Damp
               ***  Starting incremental Fock matrix formation  ***
  0  -1126.6966695954   0.000000000000 0.17919542  0.00192331  0.3534603 0.7000
  1  -1126.9621908131  -0.265521217677 0.18151921  0.00166358  0.1428951 0.7000
                               ***Turning on DIIS***
  2  -1127.0587060533  -0.096515240228 0.24877772  0.00224557  0.0424878 0.0000
  3  -1127.2180255399  -0.159319486584 0.16956577  0.00140149  0.0841018 0.0000
  4  -1127.2505517553  -0.032526215442 0.04656041  0.00039845  0.0157354 0.0000
  5  -1127.2524958578  -0.001944102524 0.01814432  0.00015505  0.0055355 0.0000
                      *** Initiating the SOSCF procedure ***
                           *** Shutting down DIIS ***
                      *** Re-Reading the Fockian *** 
                      *** Removing any level shift *** 
ITER      Energy       Delta-E        Grad      Rot      Max-DP    RMS-DP
  6  -1127.25263893  -0.0001430677  0.000235  0.000235  0.006068  0.000057
               *** Restarting incremental Fock matrix formation ***
  7  -1127.25262440   0.0000145277  0.000177  0.000609  0.003574  0.000033
  8  -1127.25262294   0.0000014556  0.000260  0.000517  0.000919  0.000012
  9  -1127.25262682  -0.0000038736  0.000073  0.000286  0.000265  0.000004
 10  -1127.25262650   0.0000003204  0.000118  0.000183  0.000249  0.000003
 11  -1127.25262695  -0.0000004550  0.000007  0.000014  0.000288  0.000002
 12  -1127.25262695   0.0000000014  0.000012  0.000010  0.000133  0.000001
                  ***Gradient check signals convergence***
              ***Rediagonalizing the Fockian in SOSCF/NRSCF***

               *****************************************************
               *                     SUCCESS                       *
               *           SCF CONVERGED AFTER  13 CYCLES          *
               *****************************************************

Old exchange energy                            =    -22.534297019 Eh
New exchange energy                            =    -22.534314626 Eh
Exchange energy change after final integration =     -0.000017608 Eh
Total energy after final integration           =  -1127.252644561 Eh
Final COS-X integration done in                =     1.585 sec

----------------
TOTAL SCF ENERGY
----------------

Total Energy       :        -1127.25264456 Eh          -30674.10390 eV

Components:
Nuclear Repulsion  :          974.08333816 Eh           26506.15518 eV
Electronic Energy  :        -2101.33598272 Eh          -57180.25908 eV
One Electron Energy:        -3497.97887581 Eh          -95184.84431 eV
Two Electron Energy:         1396.64289309 Eh           38004.58524 eV
Max COSX asymmetry :            0.00000354 Eh               0.00010 eV
CPCM Dielectric    :           -0.10705477 Eh              -2.91311 eV

Virial components:
Potential Energy   :        -2251.39949713 Eh          -61263.69490 eV
Kinetic Energy     :         1124.14685256 Eh           30589.59100 eV
Virial Ratio       :            2.00276280


DFT components:
N(Alpha)           :       57.999890758703 electrons
N(Beta)            :       57.999890758703 electrons
N(Total)           :      115.999781517406 electrons
E(X)               :      -89.640819687033 Eh       
E(C)               :       -4.838999615616 Eh       
E(XC)              :      -94.479819302649 Eh       
DFET-embed. en.    :        0.000000000000 Eh       
CPCM Solvation Model Properties:
Surface-charge          :            0.97055693
Charge-correction       :           -0.00347804 Eh              -0.09464 eV
Free-energy (cav+disp)  :  This term is not implemented in the current solvation scheme

---------------
SCF CONVERGENCE
---------------

  Last Energy change         ...   -4.1964e-09  Tolerance :   1.0000e-08
  Last MAX-Density change    ...    1.8874e-15  Tolerance :   1.0000e-07
  Last RMS-Density change    ...    1.8477e-17  Tolerance :   5.0000e-09
  Last Orbital Gradient      ...    1.3779e-06  Tolerance :   1.0000e-05
  Last Orbital Rotation      ...    2.4748e-06  Tolerance :   1.0000e-05

             **** THE GBW FILE WAS UPDATED (/home/rudenko/mop_saddle_orca_4_serv/for_orca/m-clc6h4chno2ch3_oh/orca/orca_end/end.gbw) ****
             **** DENSITY /home/rudenko/mop_saddle_orca_4_serv/for_orca/m-clc6h4chno2ch3_oh/orca/orca_end/end.scfp WAS UPDATED ****
             **** ENERGY FILE WAS UPDATED (/home/rudenko/mop_saddle_orca_4_serv/for_orca/m-clc6h4chno2ch3_oh/orca/orca_end/end.en.tmp) ****
             **** THE GBW FILE WAS UPDATED (/home/rudenko/mop_saddle_orca_4_serv/for_orca/m-clc6h4chno2ch3_oh/orca/orca_end/end.gbw) ****
             **** DENSITY /home/rudenko/mop_saddle_orca_4_serv/for_orca/m-clc6h4chno2ch3_oh/orca/orca_end/end.scfp WAS UPDATED ****
----------------
ORBITAL ENERGIES
----------------

  NO   OCC          E(Eh)            E(eV) 
   0   2.0000    -101.523627     -2762.5983 
   1   2.0000     -19.132137      -520.6119 
   2   2.0000     -19.101764      -519.7854 
   3   2.0000     -19.071779      -518.9695 
   4   2.0000     -19.070384      -518.9315 
   5   2.0000     -14.468438      -393.7062 
   6   2.0000     -10.230223      -278.3785 
   7   2.0000     -10.185124      -277.1513 
   8   2.0000     -10.180154      -277.0161 
   9   2.0000     -10.178840      -276.9803 
  10   2.0000     -10.178334      -276.9665 
  11   2.0000     -10.171811      -276.7890 
  12   2.0000     -10.170682      -276.7583 
  13   2.0000     -10.156812      -276.3809 
  14   2.0000      -9.456472      -257.3237 
  15   2.0000      -7.217574      -196.4002 
  16   2.0000      -7.209713      -196.1863 
  17   2.0000      -7.209350      -196.1764 
  18   2.0000      -1.142016       -31.0758 
  19   2.0000      -1.018905       -27.7258 
  20   2.0000      -0.989381       -26.9224 
  21   2.0000      -0.955420       -25.9983 
  22   2.0000      -0.895774       -24.3753 
  23   2.0000      -0.845716       -23.0131 
  24   2.0000      -0.808277       -21.9943 
  25   2.0000      -0.746597       -20.3159 
  26   2.0000      -0.727533       -19.7972 
  27   2.0000      -0.690189       -18.7810 
  28   2.0000      -0.621090       -16.9007 
  29   2.0000      -0.601014       -16.3544 
  30   2.0000      -0.541208       -14.7270 
  31   2.0000      -0.529967       -14.4211 
  32   2.0000      -0.512569       -13.9477 
  33   2.0000      -0.506300       -13.7771 
  34   2.0000      -0.484390       -13.1809 
  35   2.0000      -0.481256       -13.0956 
  36   2.0000      -0.461736       -12.5645 
  37   2.0000      -0.459149       -12.4941 
  38   2.0000      -0.444149       -12.0859 
  39   2.0000      -0.427018       -11.6197 
  40   2.0000      -0.415855       -11.3160 
  41   2.0000      -0.403636       -10.9835 
  42   2.0000      -0.394546       -10.7361 
  43   2.0000      -0.393586       -10.7100 
  44   2.0000      -0.382721       -10.4144 
  45   2.0000      -0.365085        -9.9345 
  46   2.0000      -0.357697        -9.7334 
  47   2.0000      -0.350025        -9.5247 
  48   2.0000      -0.332517        -9.0482 
  49   2.0000      -0.325247        -8.8504 
  50   2.0000      -0.314199        -8.5498 
  51   2.0000      -0.300995        -8.1905 
  52   2.0000      -0.269627        -7.3369 
  53   2.0000      -0.261530        -7.1166 
  54   2.0000      -0.253594        -6.9006 
  55   2.0000      -0.245963        -6.6930 
  56   2.0000      -0.221018        -6.0142 
  57   2.0000      -0.183762        -5.0004 
  58   0.0000      -0.019652        -0.5348 
  59   0.0000      -0.016889        -0.4596 
  60   0.0000       0.010058         0.2737 
  61   0.0000       0.035177         0.9572 
  62   0.0000       0.036614         0.9963 
  63   0.0000       0.063904         1.7389 
  64   0.0000       0.082394         2.2421 
  65   0.0000       0.086108         2.3431 
  66   0.0000       0.095072         2.5870 
  67   0.0000       0.107637         2.9290 
  68   0.0000       0.112303         3.0559 
  69   0.0000       0.116702         3.1756 
  70   0.0000       0.130698         3.5565 
  71   0.0000       0.136644         3.7183 
  72   0.0000       0.144912         3.9433 
  73   0.0000       0.157972         4.2986 
  74   0.0000       0.170291         4.6338 
  75   0.0000       0.177960         4.8425 
  76   0.0000       0.185782         5.0554 
  77   0.0000       0.200660         5.4602 
  78   0.0000       0.206751         5.6260 
  79   0.0000       0.211128         5.7451 
  80   0.0000       0.215921         5.8755 
  81   0.0000       0.225291         6.1305 
  82   0.0000       0.237353         6.4587 
  83   0.0000       0.237621         6.4660 
  84   0.0000       0.248607         6.7649 
  85   0.0000       0.257714         7.0128 
  86   0.0000       0.259145         7.0517 
  87   0.0000       0.272043         7.4027 
  88   0.0000       0.274547         7.4708 
  89   0.0000       0.286068         7.7843 
  90   0.0000       0.302320         8.2265 
  91   0.0000       0.315014         8.5720 
  92   0.0000       0.319734         8.7004 
  93   0.0000       0.321085         8.7372 
  94   0.0000       0.331073         9.0089 
  95   0.0000       0.338525         9.2117 
  96   0.0000       0.343707         9.3528 
  97   0.0000       0.350644         9.5415 
  98   0.0000       0.356546         9.7021 
  99   0.0000       0.368006        10.0139 
 100   0.0000       0.372529        10.1370 
 101   0.0000       0.373487        10.1631 
 102   0.0000       0.383884        10.4460 
 103   0.0000       0.385810        10.4984 
 104   0.0000       0.395721        10.7681 
 105   0.0000       0.398233        10.8365 
 106   0.0000       0.401091        10.9142 
 107   0.0000       0.410188        11.1618 
 108   0.0000       0.420997        11.4559 
 109   0.0000       0.428248        11.6532 
 110   0.0000       0.429689        11.6924 
 111   0.0000       0.436001        11.8642 
 112   0.0000       0.437605        11.9078 
 113   0.0000       0.446939        12.1618 
 114   0.0000       0.452762        12.3203 
 115   0.0000       0.461451        12.5567 
 116   0.0000       0.473794        12.8926 
 117   0.0000       0.475996        12.9525 
 118   0.0000       0.485776        13.2186 
 119   0.0000       0.491435        13.3726 
 120   0.0000       0.499419        13.5899 
 121   0.0000       0.507770        13.8171 
 122   0.0000       0.515420        14.0253 
 123   0.0000       0.518452        14.1078 
 124   0.0000       0.521187        14.1822 
 125   0.0000       0.532650        14.4941 
 126   0.0000       0.547468        14.8974 
 127   0.0000       0.555418        15.1137 
 128   0.0000       0.563923        15.3451 
 129   0.0000       0.568495        15.4695 
 130   0.0000       0.574098        15.6220 
 131   0.0000       0.583078        15.8664 
 132   0.0000       0.586388        15.9564 
 133   0.0000       0.595932        16.2161 
 134   0.0000       0.602235        16.3877 
 135   0.0000       0.612166        16.6579 
 136   0.0000       0.615501        16.7486 
 137   0.0000       0.627630        17.0787 
 138   0.0000       0.632856        17.2209 
 139   0.0000       0.643190        17.5021 
 140   0.0000       0.662255        18.0209 
 141   0.0000       0.672850        18.3092 
 142   0.0000       0.675545        18.3825 
 143   0.0000       0.685834        18.6625 
 144   0.0000       0.693103        18.8603 
 145   0.0000       0.704569        19.1723 
 146   0.0000       0.716224        19.4895 
 147   0.0000       0.739496        20.1227 
 148   0.0000       0.757017        20.5995 
 149   0.0000       0.761351        20.7174 
 150   0.0000       0.771644        20.9975 
 151   0.0000       0.784574        21.3494 
 152   0.0000       0.789066        21.4716 
 153   0.0000       0.802628        21.8406 
 154   0.0000       0.812103        22.0985 
 155   0.0000       0.819638        22.3035 
 156   0.0000       0.847798        23.0697 
 157   0.0000       0.859068        23.3764 
 158   0.0000       0.872669        23.7465 
 159   0.0000       0.873034        23.7565 
 160   0.0000       0.898651        24.4535 
 161   0.0000       0.907672        24.6990 
 162   0.0000       0.914744        24.8914 
 163   0.0000       0.930658        25.3245 
 164   0.0000       0.940019        25.5792 
 165   0.0000       0.977087        26.5879 
 166   0.0000       0.982494        26.7350 
 167   0.0000       1.000684        27.2300 
 168   0.0000       1.022844        27.8330 
 169   0.0000       1.030891        28.0520 
 170   0.0000       1.043375        28.3917 
 171   0.0000       1.051514        28.6132 
 172   0.0000       1.065062        28.9818 
 173   0.0000       1.082209        29.4484 
 174   0.0000       1.094654        29.7870 
 175   0.0000       1.110324        30.2135 
 176   0.0000       1.124654        30.6034 
 177   0.0000       1.141762        31.0689 
 178   0.0000       1.159630        31.5551 
 179   0.0000       1.180037        32.1104 
 180   0.0000       1.189990        32.3813 
 181   0.0000       1.207744        32.8644 
 182   0.0000       1.223389        33.2901 
 183   0.0000       1.233657        33.5695 
 184   0.0000       1.239050        33.7163 
 185   0.0000       1.244271        33.8583 
 186   0.0000       1.254612        34.1397 
 187   0.0000       1.267807        34.4988 
 188   0.0000       1.273833        34.6628 
 189   0.0000       1.293304        35.1926 
 190   0.0000       1.304854        35.5069 
 191   0.0000       1.320675        35.9374 
 192   0.0000       1.322461        35.9860 
 193   0.0000       1.340694        36.4821 
 194   0.0000       1.362460        37.0744 
 195   0.0000       1.385076        37.6898 
 196   0.0000       1.398560        38.0568 
 197   0.0000       1.407895        38.3108 
 198   0.0000       1.418458        38.5982 
 199   0.0000       1.432526        38.9810 
 200   0.0000       1.435863        39.0718 
 201   0.0000       1.445826        39.3429 
 202   0.0000       1.477933        40.2166 
 203   0.0000       1.489172        40.5224 
 204   0.0000       1.501337        40.8534 
 205   0.0000       1.508026        41.0355 
 206   0.0000       1.514269        41.2054 
 207   0.0000       1.523706        41.4621 
 208   0.0000       1.558193        42.4006 
 209   0.0000       1.563343        42.5407 
 210   0.0000       1.581217        43.0271 
 211   0.0000       1.586740        43.1774 
 212   0.0000       1.600063        43.5399 
 213   0.0000       1.607750        43.7491 
 214   0.0000       1.611354        43.8472 
 215   0.0000       1.622056        44.1384 
 216   0.0000       1.634071        44.4653 
 217   0.0000       1.642859        44.7045 
 218   0.0000       1.659025        45.1444 
 219   0.0000       1.660387        45.1814 
 220   0.0000       1.671424        45.4818 
 221   0.0000       1.677194        45.6388 
 222   0.0000       1.692815        46.0638 
 223   0.0000       1.710527        46.5458 
 224   0.0000       1.725440        46.9516 
 225   0.0000       1.736244        47.2456 
 226   0.0000       1.753969        47.7279 
 227   0.0000       1.777278        48.3622 
 228   0.0000       1.785652        48.5901 
 229   0.0000       1.794632        48.8344 
 230   0.0000       1.798408        48.9372 
 231   0.0000       1.799913        48.9781 
 232   0.0000       1.814193        49.3667 
 233   0.0000       1.820699        49.5437 
 234   0.0000       1.843339        50.1598 
 235   0.0000       1.854312        50.4584 
 236   0.0000       1.858080        50.5609 
 237   0.0000       1.866475        50.7894 
 238   0.0000       1.880154        51.1616 
 239   0.0000       1.904975        51.8370 
 240   0.0000       1.911102        52.0037 
 241   0.0000       1.932087        52.5748 
 242   0.0000       1.945346        52.9355 
 243   0.0000       1.961664        53.3796 
 244   0.0000       1.969916        53.6042 
 245   0.0000       1.986312        54.0503 
 246   0.0000       1.994827        54.2820 
 247   0.0000       2.014783        54.8250 
 248   0.0000       2.021635        55.0115 
 249   0.0000       2.035422        55.3867 
 250   0.0000       2.049624        55.7731 
 251   0.0000       2.059379        56.0386 
 252   0.0000       2.067614        56.2626 
 253   0.0000       2.068847        56.2962 
 254   0.0000       2.079077        56.5746 
 255   0.0000       2.086029        56.7637 
 256   0.0000       2.093710        56.9727 
 257   0.0000       2.105799        57.3017 
 258   0.0000       2.108315        57.3702 
 259   0.0000       2.118907        57.6584 
 260   0.0000       2.136054        58.1250 
 261   0.0000       2.139766        58.2260 
 262   0.0000       2.153143        58.5900 
 263   0.0000       2.167721        58.9867 
 264   0.0000       2.173229        59.1366 
 265   0.0000       2.175832        59.2074 
 266   0.0000       2.191844        59.6431 
 267   0.0000       2.200096        59.8676 
 268   0.0000       2.206002        60.0284 
 269   0.0000       2.231037        60.7096 
 270   0.0000       2.239193        60.9315 
 271   0.0000       2.243837        61.0579 
 272   0.0000       2.267410        61.6994 
 273   0.0000       2.278202        61.9930 
 274   0.0000       2.283224        62.1297 
 275   0.0000       2.294841        62.4458 
 276   0.0000       2.299982        62.5857 
 277   0.0000       2.315199        62.9998 
 278   0.0000       2.327602        63.3373 
 279   0.0000       2.346613        63.8546 
 280   0.0000       2.372619        64.5622 
 281   0.0000       2.390278        65.0428 
 282   0.0000       2.408746        65.5453 
 283   0.0000       2.409867        65.5758 
 284   0.0000       2.425173        65.9923 
 285   0.0000       2.431552        66.1659 
 286   0.0000       2.433524        66.2195 
 287   0.0000       2.464829        67.0714 
 288   0.0000       2.485527        67.6346 
 289   0.0000       2.505113        68.1676 
 290   0.0000       2.523158        68.6586 
 291   0.0000       2.536190        69.0132 
 292   0.0000       2.557887        69.6036 
 293   0.0000       2.573138        70.0186 
 294   0.0000       2.590852        70.5007 
 295   0.0000       2.596833        70.6634 
 296   0.0000       2.604722        70.8781 
 297   0.0000       2.617106        71.2151 
 298   0.0000       2.626862        71.4806 
 299   0.0000       2.635994        71.7290 
 300   0.0000       2.646017        72.0018 
 301   0.0000       2.649392        72.0936 
 302   0.0000       2.652577        72.1803 
 303   0.0000       2.658454        72.3402 
 304   0.0000       2.676033        72.8185 
 305   0.0000       2.693905        73.3049 
 306   0.0000       2.696090        73.3643 
 307   0.0000       2.733603        74.3851 
 308   0.0000       2.739389        74.5426 
 309   0.0000       2.752326        74.8946 
 310   0.0000       2.758802        75.0708 
 311   0.0000       2.765010        75.2398 
 312   0.0000       2.776442        75.5508 
 313   0.0000       2.791646        75.9646 
 314   0.0000       2.800630        76.2090 
 315   0.0000       2.806935        76.3806 
 316   0.0000       2.821695        76.7822 
 317   0.0000       2.833128        77.0933 
 318   0.0000       2.852567        77.6223 
 319   0.0000       2.858151        77.7743 
 320   0.0000       2.883279        78.4580 
 321   0.0000       2.887473        78.5721 
 322   0.0000       2.908018        79.1312 
 323   0.0000       2.918141        79.4066 
 324   0.0000       2.930315        79.7379 
 325   0.0000       2.954948        80.4082 
 326   0.0000       2.969290        80.7985 
 327   0.0000       2.989925        81.3600 
 328   0.0000       2.991385        81.3997 
 329   0.0000       3.012884        81.9847 
 330   0.0000       3.018418        82.1353 
 331   0.0000       3.027759        82.3895 
 332   0.0000       3.058888        83.2366 
 333   0.0000       3.077291        83.7373 
 334   0.0000       3.102173        84.4144 
 335   0.0000       3.114902        84.7608 
 336   0.0000       3.119046        84.8736 
 337   0.0000       3.137571        85.3777 
 338   0.0000       3.148003        85.6615 
 339   0.0000       3.150872        85.7396 
 340   0.0000       3.157005        85.9065 
 341   0.0000       3.166027        86.1520 
 342   0.0000       3.181558        86.5746 
 343   0.0000       3.190464        86.8169 
 344   0.0000       3.191952        86.8574 
 345   0.0000       3.197540        87.0095 
 346   0.0000       3.221737        87.6679 
 347   0.0000       3.228297        87.8464 
 348   0.0000       3.243283        88.2542 
 349   0.0000       3.246738        88.3482 
 350   0.0000       3.271196        89.0138 
 351   0.0000       3.285372        89.3995 
 352   0.0000       3.304510        89.9203 
 353   0.0000       3.312442        90.1361 
 354   0.0000       3.328090        90.5619 
 355   0.0000       3.348322        91.1125 
 356   0.0000       3.361986        91.4843 
 357   0.0000       3.375872        91.8621 
 358   0.0000       3.397076        92.4391 
 359   0.0000       3.402638        92.5905 
 360   0.0000       3.409873        92.7874 
 361   0.0000       3.415004        92.9270 
 362   0.0000       3.440224        93.6133 
 363   0.0000       3.446498        93.7840 
 364   0.0000       3.457809        94.0918 
 365   0.0000       3.472565        94.4933 
 366   0.0000       3.497257        95.1652 
 367   0.0000       3.507229        95.4366 
 368   0.0000       3.528174        96.0065 
 369   0.0000       3.541660        96.3735 
 370   0.0000       3.546653        96.5093 
 371   0.0000       3.562709        96.9462 
 372   0.0000       3.614636        98.3592 
 373   0.0000       3.623583        98.6027 
 374   0.0000       3.658526        99.5536 
 375   0.0000       3.667682        99.8027 
 376   0.0000       3.701630       100.7265 
 377   0.0000       3.706080       100.8476 
 378   0.0000       3.733016       101.5805 
 379   0.0000       3.759352       102.2972 
 380   0.0000       3.774037       102.6968 
 381   0.0000       3.781427       102.8979 
 382   0.0000       3.800677       103.4217 
 383   0.0000       3.806771       103.5875 
 384   0.0000       3.849625       104.7536 
 385   0.0000       3.878374       105.5359 
 386   0.0000       3.898742       106.0902 
 387   0.0000       3.925931       106.8300 
 388   0.0000       3.932969       107.0215 
 389   0.0000       3.952867       107.5630 
 390   0.0000       3.956965       107.6745 
 391   0.0000       3.981851       108.3517 
[...]
    14. B(H  13,C  12)                1.0876 -0.000591  0.0038    1.0915   
    15. B(H  14,C  12)                1.0964  0.000047 -0.0004    1.0960   
    16. B(H  15,C  12)                1.0868 -0.000217  0.0004    1.0872   
    17. B(N  16,C  11)                1.3514 -0.000353  0.0012    1.3526   
    18. B(O  17,N  16)                1.2818 -0.000564  0.0009    1.2826   
    19. B(O  18,N  16)                1.2818  0.000794 -0.0020    1.2797   
    20. B(H  19,H  13)                2.8341 -0.000168 -0.0128    2.8213   
    21. B(H  19,N  16)                2.7135 -0.000072 -0.0035    2.7100   
    22. B(H  19,C  12)                2.8258  0.000013 -0.0193    2.8065   
    23. B(H  19,C  11)                2.2263  0.000173 -0.0190    2.2073   
    24. B(H  19,H   7)                2.9854 -0.000101 -0.0004    2.9850   
    25. B(H  21,O  20)                0.9650 -0.000008 -0.0000    0.9650   
    26. B(H  22,O  20)                0.9780 -0.000180 -0.0000    0.9780   
    27. B(O  24,H  22)                1.8560 -0.000025  0.0039    1.8599   
    28. B(O  24,H   7)                3.6741  0.000154 -0.0055    3.6686   
    29. B(O  24,H  23)                0.9663  0.000099 -0.0003    0.9660   
    30. B(O  24,H  19)                0.9731  0.000141  0.0007    0.9738   
    31. A(C   5,C   0,H   6)          119.11 -0.000016    0.07    119.17   
    32. A(C   1,C   0,C   5)          121.74 -0.000014    0.09    121.82   
    33. A(C   1,C   0,H   6)          119.15  0.000030   -0.15    119.00   
    34. A(C   0,C   1,C   2)          121.34 -0.000078   -0.03    121.31   
    35. A(C   2,C   1,H   7)          118.44 -0.000326    0.62    119.06   
    36. A(C   0,C   1,H   7)          120.22  0.000404   -0.59    119.63   
    37. A(C   1,C   2,C  11)          125.24  0.000051   -0.04    125.19   
    38. A(C   1,C   2,C   3)          116.44  0.000070   -0.07    116.37   
    39. A(C   3,C   2,C  11)          118.28 -0.000120    0.13    118.41   
    40. A(C   2,C   3,C   4)          120.82 -0.000019    0.08    120.90   
    41. A(C   2,C   3,H   8)          120.65 -0.000180    0.12    120.76   
    42. A(C   4,C   3,H   8)          118.53  0.000197   -0.19    118.34   
    43. A(C   3,C   4,Cl  9)          118.43 -0.000177    0.05    118.47   
    44. A(C   5,C   4,Cl  9)          119.00  0.000145   -0.05    118.96   
    45. A(C   3,C   4,C   5)          122.57  0.000033   -0.00    122.57   
    46. A(C   0,C   5,C   4)          117.09  0.000007   -0.05    117.04   
    47. A(C   4,C   5,H  10)          121.18  0.000021   -0.01    121.17   
    48. A(C   0,C   5,H  10)          121.73 -0.000028    0.06    121.79   
    49. A(H  19,H   7,O  24)           11.92 -0.000009    0.12     12.04   
    50. A(C   1,H   7,O  24)           78.30  0.000214   -1.73     76.57   
    51. A(C   1,H   7,H  19)           77.40  0.000227   -1.57     75.83   
    52. A(N  16,C  11,H  19)           95.54 -0.000009    0.70     96.24   
    53. A(C  12,C  11,N  16)          115.57  0.000038   -0.38    115.19   
    54. A(C   2,C  11,N  16)          122.98 -0.000011    0.03    123.01   
    55. A(C  12,C  11,H  19)           96.64  0.000005   -0.16     96.48   
    56. A(C   2,C  11,H  19)           83.65  0.000078   -1.24     82.41   
    57. A(C   2,C  11,C  12)          121.16 -0.000036    0.43    121.59   
    58. A(C  11,C  12,H  15)          111.21  0.000123   -0.22    110.99   
    59. A(H  14,C  12,H  15)          108.03 -0.000026    0.01    108.04   
    60. A(H  13,C  12,H  15)          108.02  0.000037   -0.12    107.89   
    61. A(H  15,C  12,H  19)           83.71  0.000125   -0.35     83.36   
    62. A(H  13,C  12,H  19)           79.35 -0.000031    0.26     79.61   
    63. A(H  13,C  12,H  14)          106.89  0.000075   -0.20    106.69   
    64. A(C  11,C  12,H  19)           51.49  0.000048   -0.09     51.41   
    65. A(C  11,C  12,H  14)          112.33 -0.000186    0.45    112.78   
    66. A(C  11,C  12,H  13)          110.17 -0.000017    0.07    110.24   
    67. A(H  14,C  12,H  19)          163.48 -0.000140   -0.28    163.20   
    68. A(C  12,H  13,H  19)           78.49  0.000138   -0.44     78.05   
    69. A(C  11,N  16,O  18)          122.81  0.000069   -0.26    122.55   
    70. A(C  11,N  16,O  17)          119.24 -0.000154    0.25    119.49   
    71. A(C  11,N  16,H  19)           54.75  0.000079   -0.66     54.08   
    72. A(O  17,N  16,O  18)          117.95  0.000085    0.01    117.96   
    73. A(O  17,N  16,H  19)          113.52 -0.000154    0.79    114.31   
    74. A(O  18,N  16,H  19)          101.93  0.000041   -0.19    101.74   
    75. A(H  13,H  19,N  16)           55.76 -0.000106    0.18     55.95   
    76. A(C  12,H  19,N  16)           51.66 -0.000088    0.16     51.82   
    77. A(C  11,H  19,N  16)           29.72 -0.000070   -0.04     29.68   
    78. A(H   7,H  19,N  16)           57.98 -0.000109    0.29     58.27   
    79. A(N  16,H  19,O  24)          165.00 -0.000043    0.45    165.45   
    80. A(C  12,H  19,H  13)           22.16 -0.000107    0.18     22.34   
    81. A(C  11,H  19,H  13)           48.12 -0.000143    0.33     48.46   
    82. A(H   7,H  19,H  13)          109.31 -0.000248    0.68    109.98   
    83. A(H  13,H  19,O  24)          121.62  0.000125   -0.16    121.46   
    84. A(C  11,H  19,C  12)           31.87 -0.000053    0.25     32.12   
    85. A(H   7,H  19,C  12)           93.92 -0.000178    0.74     94.66   
    86. A(C  12,H  19,O  24)          132.47  0.000101   -0.30    132.17   
    87. A(H   7,H  19,C  11)           62.43 -0.000125    0.48     62.92   
    88. A(H   7,H  19,O  24)          128.78  0.000124   -0.54    128.24   
    89. A(H  21,O  20,H  22)          104.35 -0.000374    0.15    104.50   
    90. L(O  20,H  22,O  24,H   7, 1) 178.09  0.000818    0.28    178.36   
    91. L(O  20,H  22,O  24,H   7, 2) 178.14  0.000042    1.94    180.09   
    92. A(H   7,O  24,H  23)          124.87 -0.000142    0.29    125.16   
    93. A(H   7,O  24,H  19)           39.30 -0.000114    0.41     39.72   
    94. A(H   7,O  24,H  22)          114.95  0.000632   -0.79    114.16   
    95. A(H  22,O  24,H  23)          112.40 -0.000432    0.31    112.71   
    96. A(H  19,O  24,H  22)          101.88  0.000551   -1.14    100.73   
    97. A(H  19,O  24,H  23)          104.79 -0.000052    0.15    104.93   
    98. D(C   2,C   1,C   0,C   5)     -0.31  0.000017    0.15     -0.16   
    99. D(C   2,C   1,C   0,H   6)    179.25 -0.000019    0.27    179.52   
   100. D(H   7,C   1,C   0,H   6)     -0.33 -0.000041    0.01     -0.31   
   101. D(H   7,C   1,C   0,C   5)   -179.89 -0.000005   -0.10   -179.99   
   102. D(C   3,C   2,C   1,H   7)   -179.69  0.000022   -0.03   -179.72   
   103. D(C   3,C   2,C   1,C   0)      0.72 -0.000002   -0.27      0.46   
   104. D(C  11,C   2,C   1,C   0)   -176.91 -0.000001   -0.53   -177.45   
   105. D(C  11,C   2,C   1,H   7)      2.67  0.000024   -0.30      2.38   
   106. D(H   8,C   3,C   2,C   1)    178.21 -0.000059    0.38    178.59   
   107. D(C   4,C   3,C   2,C  11)    177.12  0.000001    0.39    177.51   
   108. D(H   8,C   3,C   2,C  11)     -3.99 -0.000056    0.64     -3.35   
   109. D(C   4,C   3,C   2,C   1)     -0.69 -0.000002    0.14     -0.55   
   110. D(Cl  9,C   4,C   3,C   2)   -179.94 -0.000004    0.01   -179.93   
   111. D(Cl  9,C   4,C   3,H   8)      1.14  0.000056   -0.24      0.91   
   112. D(C   5,C   4,C   3,C   2)      0.25 -0.000010    0.10      0.35   
   113. D(C   5,C   4,C   3,H   8)   -178.67  0.000050   -0.14   -178.81   
   114. D(H  10,C   5,C   4,Cl  9)      0.45  0.000034   -0.24      0.21   
   115. D(H  10,C   5,C   0,C   1)    179.76 -0.000042    0.22    179.98   
   116. D(C   0,C   5,C   4,Cl  9)   -179.62  0.000018   -0.12   -179.74   
   117. D(H  10,C   5,C   0,H   6)      0.20 -0.000007    0.10      0.30   
   118. D(C   0,C   5,C   4,C   3)      0.19  0.000022   -0.22     -0.03   
   119. D(H  10,C   5,C   4,C   3)   -179.73  0.000039   -0.34   -180.08   
   120. D(C   4,C   5,C   0,H   6)   -179.72  0.000010   -0.02   -179.74   
   121. D(C   4,C   5,C   0,C   1)     -0.16 -0.000026    0.09     -0.07   
   122. D(O  24,H   7,C   1,C   2)    -59.85 -0.000013    0.20    -59.65   
   123. D(O  24,H   7,C   1,C   0)    119.74  0.000009    0.44    120.18   
   124. D(H  19,H   7,C   1,C   0)    131.90 -0.000010    0.69    132.59   
   125. D(H  19,H   7,C   1,C   2)    -47.69 -0.000032    0.45    -47.24   
   126. D(N  16,C  11,C   2,C   1)    -21.55 -0.000056    1.11    -20.44   
   127. D(C  12,C  11,C   2,C   3)    -12.72  0.000037   -0.11    -12.83   
   128. D(C  12,C  11,C   2,C   1)    164.88  0.000040    0.16    165.04   
   129. D(H  19,C  11,C   2,C   3)   -106.65 -0.000018    0.87   -105.78   
   130. D(H  19,C  11,C   2,C   1)     70.94 -0.000016    1.15     72.09   
   131. D(N  16,C  11,C   2,C   3)    160.85 -0.000059    0.83    161.69   
   132. D(H  19,C  12,C  11,C   2)    -86.57 -0.000092    1.51    -85.06   
   133. D(H  19,C  12,C  11,N  16)     99.40 -0.000000    0.62    100.02   
   134. D(H  15,C  12,C  11,C   2)    -23.89  0.000006    0.97    -22.93   
   135. D(H  14,C  12,C  11,H  19)   -176.10  0.000021   -0.39   -176.49   
   136. D(H  14,C  12,C  11,N  16)    -76.70  0.000021    0.24    -76.46   
   137. D(H  14,C  12,C  11,C   2)     97.32 -0.000070    1.13     98.45   
   138. D(H  15,C  12,C  11,N  16)    162.08  0.000097    0.07    162.16   
   139. D(H  15,C  12,C  11,H  19)     62.68  0.000097   -0.55     62.13   
   140. D(H  13,C  12,C  11,H  19)    -57.06 -0.000017   -0.29    -57.35   
   141. D(H  13,C  12,C  11,N  16)     42.35 -0.000017    0.33     42.68   
   142. D(H  13,C  12,C  11,C   2)   -143.63 -0.000108    1.22   -142.41   
   143. D(H  19,H  13,C  12,H  15)    -79.72 -0.000114    0.30    -79.42   
   144. D(H  19,H  13,C  12,C  11)     41.93  0.000049   -0.01     41.92   
   145. D(H  19,H  13,C  12,H  14)    164.24 -0.000141    0.44    164.68   
   146. D(H  19,N  16,C  11,C  12)   -100.09 -0.000008   -0.08   -100.17   
   147. D(O  18,N  16,C  11,C   2)      4.90  0.000023   -0.32      4.58   
   148. D(O  17,N  16,C  11,C   2)   -174.53  0.000018   -0.34   -174.87   
   149. D(O  17,N  16,C  11,C  12)     -0.63 -0.000077    0.61     -0.01   
   150. D(O  17,N  16,C  11,H  19)     99.46 -0.000069    0.69    100.15   
   151. D(O  18,N  16,C  11,H  19)    -81.11 -0.000064    0.71    -80.40   
   152. D(O  18,N  16,C  11,C  12)    178.80 -0.000072    0.63    179.44   
   153. D(H  19,N  16,C  11,C   2)     86.01  0.000087   -1.03     84.98   
   154. D(C  11,H  19,H   7,C   1)     69.42  0.000145    0.57     69.99   
   155. D(C  12,H  19,H   7,C   1)     64.34  0.000140    0.70     65.04   
   156. D(H  13,H  19,H   7,C   1)     80.68  0.000043    0.96     81.63   
   157. D(H  13,H  19,H   7,O  24)    173.74  0.000011    0.05    173.79   
   158. D(C  11,H  19,H   7,O  24)    162.48  0.000114   -0.33    162.15   
   159. D(C  12,H  19,H   7,O  24)    157.40  0.000108   -0.20    157.20   
   160. D(O  24,H  19,H   7,C   1)    -93.06  0.000032    0.90    -92.16   
   161. D(H  13,H  19,N  16,O  17)    -46.04 -0.000040    0.92    -45.12   
   162. D(H  13,H  19,N  16,C  11)     64.12 -0.000123    0.39     64.51   
   163. D(C  12,H  19,N  16,O  18)    158.93  0.000015    0.41    159.34   
   164. D(C  12,H  19,N  16,C  11)     37.00 -0.000026    0.24     37.24   
   165. D(C  11,H  19,N  16,O  18)    121.93  0.000041    0.17    122.10   
   166. D(C  11,H  19,N  16,O  17)   -110.16  0.000083    0.53   -109.63   
   167. D(H   7,H  19,N  16,O  17)    160.14  0.000112   -0.04    160.10   
   168. D(H   7,H  19,N  16,C  11)    -89.70  0.000028   -0.57    -90.27   
   169. D(O  24,H  19,N  16,O  18)    -89.10  0.000056    0.13    -88.97   
   170. D(O  24,H  19,N  16,O  17)     38.81  0.000099    0.50     39.30   
   171. D(O  24,H  19,N  16,C  11)    148.97  0.000016   -0.04    148.93   
   172. D(N  16,H  19,H  13,C  12)    -71.43 -0.000004   -0.03    -71.46   
   173. D(C  11,H  19,H  13,C  12)    -34.63 -0.000046   -0.16    -34.79   
   174. D(O  24,H  19,H  13,C  12)    126.19  0.000075   -0.63    125.56   
   175. D(N  16,H  19,C  12,H  15)   -157.97  0.000033   -0.19   -158.16   
   176. D(N  16,H  19,C  12,H  14)    -21.63  0.000030    0.26    -21.38   
   177. D(N  16,H  19,C  12,C  11)    -34.41  0.000049    0.10    -34.31   
   178. D(H  13,H  19,C  12,H  15)    109.72  0.000014   -0.14    109.58   
   179. D(H  13,H  19,C  12,H  14)   -113.95  0.000012    0.31   -113.64   
   180. D(H  13,H  19,C  12,C  11)   -126.72  0.000031    0.16   -126.57   
   181. D(C  11,H  19,C  12,H  15)   -123.56 -0.000017   -0.29   -123.86   
   182. D(C  11,H  19,C  12,H  14)     12.77 -0.000019    0.16     12.93   
   183. D(C  11,H  19,C  12,H  13)    126.72 -0.000031   -0.16    126.57   
   184. D(H   7,H  19,C  12,H  15)   -115.02 -0.000005   -0.58   -115.60   
   185. D(H   7,H  19,C  12,H  14)     21.32 -0.000007   -0.13     21.18   
   186. D(H   7,H  19,C  12,H  13)    135.26 -0.000019   -0.45    134.82   
   187. D(N  16,H  19,C  12,H  13)     92.31  0.000019   -0.05     92.26   
   188. D(H   7,H  19,C  12,C  11)      8.54  0.000012   -0.29      8.25   
   189. D(O  24,H  19,C  12,H  15)     41.02  0.000114   -0.85     40.17   
   190. D(O  24,H  19,C  12,H  14)    177.36  0.000111   -0.40    176.96   
   191. D(H   7,H  19,H  13,C  12)    -48.08  0.000062   -0.68    -48.76   
   192. D(O  24,H  19,C  12,H  13)    -68.69  0.000100   -0.71    -69.40   
   193. D(O  24,H  19,C  12,C  11)    164.58  0.000130   -0.55    164.03   
   194. D(N  16,H  19,C  11,C  12)    116.61  0.000038   -0.08    116.53   
   195. D(N  16,H  19,C  11,C   2)   -122.65  0.000007    0.21   -122.44   
   196. D(H  13,H  19,C  11,N  16)    -92.66 -0.000087    0.18    -92.48   
   197. D(H  13,H  19,C  11,C  12)     23.95 -0.000049    0.10     24.05   
   198. D(H  13,H  19,C  11,C   2)    144.70 -0.000080    0.39    145.09   
   199. D(H   7,H  19,N  16,O  18)     32.23  0.000069   -0.40     31.83   
   200. D(C  12,H  19,C  11,N  16)   -116.61 -0.000038    0.08   -116.53   
   201. D(H   7,H  19,C  11,N  16)     73.01 -0.000011   -0.27     72.74   
   202. D(H   7,H  19,C  11,C  12)   -170.38  0.000027   -0.35   -170.73   
   203. D(C  12,H  19,N  16,O  17)    -73.16  0.000058    0.77    -72.39   
   204. D(H   7,H  19,C  11,C   2)    -49.63 -0.000004   -0.06    -49.70   
   205. D(N  16,H  19,H   7,O  24)   -163.52  0.000074   -0.57   -164.09   
   206. D(N  16,H  19,H   7,C   1)    103.41  0.000106    0.33    103.75   
   207. D(H  13,H  19,N  16,O  18)   -173.95 -0.000082    0.55   -173.40   
   208. D(C  12,H  19,C  11,C   2)    120.74 -0.000031    0.29    121.04   
   209. D(H  23,O  24,H  19,H   7)   -127.66  0.000100   -0.04   -127.70   
   210. D(H  22,O  24,C  11,N  16)   -161.74  0.000341   -0.24   -161.99   
   211. D(H  22,O  24,C  11,C  12)    -45.20  0.000376   -0.33    -45.53   
   212. D(H   7,O  24,C  11,N  16)     72.18  0.000001   -0.29     71.89   
   213. D(H   7,O  24,C  11,C  12)   -171.27  0.000037   -0.38   -171.65   
   214. D(H   7,O  24,C  11,C   2)    -50.15 -0.000003    0.05    -50.10   
   215. D(H  23,O  24,C  11,N  16)    -48.32  0.000092   -0.31    -48.63   
   216. D(H  23,O  24,C  11,C  12)     68.22  0.000128   -0.39     67.83   
   217. D(H  23,O  24,C  11,C   2)   -170.66  0.000088    0.03   -170.62   
   218. D(H  22,O  24,H   7,H  19)    -77.87 -0.000023    0.65    -77.23   
   219. D(H  22,O  24,C  11,C   2)     75.93  0.000336    0.10     76.02   
   220. D(H  22,O  24,H   7,C   1)      6.50  0.000059    1.11      7.61   
   221. D(H  23,O  24,H   7,H  19)     68.89 -0.000019    0.34     69.24   
   222. D(H  23,O  24,H   7,C   1)    153.26  0.000063    0.81    154.07   
   223. D(H  23,O  24,H  19,C  12)     83.65  0.000006    0.08     83.73   
   224. D(H  19,O  24,H   7,C   1)     84.37  0.000082    0.46     84.83   
   225. D(H  23,O  24,O  20,H  21)   -147.03 -0.000023   -5.99   -153.03   
   226. D(H  19,O  24,O  20,H  21)    -35.20  0.000061   -6.46    -41.66   
   227. D(H  22,O  24,H  19,N  16)   -133.20  0.000313   -0.13   -133.33   
   228. D(H  22,O  24,H  19,H  13)    -57.99  0.000378   -0.14    -58.13   
   229. D(H  22,O  24,H  19,C  12)    -33.62  0.000277    0.10    -33.52   
   230. D(H  22,O  24,H  19,H   7)    115.07  0.000371   -0.02    115.05   
   231. D(H   7,O  24,H  19,N  16)    111.73 -0.000058   -0.11    111.62   
   232. D(H   7,O  24,H  19,H  13)   -173.06  0.000007   -0.12   -173.18   
   233. D(H   7,O  24,H  19,C  12)   -148.69 -0.000094    0.12   -148.57   
   234. D(H  23,O  24,H  19,N  16)    -15.93  0.000042   -0.15    -16.08   
   235. D(H   7,O  24,O  20,H  21)      4.11  0.000077   -6.55     -2.43   
   236. D(H  23,O  24,H  19,H  13)     59.28  0.000108   -0.16     59.12   
    ----------------------------------------------------------------------------




    ----------------------------------------------------------------------------
                                  WARNING !!!
       The optimization did not converge but reached the maximum number of
       optimization cycles.
       Please check your results very carefully.
    ----------------------------------------------------------------------------



                            ***************************************
                            *     ORCA property calculations      *
                            ***************************************

                                    ---------------------
                                    Active property flags
                                    ---------------------
   (+) Dipole Moment


------------------------------------------------------------------------------
                       ORCA ELECTRIC PROPERTIES CALCULATION
------------------------------------------------------------------------------

Dipole Moment Calculation                       ... on
Quadrupole Moment Calculation                   ... off
Polarizability Calculation                      ... off
GBWName                                         ... /home/rudenko/mop_saddle_orca_4_serv/for_orca/m-clc6h4chno2ch3_oh/orca/orca_end/end.gbw
Electron density                                ... /home/rudenko/mop_saddle_orca_4_serv/for_orca/m-clc6h4chno2ch3_oh/orca/orca_end/end.scfp
The origin for moment calculation is the CENTER OF MASS  = ( 2.706476,  1.191099  3.864182)

-------------
DIPOLE MOMENT
-------------
                                X             Y             Z
Electronic contribution:     -7.43339       9.28652       4.69628
Nuclear contribution   :      8.67310      -7.34502      -1.81845
                        -----------------------------------------
Total Dipole Moment    :      1.23971       1.94151       2.87783
                        -----------------------------------------
Magnitude (a.u.)       :      3.68622
Magnitude (Debye)      :      9.36964



--------------------
Rotational spectrum 
--------------------
 
Rotational constants in cm-1:     0.025600     0.011850     0.010382 
Rotational constants in MHz :   767.482032   355.239740   311.236328 

 Dipole components along the rotational axes: 
x,y,z [a.u.] :     3.124539     1.671949    -1.014934 
x,y,z [Debye]:     7.941947     4.249757    -2.579756 

 

Timings for individual modules:

Sum of individual times         ...     3625.351 sec (=  60.423 min)
GTO integral calculation        ...      363.426 sec (=   6.057 min)  10.0 %
SCF iterations                  ...     2467.039 sec (=  41.117 min)  68.0 %
SCF Gradient evaluation         ...      788.270 sec (=  13.138 min)  21.7 %
Geometry relaxation             ...        6.616 sec (=   0.110 min)   0.2 %
                             ****ORCA TERMINATED NORMALLY****
TOTAL RUN TIME: 0 days 1 hours 5 minutes 12 seconds 888 msec
