 *******************************************************************************
 **                                                                           **
 **                              MOPAC v22.0.6                                **
 **                                                                           **
 *******************************************************************************
 **          Digital Object Identifier (DOI): 10.5281/zenodo.6511958          **
 **    Visit the DOI location for information on how to cite this program.    **
 *******************************************************************************

                              PM7 CALCULATION RESULTS

 *******************************************************************************
 *  CALCULATION DONE:                                Sat Mar 23 15:07:39 2024  *
 *  PM7        - The PM7 Hamiltonian to be used
 *  SINGLET    - SPIN STATE DEFINED AS A SINGLET
 *
 *
 *
 *                 CHARGE ON SYSTEM = 0
 *
 *
 *
 *  EPS=78.4   - USE ANDREAS KLAMT'S COSMO IMPLICIT SOLVATION MODEL
 *  LET        - OVERRIDE SOME SAFETY CHECKS
 *  T=         - A TIME OF 14.0 DAYS REQUESTED
 *  DUMP=N     - RESTART FILE WRITTEN EVERY 30.0 MINUTES REQUESTED
 *  RELSCF     - DEFAULT SCF CRITERION MULTIPLIED BY 1.0000
 *              (DEFAULT SCF CRITERION = 0.00010)
 *  ITRY=      - DO A MAXIMUM OF 15000 ITERATIONS FOR SCF
 *  AUX        - OUTPUT AUXILIARY INFORMATION
 *  ISOTOPE    - SAVE THE FORCE MATRIX FOR USE LATER
 *  BONDS      - FINAL BOND-ORDER MATRIX TO BE PRINTED
 *  LARGE      - EXPANDED OUTPUT TO BE PRINTED
 *  THERMO     - THERMODYNAMIC QUANTITIES TO BE CALCULATED
 *******************************************************************************
PM7 AUX LARGE THERMO(298,298) LET ISOTOPE BONDS DUMP=30M ITRY=15000 T=14D CHARGE=0 SINGLET eps=78.4 RELSCF=1
 Title: ASE calculation

   ATOM   CHEMICAL          X               Y               Z
  NUMBER   SYMBOL      (ANGSTROMS)     (ANGSTROMS)     (ANGSTROMS)

     1       C          0.85143671  *  -0.54121995  *  -0.86714276  *
     2       H          1.00220062  *  -0.78842324  *  -1.92766424  *
     3       N          0.73359421  *  -2.94168194  *  -0.43716083  *
     4       O          0.60583734  *  -3.17473856  *  -1.67915138  *
     5       O          0.66066487  *  -3.95049510  *   0.33538478  *
     6       H          1.78652182  *  -0.61244633  *   1.67489498  *
     7       C          0.97412868  *  -1.72558680  *   0.02783922  *
     8       D          3.06738590  *  -2.07182351  *  -0.77616975  *
     9       H         -0.15174060  *  -0.09074077  *  -0.78615278  *
    10       C          1.16750990  *  -1.50033345  *   1.48683659  *
    11       H          0.20991579  *  -1.34285290  *   2.00401452  *
    12       C          4.66666055  *  -2.47574919  *  -4.17493969  *
    13       C          4.95709769  *  -3.01389264  *  -5.42513788  *
    14       C          5.04596413  *  -4.39805339  *  -5.57433421  *
    15       C          4.83077436  *  -5.21908590  *  -4.46710408  *
    16       C          4.54177211  *  -4.64460413  *  -3.23258214  *
    17       N          4.46984959  *  -3.29222029  *  -3.10594351  *
    18       H          5.11179561  *  -2.34671412  *  -6.27899798  *
    19       H          5.27591659  *  -4.83597982  *  -6.55202272  *
    20       H          4.88620868  *  -6.30895903  *  -4.55904141  *
    21       H          1.57447383  *   0.24398338  *  -0.61213826  *
    22       H          1.66174988  *  -2.35256977  *   1.97643078  *
    23       H          4.36267102  *  -5.25395994  *  -2.32768575  *
    24       H          4.58436050  *  -1.38780027  *  -4.00749848  *
    25       H          4.24103131  *  -2.71659686  *  -0.06310809  *
    26       H          4.27264979  *  -2.86164838  *  -2.15238184  *
    27       O          4.04545698  *  -2.12564542  *  -0.83097942  *


                                Isotopes Used

              Atom:    8  H  Default mass  1.0079,  mass used:  2.0140 amu


          CARTESIAN COORDINATES 

    NO.       ATOM           X           Y           Z

     1         C          0.8514     -0.5412     -0.8671
     2         H          1.0022     -0.7884     -1.9277
     3         N          0.7336     -2.9417     -0.4372
     4         O          0.6058     -3.1747     -1.6792
     5         O          0.6607     -3.9505      0.3354
     6         H          1.7865     -0.6124      1.6749
     7         C          0.9741     -1.7256      0.0278
     8         H          3.0674     -2.0718     -0.7762
     9         H         -0.1517     -0.0907     -0.7862
    10         C          1.1675     -1.5003      1.4868
    11         H          0.2099     -1.3429      2.0040
    12         C          4.6667     -2.4757     -4.1749
    13         C          4.9571     -3.0139     -5.4251
    14         C          5.0460     -4.3981     -5.5743
    15         C          4.8308     -5.2191     -4.4671
    16         C          4.5418     -4.6446     -3.2326
    17         N          4.4698     -3.2922     -3.1059
    18         H          5.1118     -2.3467     -6.2790
    19         H          5.2759     -4.8360     -6.5520
    20         H          4.8862     -6.3090     -4.5590
    21         H          1.5745      0.2440     -0.6121
    22         H          1.6617     -2.3526      1.9764
    23         H          4.3627     -5.2540     -2.3277
    24         H          4.5844     -1.3878     -4.0075
    25         H          4.2410     -2.7166     -0.0631
    26         H          4.2726     -2.8616     -2.1524
    27         O          4.0455     -2.1256     -0.8310

 General Reference for PM7:
 "Optimization of Parameters for Semiempirical Methods VI: More Modifications to the 
 NDDO Approximations and Re-optimization of Parameters", J. J. P. Stewart, J. Mol. Mod., 1:32, 19 (2013)
 https://link.springer.com/article/10.1007/s00894-012-1667-x

           Empirical Formula: C8 H14 N2 O3  =    27 atoms



      MOLECULAR POINT GROUP   :   C1  


 SINGLET STATE CALCULATION


      RHF CALCULATION, NO. OF DOUBLY OCCUPIED LEVELS = 37

  SCF CRITERION =    0.1000E-03


          HEAT OF FORMATION =     -72.082094 KCALS/MOLE


          CARTESIAN COORDINATE DERIVATIVES

   NUMBER  ATOM         X            Y            Z

     1       C     -0.040875     0.124998     0.720345
     2       H     -0.363990    -0.310137     0.726604
     3       N     -0.868732    -2.909168     2.281584
     4       O      1.246463     0.134681    -0.448725
     5       O     -1.457793     2.504961     1.397585
     6       H      0.047991     0.058992     0.660513
     7       C      0.883475     1.224032    -5.585598
     8       H      1.750521     3.085571    -1.308900
     9       H     -0.034551    -0.101981     0.656860
    10       C     -0.666773     0.001788     0.237835
    11       H      0.061945    -0.060176    -0.431806
    12       C     -1.756397     0.980034     0.006212
    13       C     -1.155794     0.199208    -0.122876
    14       C     -0.283969    -0.179072    -0.274997
    15       C     -0.457825    -0.409932    -0.183689
    16       C     -0.860990    -1.187212     0.067633
    17       N     -4.302314    -0.699330     0.285577
    18       H     -0.438413     0.069942     0.142978
    19       H     -0.291289     0.043445     0.084940
    20       H     -0.287638    -0.211731     0.067322
    21       H     -0.065585    -0.047106     1.243844
    22       H      0.080278    -0.029345     0.270802
    23       H     -0.239436     0.070500     0.382059
    24       H     -0.291483     0.288930     0.297599
    25       H     -3.785942     4.948543     3.582798
    26       H      2.115975    -0.839421     0.676036
    27       O     11.463256    -6.750783    -5.432329

 DIPOLE           X         Y         Z       TOTAL
 POINT-CHG.    13.087    -4.559   -15.607    20.872
 HYBRID        -0.129     0.521     0.281     0.606
 SUM           12.959    -4.038   -15.326    20.472


          GRADIENT NORM =  19.25617



 ** GRADIENT IS VERY LARGE, BUT SINCE "LET" IS USED, CALCULATION WILL CONTINUE


                              **** WARNING ****

           GRADIENT IS VERY LARGE FOR A THERMO CALCULATION
           RESULTS ARE LIKELY TO BE INACCURATE IF THERE ARE
           ANY LOW-LYING VIBRATIONS (LESS THAN ABOUT 400CM-1)
           GRADIENT NORM SHOULD BE LESS THAN ABOUT 1.0 FOR THERMO
           TO GIVE ACCURATE RESULTS


          TIME FOR SCF CALCULATION =    0.10

          TIME FOR DERIVATIVES     =    0.02

          MOLECULAR WEIGHT =  187.22



          ROTATIONAL CONSTANTS IN CM(-1)

          A =    0.04680679   B =    0.00987938   C =    0.00940940



           PRINCIPAL MOMENTS OF INERTIA IN UNITS OF 10**(-40)*GRAM-CM**2

          A =      598.0490   B =     2833.4514   C =     2974.9761


          ORIENTATION OF MOLECULE IN FORCE CALCULATION

    NO.       ATOM         X         Y         Z

     1          C      -1.9171   -1.9912    1.8338
     2          H      -0.8177   -1.9912    1.8338
     3          N      -1.8082    0.4479    1.8338
     4          O      -0.5752    0.4095    2.1361
     5          O      -2.3367    1.6040    1.7707
     6          H      -4.2251   -1.4152    0.5367
     7          C      -2.4973   -0.6479    1.5554
     8          H      -1.3567   -0.6009   -0.4055
     9          H      -2.2341   -2.3577    2.8243
    10          C      -3.9289   -0.5578    1.1564
    11          H      -4.5946   -0.5457    2.0316
    12          C       2.2322   -1.0399   -1.5007
    13          C       3.5991   -0.8057   -1.6177
    14          C       4.0664    0.5051   -1.7149
    15          C       3.1534    1.5595   -1.6819
    16          C       1.7937    1.2863   -1.5632
    17          N       1.3575    0.0006   -1.4802
    18          H       4.2940   -1.6513   -1.6312
    19          H       5.1396    0.7048   -1.8095
    20          H       3.4948    2.5980   -1.7478
    21          H      -2.2405   -2.7395    1.0991
    22          H      -4.1418    0.3529    0.5771
    23          H       1.0332    2.0882   -1.5317
    24          H       1.8147   -2.0585   -1.4193
    25          H      -1.7387    0.1197   -1.6847
    26          H       0.3138   -0.1989   -1.4146
    27          O      -1.1576   -0.6137   -1.3661


    FIRST DERIVATIVES WILL BE USED IN THE CALCULATION OF SECOND DERIVATIVES

          ESTIMATED TIME TO COMPLETE CALCULATION =       18.98 SECONDS

    FOR POINT-GROUP C1   THERE ARE   1 UNIQUE SYMMETRY FUNCTIONS.

 STEP:   1 TIME =     0.04 SECS, INTEGRAL =      0.04 TIME LEFT:1209599.84
 STEP:   2 TIME =     0.04 SECS, INTEGRAL =      0.08 TIME LEFT:1209599.80
 STEP:   3 TIME =     0.04 SECS, INTEGRAL =      0.12 TIME LEFT:1209599.76
 STEP:   4 TIME =     0.04 SECS, INTEGRAL =      0.16 TIME LEFT:1209599.72
 STEP:   5 TIME =     0.04 SECS, INTEGRAL =      0.20 TIME LEFT:1209599.68
 STEP:   6 TIME =     0.04 SECS, INTEGRAL =      0.25 TIME LEFT:1209599.64
 STEP:   7 TIME =     0.04 SECS, INTEGRAL =      0.29 TIME LEFT:1209599.59
 STEP:   8 TIME =     0.05 SECS, INTEGRAL =      0.34 TIME LEFT:1209599.55
 STEP:   9 TIME =     0.04 SECS, INTEGRAL =      0.38 TIME LEFT:1209599.50
 STEP:  10 TIME =     0.04 SECS, INTEGRAL =      0.42 TIME LEFT:1209599.46
 STEP:  11 TIME =     0.04 SECS, INTEGRAL =      0.46 TIME LEFT:1209599.42
 STEP:  12 TIME =     0.04 SECS, INTEGRAL =      0.50 TIME LEFT:1209599.38
 STEP:  13 TIME =     0.04 SECS, INTEGRAL =      0.54 TIME LEFT:1209599.34
 STEP:  14 TIME =     0.04 SECS, INTEGRAL =      0.58 TIME LEFT:1209599.30
 STEP:  15 TIME =     0.04 SECS, INTEGRAL =      0.62 TIME LEFT:1209599.26
 STEP:  16 TIME =     0.04 SECS, INTEGRAL =      0.66 TIME LEFT:1209599.22
 STEP:  17 TIME =     0.04 SECS, INTEGRAL =      0.70 TIME LEFT:1209599.18
 STEP:  18 TIME =     0.04 SECS, INTEGRAL =      0.75 TIME LEFT:1209599.14
 STEP:  19 TIME =     0.04 SECS, INTEGRAL =      0.79 TIME LEFT:1209599.09
 STEP:  20 TIME =     0.05 SECS, INTEGRAL =      0.84 TIME LEFT:1209599.05
 STEP:  21 TIME =     0.05 SECS, INTEGRAL =      0.88 TIME LEFT:1209599.00
 STEP:  22 TIME =     0.04 SECS, INTEGRAL =      0.93 TIME LEFT:1209598.96
 STEP:  23 TIME =     0.05 SECS, INTEGRAL =      0.97 TIME LEFT:1209598.91
 STEP:  24 TIME =     0.04 SECS, INTEGRAL =      1.02 TIME LEFT:1209598.87
 STEP:  25 TIME =     0.04 SECS, INTEGRAL =      1.05 TIME LEFT:1209598.83
 STEP:  26 TIME =     0.04 SECS, INTEGRAL =      1.09 TIME LEFT:1209598.79
 STEP:  27 TIME =     0.04 SECS, INTEGRAL =      1.14 TIME LEFT:1209598.75
 STEP:  28 TIME =     0.04 SECS, INTEGRAL =      1.18 TIME LEFT:1209598.71
 STEP:  29 TIME =     0.04 SECS, INTEGRAL =      1.21 TIME LEFT:1209598.67
 STEP:  30 TIME =     0.04 SECS, INTEGRAL =      1.26 TIME LEFT:1209598.62
 STEP:  31 TIME =     0.04 SECS, INTEGRAL =      1.30 TIME LEFT:1209598.59
 STEP:  32 TIME =     0.04 SECS, INTEGRAL =      1.34 TIME LEFT:1209598.55
 STEP:  33 TIME =     0.04 SECS, INTEGRAL =      1.38 TIME LEFT:1209598.50
 STEP:  34 TIME =     0.04 SECS, INTEGRAL =      1.42 TIME LEFT:1209598.46
 STEP:  35 TIME =     0.04 SECS, INTEGRAL =      1.46 TIME LEFT:1209598.42
 STEP:  36 TIME =     0.05 SECS, INTEGRAL =      1.51 TIME LEFT:1209598.38
 STEP:  37 TIME =     0.05 SECS, INTEGRAL =      1.55 TIME LEFT:1209598.33
 STEP:  38 TIME =     0.04 SECS, INTEGRAL =      1.60 TIME LEFT:1209598.29
 STEP:  39 TIME =     0.05 SECS, INTEGRAL =      1.64 TIME LEFT:1209598.24
 STEP:  40 TIME =     0.04 SECS, INTEGRAL =      1.69 TIME LEFT:1209598.20
 STEP:  41 TIME =     0.04 SECS, INTEGRAL =      1.73 TIME LEFT:1209598.16
 STEP:  42 TIME =     0.04 SECS, INTEGRAL =      1.77 TIME LEFT:1209598.11
 STEP:  43 TIME =     0.04 SECS, INTEGRAL =      1.81 TIME LEFT:1209598.07
 STEP:  44 TIME =     0.04 SECS, INTEGRAL =      1.85 TIME LEFT:1209598.03
 STEP:  45 TIME =     0.04 SECS, INTEGRAL =      1.89 TIME LEFT:1209597.99
 STEP:  46 TIME =     0.04 SECS, INTEGRAL =      1.93 TIME LEFT:1209597.95
 STEP:  47 TIME =     0.04 SECS, INTEGRAL =      1.98 TIME LEFT:1209597.91
 STEP:  48 TIME =     0.04 SECS, INTEGRAL =      2.02 TIME LEFT:1209597.87
 STEP:  49 TIME =     0.04 SECS, INTEGRAL =      2.06 TIME LEFT:1209597.82
 STEP:  50 TIME =     0.04 SECS, INTEGRAL =      2.10 TIME LEFT:1209597.79
 STEP:  51 TIME =     0.04 SECS, INTEGRAL =      2.14 TIME LEFT:1209597.74
 STEP:  52 TIME =     0.04 SECS, INTEGRAL =      2.18 TIME LEFT:1209597.70
 STEP:  53 TIME =     0.04 SECS, INTEGRAL =      2.22 TIME LEFT:1209597.66
 STEP:  54 TIME =     0.04 SECS, INTEGRAL =      2.26 TIME LEFT:1209597.62
 STEP:  55 TIME =     0.04 SECS, INTEGRAL =      2.30 TIME LEFT:1209597.58
 STEP:  56 TIME =     0.04 SECS, INTEGRAL =      2.34 TIME LEFT:1209597.54
 STEP:  57 TIME =     0.04 SECS, INTEGRAL =      2.38 TIME LEFT:1209597.50
 STEP:  58 TIME =     0.04 SECS, INTEGRAL =      2.42 TIME LEFT:1209597.46
 STEP:  59 TIME =     0.05 SECS, INTEGRAL =      2.47 TIME LEFT:1209597.41
 STEP:  60 TIME =     0.05 SECS, INTEGRAL =      2.52 TIME LEFT:1209597.37
 STEP:  61 TIME =     0.05 SECS, INTEGRAL =      2.56 TIME LEFT:1209597.32
 STEP:  62 TIME =     0.05 SECS, INTEGRAL =      2.61 TIME LEFT:1209597.27
 STEP:  63 TIME =     0.04 SECS, INTEGRAL =      2.65 TIME LEFT:1209597.23
 STEP:  64 TIME =     0.04 SECS, INTEGRAL =      2.69 TIME LEFT:1209597.19
 STEP:  65 TIME =     0.04 SECS, INTEGRAL =      2.73 TIME LEFT:1209597.15
 STEP:  66 TIME =     0.05 SECS, INTEGRAL =      2.79 TIME LEFT:1209597.10
 STEP:  67 TIME =     0.05 SECS, INTEGRAL =      2.84 TIME LEFT:1209597.04
 STEP:  68 TIME =     0.08 SECS, INTEGRAL =      2.92 TIME LEFT:1209596.96
 STEP:  69 TIME =     0.06 SECS, INTEGRAL =      2.98 TIME LEFT:1209596.90
 STEP:  70 TIME =     0.04 SECS, INTEGRAL =      3.02 TIME LEFT:1209596.86
 STEP:  71 TIME =     0.04 SECS, INTEGRAL =      3.06 TIME LEFT:1209596.82
 STEP:  72 TIME =     0.04 SECS, INTEGRAL =      3.11 TIME LEFT:1209596.78
 STEP:  73 TIME =     0.04 SECS, INTEGRAL =      3.15 TIME LEFT:1209596.73
 STEP:  74 TIME =     0.05 SECS, INTEGRAL =      3.20 TIME LEFT:1209596.69
 STEP:  75 TIME =     0.04 SECS, INTEGRAL =      3.24 TIME LEFT:1209596.64
 STEP:  76 TIME =     0.05 SECS, INTEGRAL =      3.29 TIME LEFT:1209596.60
 STEP:  77 TIME =     0.05 SECS, INTEGRAL =      3.33 TIME LEFT:1209596.55
 STEP:  78 TIME =     0.04 SECS, INTEGRAL =      3.38 TIME LEFT:1209596.51
 STEP:  79 TIME =     0.04 SECS, INTEGRAL =      3.41 TIME LEFT:1209596.47
 STEP:  80 TIME =     0.04 SECS, INTEGRAL =      3.46 TIME LEFT:1209596.43
 STEP:  81 TIME =     0.04 SECS, INTEGRAL =      3.50 TIME LEFT:1209596.39

(To convert to Hartree/Bohr^2, multiply by (10^(-21) x N x a0^2)/(4.184 x 627.51) =  0.0642)


           FORCE MATRIX IN MILLIDYNES/ANGSTROM


                  C  1       H  2       N  3       O  4       O  5       H  6
 ------------------------------------------------------------------------------
     C    1  11.533336
     H    2   3.408131   4.245328
     N    3   0.889640   0.112916  19.615206
     O    4   0.131220   0.060184   7.310890   9.788914
     O    5   0.173322   0.037970   7.181746   1.939117   9.665207
     H    6   0.019102   0.001971   0.090201   0.028290   0.027827   4.198429
     C    7   3.822308   0.702962   7.728711   1.702190   1.734526   0.710073
     H    8   0.028397   0.025525   0.345302   0.111861   0.215200   0.010954
     H    9   3.317449   0.463881   0.056853   0.026621   0.030731   0.004254
     C   10   0.646397   0.037361   0.930765   0.155865   0.100973   3.366080
     H   11   0.010818   0.001479   0.083237   0.049228   0.033995   0.465895
     C   12   0.002674   0.001991   0.012624   0.008732   0.015867   0.003209
     C   13   0.002527   0.001325   0.007199   0.005803   0.012319   0.000515
     C   14   0.000867   0.000454   0.003165   0.002690   0.003442   0.000416
     C   15   0.002706   0.000549   0.009611   0.007459   0.008742   0.000705
     C   16   0.002207   0.001820   0.014484   0.010980   0.014857   0.000481
     N   17   0.004266   0.004114   0.028837   0.017366   0.058863   0.001671
     H   18   0.000643   0.000431   0.001918   0.001101   0.002755   0.000313
     H   19   0.001058   0.000287   0.002508   0.001160   0.002635   0.000193
     H   20   0.000914   0.000430   0.003065   0.001894   0.002172   0.000166
     H   21   3.371406   0.465380   0.091444   0.028519   0.032484   0.020920
     H   22   0.034830   0.005587   0.104865   0.038609   0.037645   0.455751
     H   23   0.001500   0.000867   0.014253   0.008374   0.020291   0.000342
     H   24   0.001634   0.000742   0.004204   0.002915   0.005448   0.000698
     H   25   0.016575   0.007513   0.121846   0.039727   0.338704   0.006062
     H   26   0.010345   0.008671   0.068695   0.033733   0.186797   0.004062
     O   27   0.020498   0.011481   0.168226   0.052915   0.445365   0.004057


                  C  7       H  8       H  9       C 10       H 11       C 12
 ------------------------------------------------------------------------------
     C    7  16.876468
     H    8   0.173477   4.123205
     H    9   0.753050   0.008967   4.142011
     C   10   3.831799   0.025566   0.008465  11.509783
     H   11   0.739523   0.007408   0.004915   3.345860   4.169070
     C   12   0.005906   0.025878   0.000806   0.009475   0.006840  15.022167
     C   13   0.001355   0.014129   0.000796   0.000823   0.000603   5.926732
     C   14   0.001013   0.003305   0.000512   0.000731   0.000308   2.204005
     C   15   0.001892   0.012811   0.000857   0.000682   0.000670   1.391708
     C   16   0.005863   0.024292   0.000732   0.001371   0.000711   2.306516
     N   17   0.018379   0.038974   0.001238   0.003625   0.001235   6.108279
     H   18   0.000678   0.002756   0.000462   0.000666   0.000447   0.758271
     H   19   0.000560   0.002848   0.000567   0.000599   0.000576   0.124875
     H   20   0.000688   0.003120   0.000408   0.000530   0.000449   0.015305
     H   21   0.697042   0.019406   0.461771   0.013998   0.003405   0.001257
     H   22   0.718505   0.022916   0.001761   3.354018   0.465770   0.002827
     H   23   0.003610   0.020494   0.000367   0.001583   0.000546   0.135076
     H   24   0.002180   0.006281   0.000776   0.000795   0.000243   3.246737
     H   25   0.054338   0.804061   0.004159   0.019579   0.003124   0.017703
     H   26   0.046909   0.245651   0.001855   0.008533   0.001959   0.771357
     O   27   0.128431   3.786701   0.007268   0.015631   0.003421   0.072075


                  C 13       C 14       C 15       C 16       N 17       H 18
 ------------------------------------------------------------------------------
     C   13  14.885138
     C   14   5.962047  14.969840
     C   15   1.939956   6.026561  14.920139
     C   16   1.300823   2.139774   5.921640  14.950215
     N   17   2.333914   1.468240   2.364747   6.084303  16.151949
     H   18   3.355980   0.728432   0.089595   0.018880   0.107453   4.264161
     H   19   0.716024   3.403074   0.712973   0.110623   0.035394   0.028029
     H   20   0.092496   0.739951   3.370023   0.762852   0.107201   0.011429
     H   21   0.001431   0.001331   0.001216   0.000875   0.003294   0.000440
     H   22   0.000662   0.000488   0.000489   0.000747   0.001960   0.000230
     H   23   0.036774   0.092348   0.648734   3.236297   0.875387   0.014368
     H   24   0.650219   0.094475   0.037184   0.141419   0.881628   0.032465
     H   25   0.010453   0.003620   0.011161   0.018736   0.043068   0.001598
     H   26   0.132169   0.022475   0.127893   0.764176   2.345751   0.019368
     O   27   0.046592   0.010296   0.048409   0.074083   0.723669   0.010166


                  H 19       H 20       H 21       H 22       H 23       H 24
 ------------------------------------------------------------------------------
     H   19   4.240105
     H   20   0.033395   4.256508
     H   21   0.000658   0.001908   4.197849
     H   22   0.000090   0.000275   0.002286   4.186244
     H   23   0.015163   0.029559   0.000583   0.000830   4.136370
     H   24   0.014853   0.015380   0.001041   0.000524   0.016390   4.125450
     H   25   0.002066   0.002748   0.005548   0.016948   0.019601   0.005217
     H   26   0.021398   0.021452   0.006034   0.005151   0.063269   0.062335
     O   27   0.010982   0.012519   0.008642   0.014299   0.043242   0.023412


                  H 25       H 26       O 27
 ------------------------------------------
     H   25   4.380340
     H   26   0.207551   2.942332
     O   27   3.959049   0.437195   6.359574


          HEAT OF FORMATION =     -72.082094 KCALS/MOLE


          TRIVIAL VIBRATIONS, SHOULD BE ZERO

  32.1415=TX  -3.6630=TY  49.1919=TZ   0.7535=RX  40.8082=RY -19.2431=RZ


      MOLECULAR POINT GROUP   :   C1  


           EIGENVECTORS  


   Root No.       1         2         3         4         5         6         7         8

                 1 A       2 A       3 A       4 A       5 A       6 A       7 A       8 A   

                  -0.0      -0.0      -0.0      -0.0      -0.0      -0.0      -0.0       0.0
  
           1    0.0192   -0.0029   -0.0124    0.0572   -0.0655    0.1215   -0.0586    0.1153
           2    0.0168   -0.0817   -0.0213   -0.0250   -0.0255    0.0597   -0.0766    0.0290
           3    0.0484   -0.0107    0.1383   -0.0282    0.0029    0.0842    0.0410   -0.0291
           4    0.0193   -0.0014   -0.0136    0.0567   -0.0636    0.1218   -0.0574    0.1149
           5    0.0016   -0.1508    0.0441    0.0151   -0.0888    0.0624   -0.1285    0.0983
           6    0.1091   -0.0666    0.6636   -0.0347   -0.0311   -0.1197   -0.0368   -0.0328
           7    0.1243    0.1731    0.0331   -0.0413    0.0072    0.0103    0.0197   -0.0556
           8    0.0114   -0.0940   -0.0173   -0.0204   -0.0360    0.0578   -0.0830    0.0371
           9   -0.1432   -0.0056    0.0314   -0.0231    0.2040    0.0812    0.0270    0.0264
          10    0.1148    0.1577    0.0055   -0.0388   -0.0659   -0.0452   -0.0069   -0.0689
          11   -0.0360   -0.2056   -0.0154    0.0316   -0.1146    0.0926   -0.1269    0.1181
          12   -0.1005    0.0532    0.1457   -0.0298    0.4854    0.3118    0.1366    0.0877
          13    0.1987    0.2929    0.0548   -0.0963    0.0820   -0.0025    0.0792   -0.1360
          14    0.0386   -0.0412   -0.0122   -0.0448   -0.0063    0.0448   -0.0620   -0.0011
          15   -0.2194   -0.0244   -0.0645    0.0003    0.1443   -0.0311   -0.0662    0.0215
          16    0.0316    0.0212    0.1038    0.0558    0.1252    0.2434   -0.1475    0.0092
          17    0.0176    0.0871   -0.0268   -0.0927    0.1417   -0.0159   -0.1913   -0.2124
          18    0.0315    0.0252   -0.0700   -0.0825   -0.2838   -0.2172    0.3280    0.1583
          19    0.0624    0.0763    0.0368    0.0064    0.0075    0.0779   -0.0080    0.0320
          20    0.0222   -0.0385   -0.0205   -0.0483    0.0097    0.0297   -0.0617   -0.0067
          21   -0.0226    0.0278    0.0389   -0.0343    0.0177    0.0281    0.0123   -0.0237
          22   -0.2459   -0.1013    0.0073   -0.0908   -0.0397   -0.0605    0.0571   -0.1016
          23   -0.1067   -0.0388    0.0452   -0.0668   -0.0445    0.0508    0.0224   -0.0585
          24   -0.3126   -0.2208   -0.0120   -0.0481    0.1009   -0.0749    0.0423   -0.0520
          25   -0.0426    0.0197   -0.4465    0.0771   -0.0541    0.2975   -0.0082    0.1440
          26    0.0512   -0.0746   -0.1514   -0.0271   -0.0099    0.1697   -0.0171    0.0077
          27    0.0400   -0.0022   -0.0483   -0.0224    0.0119    0.1807    0.0785   -0.0275
          28    0.0575    0.0744    0.0607    0.0062    0.0678    0.1145    0.0092    0.0346
          29    0.0344    0.0483   -0.0254   -0.1023    0.0850   -0.0431    0.0144   -0.0724
          30   -0.0040    0.0541   -0.0515   -0.0454   -0.1779   -0.1174   -0.0337   -0.0496
          31    0.0718    0.0899    0.0069   -0.0043   -0.0538    0.0217    0.0076    0.0340
          32    0.0803    0.0429   -0.0341   -0.1733    0.0277   -0.1754    0.5324    0.1695
          33    0.0061    0.0663   -0.0917   -0.0523   -0.2685   -0.1849   -0.0436   -0.0538
          34   -0.0027   -0.0540   -0.0560   -0.1165    0.0712   -0.1343   -0.0427    0.0090
          35   -0.0273    0.0327    0.0251    0.0923   -0.0285    0.0084    0.0798   -0.0823
          36    0.0679    0.1271   -0.0753    0.2039    0.0739   -0.1081   -0.0234   -0.0209
          37   -0.0188   -0.0411   -0.0453   -0.1012    0.0478   -0.1134   -0.0333    0.0047
          38    0.0141    0.0328   -0.0080   -0.0432    0.0347   -0.0453    0.0329   -0.0479
          39   -0.0475    0.2490   -0.0380    0.0447   -0.0586    0.0031   -0.0337    0.0154
          40   -0.0640   -0.0442   -0.0090    0.0062   -0.0236   -0.0502    0.0102   -0.0219
          41    0.0303    0.0246   -0.0193   -0.0984    0.0551   -0.0622    0.0163   -0.0351
          42   -0.0418    0.1408    0.0009   -0.1028   -0.1341    0.0964   -0.0185    0.0352
          43   -0.0915   -0.0594    0.0158    0.1002   -0.0757   -0.0050    0.0455   -0.0456
          44    0.0018    0.0180    0.0042   -0.0085    0.0096   -0.0219    0.0489   -0.0572
          45    0.0939   -0.0555   -0.0097   -0.1322   -0.1210    0.1161   -0.0030    0.0251
          46   -0.0683   -0.0716    0.0063    0.0905   -0.0550   -0.0207    0.0387   -0.0425
          47   -0.0423    0.0129    0.0362    0.1277   -0.0531    0.0318    0.0962   -0.0913
          48    0.2783   -0.2037   -0.0603    0.0023   -0.0278    0.0506    0.0038   -0.0020
          49   -0.0293   -0.0704   -0.0295   -0.0137    0.0199   -0.0870   -0.0049   -0.0156
          50   -0.0551    0.0206    0.0450    0.1708   -0.0697    0.0440    0.1080   -0.1007
          51    0.2407   -0.0867   -0.0867    0.2302    0.1018   -0.0912   -0.0022   -0.0298
          52    0.0032   -0.0385   -0.0656   -0.1813    0.0872   -0.1478   -0.0625    0.0259
          53    0.0335    0.0333   -0.0245   -0.1082    0.0670   -0.0734    0.0092   -0.0308
          54   -0.1217    0.3424   -0.0299    0.0360   -0.0789    0.0111   -0.0419    0.0238
          55   -0.0787   -0.0410   -0.0012    0.0168   -0.0367   -0.0388    0.0161   -0.0241
          56    0.0665    0.0311   -0.0435   -0.1935    0.1023   -0.0999   -0.0166   -0.0114
          57   -0.1329    0.1974    0.0366   -0.1888   -0.1864    0.1449   -0.0208    0.0586
          58   -0.1276   -0.0601    0.0435    0.1922   -0.1276    0.0416    0.0820   -0.0708
          59    0.0117    0.0150   -0.0031   -0.0468    0.0231   -0.0330    0.0373   -0.0480
          60    0.0661   -0.0943    0.0185   -0.2566   -0.1750    0.1793    0.0016    0.0413
          61    0.0501   -0.0815    0.3691    0.0787   -0.1288   -0.0074   -0.1401    0.1575
          62    0.0046   -0.0482    0.0471   -0.0444   -0.0062   -0.0221   -0.0939    0.0078
          63    0.0485   -0.0095   -0.0977   -0.0178    0.0112    0.2243    0.0946   -0.0263
          64    0.0716    0.1111    0.0898   -0.0325    0.1686    0.1020    0.1847    0.0639
          65    0.0171    0.0807   -0.0254   -0.0901    0.1366   -0.0138   -0.1863   -0.2012
          66   -0.0345    0.0938   -0.0611   -0.0118   -0.1331   -0.0648   -0.4157   -0.2641
          67   -0.0819   -0.0754    0.0241    0.1555   -0.0916    0.0131    0.0631   -0.0593
          68   -0.0633    0.0132    0.0524    0.1894   -0.0869    0.0613    0.1177   -0.1056
          69    0.3768   -0.3350   -0.0671   -0.0339   -0.0264    0.0774    0.0109   -0.0029
          70    0.0320   -0.0485   -0.0800   -0.1905    0.1263   -0.1799   -0.0743    0.0305
          71   -0.0424    0.0346    0.0334    0.1321   -0.0443    0.0199    0.0924   -0.0929
          72    0.0349    0.1822   -0.0923    0.3252    0.1591   -0.2009   -0.0255   -0.0460
          73    0.0492   -0.0730   -0.0442    0.0231    0.0380   -0.1207   -0.0148    0.0109
          74    0.0564    0.1573    0.0185    0.1255    0.0310   -0.1429   -0.1987    0.5752
          75   -0.2667   -0.0896   -0.0081    0.0244    0.1146   -0.1567   -0.0621    0.2697
          76   -0.0585   -0.1003   -0.0395   -0.0278    0.0412   -0.1069   -0.0122   -0.0108
          77   -0.0939    0.0133    0.0667    0.2617   -0.1105    0.0755    0.1308   -0.1029
          78    0.2615   -0.1497   -0.0945    0.3062    0.1692   -0.1536    0.0072   -0.0417
          79    0.0039   -0.0516   -0.0147    0.0124   -0.0081   -0.0449    0.0583   -0.1336
          80   -0.0430    0.0751    0.0301    0.0876    0.0012   -0.0596   -0.0961    0.3155
          81   -0.2563   -0.2051   -0.0154   -0.0287    0.1059   -0.0686    0.0435   -0.0607


   Root No.       9        10        11        12        13        14        15        16

                 9 A      10 A      11 A      12 A      13 A      14 A      15 A      16 A   

                   0.0       0.0       0.0       0.1       0.1       0.1       0.2       0.2
  
           1   -0.1468    0.0106    0.0412   -0.0130    0.0266    0.0081    0.1005    0.0434
           2   -0.0673   -0.0063   -0.0449   -0.0259    0.0112    0.0143   -0.0795   -0.0830
           3    0.2267   -0.0174   -0.0268    0.0932   -0.0178   -0.0040    0.0649   -0.0498
           4   -0.1475    0.0113    0.0410   -0.0156    0.0272    0.0079    0.1208    0.0376
           5   -0.1469    0.0488   -0.0816   -0.0568    0.0170    0.0188    0.2390   -0.2223
           6    0.1127   -0.0311   -0.0254    0.1048   -0.0294   -0.0028    0.0376    0.0601
           7   -0.0242   -0.0961    0.1060   -0.0059    0.0254    0.0026   -0.1058   -0.0413
           8   -0.0777   -0.0013   -0.0398   -0.0211    0.0144    0.0121   -0.1533   -0.0164
           9   -0.0898    0.1428   -0.1382    0.1122   -0.0445   -0.0205   -0.0508   -0.0096
          10   -0.0359   -0.1424    0.1362    0.1309    0.0165   -0.0054   -0.1050   -0.0658
          11   -0.1090    0.0202   -0.0407    0.0558    0.0134    0.0077   -0.1326    0.2120
          12   -0.0388    0.3346   -0.2691   -0.4600   -0.0117    0.0192   -0.0529    0.0553
          13    0.0481   -0.0900    0.1191   -0.1904    0.0434    0.0132   -0.1003   -0.2910
          14   -0.0533   -0.0015   -0.0365   -0.0716    0.0172    0.0156   -0.1580   -0.1198
          15   -0.2573    0.0122   -0.2032    0.6259   -0.1177   -0.0411   -0.1796    0.0396
          16   -0.0238   -0.0694    0.0815    0.1039    0.0057    0.0048   -0.3003   -0.1466
          17   -0.0306   -0.0827   -0.0199    0.0094    0.0047   -0.0138    0.2835    0.1260
          18   -0.0806    0.1522   -0.0967   -0.0676    0.0067    0.0056   -0.1469   -0.0514
          19   -0.0762   -0.0499    0.0761    0.0064    0.0186    0.0047   -0.1341    0.1475
          20   -0.0757   -0.0124   -0.0413   -0.0232    0.0090    0.0111   -0.1788   -0.0863
          21    0.0374    0.0810   -0.0805    0.0764   -0.0133   -0.0133    0.0755   -0.2524
          22   -0.0017   -0.2458    0.0516   -0.1820   -0.1886    0.1548   -0.0528   -0.1674
          23    0.0983    0.5008    0.6047    0.0513   -0.0126    0.0022   -0.0255   -0.0006
          24   -0.0519   -0.1150    0.3390   -0.0926    0.0830   -0.0512    0.0009    0.0848
          25   -0.0746    0.0359    0.0237   -0.0251    0.0380    0.0069    0.3070   -0.0951
          26    0.1399   -0.1094   -0.0043    0.0282    0.0015    0.0202   -0.1838    0.1306
          27    0.3275   -0.0494   -0.0182    0.1162   -0.0192   -0.0024    0.0879   -0.0053
          28   -0.0663   -0.0593    0.0797    0.0447    0.0141    0.0012   -0.1004    0.0931
          29   -0.0750   -0.0519   -0.0238    0.0186    0.0049   -0.0050    0.0859    0.0298
          30    0.0024    0.1037   -0.0871   -0.0473    0.0021   -0.0047    0.0046   -0.0569
          31   -0.0891   -0.0294    0.0715   -0.0864    0.0280    0.0102   -0.1940    0.3293
          32   -0.1773   -0.0292   -0.0230    0.0780    0.0045   -0.0060    0.2221    0.0828
          33   -0.0117    0.1303   -0.0944   -0.1594    0.0135    0.0028   -0.0698    0.1269
          34    0.0703    0.0877   -0.0430    0.0349   -0.0250    0.0095    0.0131   -0.0385
          35    0.0209   -0.0353   -0.0348   -0.0065   -0.0055    0.0002    0.0029    0.0022
          36   -0.0791    0.0267    0.0642    0.0045   -0.0345    0.1506   -0.0005   -0.0087
          37    0.0691    0.0797   -0.0467    0.0300   -0.0340   -0.0096    0.0136   -0.0380
          38    0.0196   -0.0186   -0.0187    0.0044   -0.0097   -0.0094    0.0042   -0.0013
          39   -0.0951   -0.0081    0.0597   -0.0262   -0.1864   -0.0991    0.0016    0.0406
          40    0.0750    0.0644   -0.0664    0.0265   -0.0096   -0.0112    0.0157   -0.0490
          41    0.0215   -0.0131   -0.0152    0.0087    0.0026   -0.0086    0.0032   -0.0021
          42   -0.0477   -0.0330    0.0088    0.0087    0.1380   -0.0966   -0.0025   -0.0380
          43    0.0783    0.0526   -0.0759    0.0177   -0.0213    0.0102    0.0143   -0.0346
          44    0.0226   -0.0253   -0.0226    0.0004   -0.0011    0.0005    0.0009    0.0097
          45   -0.0254   -0.0380    0.0125    0.0010    0.0356    0.1684    0.0045    0.0318
          46    0.0765    0.0548   -0.0688    0.0159   -0.0341   -0.0054    0.0134   -0.0399
          47    0.0219   -0.0397   -0.0331   -0.0079   -0.0103   -0.0115   -0.0001    0.0171
          48   -0.0478   -0.0359    0.0567   -0.0375   -0.1597   -0.0350    0.0017   -0.0265
          49    0.0712    0.0709   -0.0495    0.0241   -0.0130   -0.0105    0.0076   -0.0277
          50    0.0221   -0.0435   -0.0401   -0.0111   -0.0029   -0.0106    0.0004    0.0114
          51   -0.0636    0.0062    0.0556    0.0014    0.1071   -0.0655   -0.0048   -0.0755
          52    0.0690    0.0924   -0.0372    0.0363   -0.0595   -0.0182    0.0166   -0.0379
          53    0.0199   -0.0089   -0.0114    0.0084   -0.0251   -0.0141    0.0059   -0.0015
          54   -0.1111   -0.0129    0.0741   -0.0625   -0.4503   -0.2478    0.0061    0.1440
          55    0.0776    0.0625   -0.0722    0.0287    0.0126   -0.0276    0.0156   -0.0592
          56    0.0170   -0.0064   -0.0034    0.0171    0.0333   -0.0152    0.0022   -0.0163
          57   -0.0275   -0.0461   -0.0303    0.0405    0.4652   -0.2904   -0.0133   -0.1667
          58    0.0799    0.0395   -0.0881    0.0136   -0.0159    0.0338    0.0152   -0.0204
          59    0.0243   -0.0209   -0.0206    0.0046    0.0041    0.0180    0.0016    0.0133
          60    0.0058   -0.0473   -0.0156    0.0283    0.1402    0.5525    0.0121    0.1623
          61   -0.2752    0.0463    0.0283   -0.0361    0.0263    0.0095    0.3306    0.0276
          62   -0.1784    0.0430   -0.0611   -0.0591    0.0138    0.0111   -0.1823   -0.2097
          63    0.3979   -0.0850   -0.0070    0.1414   -0.0219   -0.0012    0.0833    0.0821
          64   -0.0790   -0.1002    0.0859    0.1665    0.0018   -0.0120    0.1916    0.0735
          65   -0.0334   -0.0772   -0.0231    0.0072    0.0047   -0.0128    0.2481    0.1133
          66    0.0745    0.0817   -0.0907   -0.1177    0.0058   -0.0104    0.1111    0.0709
          67    0.0773    0.0459   -0.0802    0.0080   -0.0584   -0.0188    0.0181   -0.0505
          68    0.0222   -0.0447   -0.0424   -0.0112   -0.0227   -0.0186    0.0039    0.0136
          69   -0.0465   -0.0550    0.0800   -0.0834   -0.4259   -0.1789    0.0004   -0.0582
          70    0.0700    0.1034   -0.0334    0.0513   -0.0168    0.0422    0.0205   -0.0684
          71    0.0211   -0.0391   -0.0386   -0.0112   -0.0033    0.0186    0.0001    0.0120
          72   -0.0797    0.0635    0.0733    0.0360    0.0396    0.5550   -0.0021   -0.0183
          73    0.0874   -0.0150   -0.1368   -0.1239    0.1596   -0.1511   -0.0872    0.4594
          74    0.3112   -0.0505   -0.0264   -0.0416   -0.0151   -0.0193   -0.0167    0.0610
          75    0.0478   -0.4962    0.0185   -0.1808   -0.0234    0.0400    0.0265   -0.1370
          76    0.0670    0.0995   -0.0246    0.0641    0.0030   -0.0315    0.0107    0.0089
          77    0.0320   -0.0381   -0.0297    0.0030    0.0009   -0.0162    0.0044   -0.0122
          78   -0.0350    0.0087    0.0421    0.0285    0.3950   -0.2466   -0.0030   -0.0505
          79    0.0235   -0.0599   -0.1191   -0.1250    0.0295   -0.0181   -0.0451    0.0510
          80    0.2101    0.1433    0.1723    0.0520   -0.0490    0.0106    0.0023   -0.0633
          81   -0.0441   -0.0732    0.2988   -0.0841    0.1239   -0.0825    0.0074    0.1063


   Root No.      17        18        19        20        21        22        23        24

                17 A      18 A      19 A      20 A      21 A      22 A      23 A      24 A   

                   0.2       0.3       0.3       0.4       0.6       0.8       0.8       0.8
  
           1   -0.0275   -0.0251    0.0022   -0.0006    0.0037   -0.0012   -0.0150   -0.0807
           2    0.0297   -0.0998   -0.0279   -0.0091   -0.0014    0.0035    0.0266   -0.0456
           3    0.0679    0.0566    0.0406    0.0157   -0.0039    0.0001    0.0964    0.0195
           4   -0.0237   -0.0389    0.0017   -0.0017    0.0032   -0.0014   -0.0146   -0.0805
           5    0.1196   -0.2972   -0.0219   -0.0152   -0.0032    0.0109    0.1167    0.3770
           6   -0.0430   -0.0428    0.0162    0.0132   -0.0014   -0.0015    0.2884   -0.0991
           7    0.0191   -0.0325   -0.0513   -0.0354   -0.0043    0.0063   -0.0125    0.0120
           8    0.0173    0.1005   -0.0039    0.0032    0.0022    0.0013    0.0036   -0.0079
           9    0.0489   -0.0295    0.0743    0.0318   -0.0044   -0.0184    0.0047    0.0094
          10    0.0679   -0.0311   -0.0226   -0.0272   -0.0036    0.0014    0.0006    0.0170
          11   -0.0775    0.4322    0.0635    0.0390    0.0066   -0.0032   -0.0379    0.0346
          12   -0.1473   -0.0328   -0.0390    0.0139   -0.0006    0.0018   -0.0429   -0.0064
          13    0.1424   -0.2757   -0.1065   -0.0628   -0.0067    0.0068    0.0190   -0.0245
          14    0.0690   -0.0122   -0.0212   -0.0048    0.0012    0.0002    0.0174   -0.0248
          15   -0.0377   -0.3299    0.0564    0.0353    0.0103   -0.0035    0.0519   -0.0058
          16    0.1680    0.1943    0.0192   -0.0052   -0.0078   -0.0280   -0.3215    0.4134
          17   -0.0739    0.0552    0.0216    0.0103    0.0021    0.0013    0.1688    0.0269
          18    0.0242    0.0191   -0.0030    0.0020    0.0016    0.0044   -0.2179   -0.1390
          19   -0.1091    0.0758   -0.0192   -0.0056    0.0020    0.0003   -0.0100   -0.0032
          20    0.0420   -0.0306   -0.0281   -0.0104   -0.0017    0.0006    0.0020    0.0025
          21    0.2861    0.2597    0.0942    0.0257   -0.0021    0.0008    0.0039    0.0056
          22   -0.2066   -0.0638    0.4895    0.4799    0.0768   -0.0860    0.0002    0.0146
          23   -0.0110   -0.0726    0.1458    0.1041   -0.0023   -0.0451   -0.0003    0.0005
          24    0.1001   -0.0253   -0.0827   -0.1326   -0.0462   -0.0025    0.0008   -0.0035
          25    0.1074   -0.0170    0.0469    0.0108    0.0072   -0.0054    0.3094   -0.0879
          26   -0.2191   -0.3478   -0.1079   -0.0296   -0.0051    0.0105   -0.2880   -0.3934
          27    0.0121   -0.0316    0.0275    0.0138   -0.0039    0.0010    0.0853   -0.1098
          28   -0.0454    0.1120   -0.0006   -0.0024    0.0004    0.0011    0.0130    0.0299
          29   -0.0138    0.0133    0.0039    0.0003   -0.0015   -0.0063   -0.0303    0.0768
          30    0.0604    0.1015    0.0277    0.0113    0.0021    0.0013   -0.0981   -0.0286
          31   -0.3075   -0.0141   -0.0817   -0.0215    0.0022    0.0068    0.3795    0.2409
          32   -0.0336    0.0513    0.0331    0.0154    0.0006   -0.0263   -0.1415    0.2690
          33   -0.1457   -0.0050   -0.0368   -0.0039    0.0033    0.0057    0.1806    0.1265
          34   -0.0379    0.0218   -0.0623   -0.0200   -0.0289    0.0091    0.0006    0.0026
          35    0.0070    0.0083   -0.0298   -0.0381   -0.0304   -0.0608    0.0024    0.0026
          36   -0.0285   -0.0013    0.0516    0.0200   -0.2713    0.0068    0.0008   -0.0021
          37   -0.0337    0.0229   -0.0735   -0.0208   -0.0255    0.0092    0.0008    0.0043
          38   -0.0009    0.0096   -0.0341   -0.0182   -0.0263   -0.0573    0.0010   -0.0057
          39    0.0400   -0.0061   -0.0405    0.0725   -0.2697    0.0184    0.0009   -0.0066
          40   -0.0407    0.0300   -0.0913   -0.0510   -0.0331   -0.1036    0.0025   -0.0069
          41   -0.0053    0.0072   -0.0195   -0.0124   -0.0220   -0.0193    0.0003   -0.0039
          42   -0.0646    0.0007    0.0576   -0.0071   -0.2493    0.0351    0.0004   -0.0067
          43   -0.0216    0.0251   -0.0870   -0.0416   -0.0307   -0.0109   -0.0002   -0.0065
          44    0.0090    0.0016   -0.0069   -0.0029   -0.0129    0.0649   -0.0019   -0.0016
          45    0.0335   -0.0023   -0.0438    0.0648   -0.2623    0.0322    0.0008   -0.0040
          46   -0.0294    0.0246   -0.0741   -0.0362   -0.0229   -0.0073   -0.0005   -0.0069
          47    0.0165   -0.0004    0.0001   -0.0194   -0.0194    0.0664   -0.0007    0.0101
          48   -0.0391    0.0060    0.0398    0.0093   -0.2717    0.0207    0.0010   -0.0012
          49   -0.0270    0.0110   -0.0277    0.0140   -0.0123    0.0916   -0.0019    0.0036
          50    0.0145    0.0021   -0.0105   -0.0200   -0.0233    0.0163    0.0001    0.0034
          51   -0.1006    0.0058    0.0286    0.2034   -0.2969   -0.0324    0.0006    0.0045
          52   -0.0326    0.0267   -0.1004   -0.0080    0.0331    0.3830   -0.0120   -0.0010
          53   -0.0004    0.0116   -0.0495   -0.0079    0.0102    0.2467   -0.0095   -0.0116
          54    0.1894   -0.0134   -0.2330    0.1758    0.3415   -0.0634    0.0004    0.0087
          55   -0.0533    0.0324   -0.0835   -0.0729    0.0015   -0.1169    0.0017   -0.0158
          56   -0.0277    0.0072    0.0055   -0.0211    0.0084   -0.0222    0.0055    0.0464
          57   -0.2412    0.0101    0.2612   -0.2435    0.2221   -0.0060   -0.0009    0.0041
          58   -0.0023    0.0255   -0.1083   -0.0528   -0.0098    0.4901   -0.0089    0.0580
          59    0.0137    0.0017   -0.0167    0.0067    0.0147   -0.1027    0.0007   -0.0226
          60    0.2095   -0.0149   -0.2512    0.2025    0.2518   -0.0600   -0.0007    0.0017
          61   -0.0435   -0.2308   -0.0138   -0.0108   -0.0022   -0.0107   -0.3178   -0.0607
          62    0.1693    0.1082    0.0001   -0.0041   -0.0005    0.0184    0.3187   -0.2973
          63   -0.0707   -0.0941    0.0161    0.0142   -0.0026   -0.0105   -0.0618    0.2620
          64    0.0412    0.3048    0.0824    0.0325    0.0105    0.0397   -0.0265   -0.3717
          65   -0.0626    0.0624    0.0228    0.0107    0.0023   -0.0023   -0.1589   -0.0158
          66   -0.0471    0.0982    0.0202    0.0128    0.0045   -0.0057   -0.2833   -0.0273
          67   -0.0337    0.0370   -0.1084   -0.1128   -0.0132   -0.4107    0.0080   -0.0247
          68    0.0162    0.0088   -0.0327   -0.0744   -0.0363   -0.3059    0.0074   -0.0045
          69   -0.0838    0.0145    0.1855   -0.3544    0.3098    0.0304   -0.0016    0.0023
          70   -0.0703    0.0395   -0.0989   -0.0622   -0.0024   -0.3934    0.0088   -0.0113
          71    0.0169    0.0022   -0.0044   -0.0531   -0.0018    0.0983   -0.0010    0.0082
          72   -0.0629   -0.0013    0.2329   -0.3581    0.2405    0.0266   -0.0019    0.0008
          73    0.5107   -0.1825    0.3649   -0.0817   -0.0636   -0.0586    0.0031   -0.0004
          74    0.0885   -0.0207    0.0913   -0.0063   -0.0277   -0.0384    0.0016    0.0069
          75   -0.0851    0.0695   -0.1507   -0.0501   -0.0238    0.0078   -0.0053    0.0012
          76   -0.0125    0.0053   -0.0215    0.0265    0.0035    0.0793   -0.0006    0.0178
          77   -0.0173    0.0077   -0.0217    0.0331    0.0723    0.0631   -0.0028   -0.0114
          78   -0.0326    0.0063   -0.2097    0.3964    0.3506   -0.0319   -0.0013    0.0065
          79    0.1015   -0.0772    0.2257    0.1694    0.1227    0.1097   -0.0053   -0.0314
          80   -0.0863   -0.0098    0.0489    0.1243    0.0950    0.0875   -0.0002   -0.0188
          81    0.1578   -0.0177   -0.1398   -0.1846   -0.0278    0.0427   -0.0013   -0.0128


   Root No.      25        26        27        28        29        30        31        32

                25 A      26 A      27 A      28 A      29 A      30 A      31 A      32 A   

                   0.9       0.9       0.9       1.0       1.1       1.1       1.2       1.2
  
           1    0.0073   -0.0653    0.0070   -0.0017   -0.0129   -0.0413   -0.0792    0.0097
           2    0.0034    0.0222   -0.0077    0.0040   -0.0044   -0.0329   -0.0162    0.0050
           3   -0.0003   -0.0126   -0.0002    0.0014    0.0011   -0.0818    0.1319    0.0013
           4    0.0074   -0.0677    0.0069   -0.0011   -0.0131   -0.0409   -0.0908    0.0123
           5   -0.0423    0.4944   -0.0813    0.0324    0.0494    0.2968   -0.0492   -0.0028
           6    0.0133   -0.2305    0.0355   -0.0109    0.0033    0.2214   -0.3101   -0.0025
           7   -0.0033    0.0045    0.0024    0.0000   -0.0017   -0.0629   -0.0998    0.0302
           8   -0.0011    0.0184    0.0079   -0.0123   -0.0361   -0.1451   -0.0645    0.0001
           9    0.0057    0.0099   -0.0390    0.0363   -0.0065   -0.0545    0.0738    0.0219
          10   -0.0028    0.0085   -0.0068    0.0086   -0.0049   -0.0844   -0.0691    0.0340
          11   -0.0047    0.0251    0.0115   -0.0168   -0.0538   -0.2304   -0.1545    0.0237
          12    0.0031   -0.0059   -0.0037    0.0033    0.0030   -0.0196   -0.0728    0.0188
          13   -0.0010    0.0150   -0.0030    0.0020   -0.0237   -0.1668   -0.0761    0.0227
          14    0.0001    0.0220    0.0052   -0.0120   -0.0502   -0.2044   -0.0652   -0.0042
          15   -0.0023    0.0093    0.0193   -0.0233   -0.0361   -0.0467   -0.0686   -0.0193
          16   -0.0248   -0.1864    0.0423   -0.0085    0.0622    0.3105    0.1941   -0.0456
          17   -0.0030   -0.0499    0.0138   -0.0058   -0.0261   -0.2786    0.1737    0.0163
          18    0.0110    0.1204   -0.0329    0.0151   -0.0085    0.0445   -0.2981    0.0338
          19   -0.0014    0.0015   -0.0004    0.0006   -0.0110   -0.0284   -0.1191    0.0170
          20   -0.0005    0.0080    0.0007   -0.0022   -0.0203   -0.1056   -0.0551    0.0106
          21    0.0007    0.0169   -0.0056    0.0032    0.0016   -0.1322    0.2191   -0.0004
          22    0.0257   -0.0319   -0.1622    0.1358   -0.0094    0.0046    0.0069    0.0487
          23    0.0205   -0.0105   -0.1173    0.0874    0.0155   -0.0242   -0.0119    0.0231
          24   -0.0011    0.0033    0.0101    0.0059   -0.0158    0.0194   -0.0071    0.0221
          25    0.0131   -0.3206    0.0499   -0.0132   -0.0016    0.1255   -0.1917   -0.0064
          26    0.0352   -0.0424   -0.0179    0.0182    0.0631    0.2164    0.2485   -0.0246
          27    0.0132   -0.1165    0.0087    0.0039    0.0312    0.0564    0.2287   -0.0160
          28   -0.0049    0.0416   -0.0086    0.0050    0.0005    0.0132   -0.0528    0.0093
          29   -0.0042   -0.0537    0.0098   -0.0003   -0.0111   -0.0758   -0.0555    0.0204
          30    0.0033    0.0209   -0.0044    0.0020    0.0036   -0.0575    0.1294   -0.0035
          31   -0.0266    0.1058   -0.0094    0.0052    0.0297    0.1119    0.1805   -0.0262
          32   -0.0122   -0.3273    0.0728   -0.0248    0.0261    0.1769    0.0988   -0.0371
          33   -0.0127    0.0749   -0.0074    0.0033    0.0266    0.0046    0.3409   -0.0326
          34    0.0264   -0.0007   -0.0201   -0.0559    0.1289   -0.0229   -0.0153   -0.0666
          35    0.0750    0.0062    0.0248    0.0660    0.0733   -0.0330   -0.0259   -0.1984
          36   -0.0034    0.0043    0.0150   -0.0214   -0.0111    0.0035    0.0006   -0.0013
          37    0.0610    0.0022   -0.0156   -0.0925    0.1221   -0.0213   -0.0142   -0.0481
          38   -0.0274    0.0072    0.0666    0.1101    0.0121   -0.0153   -0.0116   -0.0413
          39   -0.0329    0.0102    0.0594   -0.0389   -0.0179    0.0074   -0.0005   -0.0315
          40    0.0013    0.0116    0.0407   -0.0602    0.1370   -0.0328   -0.0209    0.0187
          41   -0.0367    0.0024    0.0346    0.0617    0.0499   -0.0152   -0.0106   -0.0357
          42   -0.0453    0.0081    0.0611   -0.0260   -0.0182    0.0087    0.0004   -0.0142
          43   -0.0528    0.0046    0.0414   -0.0203    0.0961   -0.0159   -0.0070    0.0905
          44   -0.0553    0.0014    0.0678    0.1193    0.0804   -0.0117   -0.0049    0.0126
          45   -0.0062    0.0089    0.0530   -0.0454   -0.0245    0.0098    0.0024    0.0206
          46   -0.0548    0.0076    0.0564   -0.0381    0.0837   -0.0066    0.0014    0.1721
          47    0.0625   -0.0063   -0.0069    0.1046    0.0676   -0.0133   -0.0102   -0.1219
          48    0.0037    0.0034    0.0149   -0.0213   -0.0119    0.0051    0.0022    0.0359
          49   -0.0068   -0.0001    0.0113   -0.0472    0.1666   -0.0127   -0.0030    0.0588
          50    0.0200   -0.0028   -0.0016    0.0560    0.0640   -0.0152   -0.0105   -0.0817
          51    0.0268   -0.0094   -0.0665    0.0509    0.0020   -0.0069   -0.0018    0.0189
          52   -0.3192   -0.0703   -0.2823   -0.1040   -0.2609    0.0427    0.0231    0.0470
          53   -0.3510   -0.0509   -0.1358    0.1324   -0.3293    0.0380    0.0192    0.0272
          54    0.0766   -0.0048   -0.0383    0.0429    0.0438   -0.0075   -0.0025    0.0253
          55   -0.1175    0.0081    0.0642    0.0312    0.2022   -0.0536   -0.0349   -0.0399
          56    0.6272    0.0169   -0.1214   -0.4331   -0.0772    0.0390    0.0302    0.3215
          57   -0.0027   -0.0117   -0.0515    0.0539   -0.0039   -0.0007    0.0004   -0.0031
          58    0.4544   -0.0261   -0.0183    0.3010   -0.2546    0.0111    0.0001   -0.1270
          59   -0.2304    0.0099    0.0891    0.0440    0.2321   -0.0271   -0.0100    0.0937
          60   -0.0020   -0.0096   -0.0560    0.0120    0.0205   -0.0054   -0.0017   -0.0094
          61    0.0091   -0.0971    0.0159   -0.0079   -0.0242   -0.3024    0.2869   -0.0033
          62    0.0262   -0.1328    0.0015    0.0132    0.0563    0.1977    0.1637   -0.0105
          63   -0.0238    0.1560   -0.0136   -0.0051   -0.0572   -0.2300   -0.1968    0.0257
          64    0.0109    0.5500   -0.1059    0.0321    0.0310    0.1776    0.1124   -0.0334
          65    0.0019    0.0128   -0.0042    0.0046    0.0113    0.1845   -0.2186    0.0046
          66    0.0065   -0.0525    0.0094   -0.0017    0.0286    0.2875   -0.1573   -0.0178
          67   -0.1316   -0.0163   -0.2543   -0.2778   -0.2926    0.0528    0.0314    0.0892
          68    0.0002   -0.0318   -0.3110   -0.0824   -0.2825    0.0431    0.0159   -0.2669
          69    0.0051   -0.0010    0.0267    0.0336    0.0400   -0.0083   -0.0049   -0.0223
          70    0.1652    0.0623    0.3579    0.4432   -0.3076    0.0440    0.0201   -0.1076
          71    0.0231   -0.0189   -0.1233   -0.1248    0.2762   -0.0714   -0.0489   -0.2488
          72   -0.0249   -0.0060   -0.0203   -0.0176    0.0107    0.0021    0.0021    0.0314
          73    0.0087   -0.0090   -0.0848    0.1110   -0.0215    0.0100    0.0122    0.0902
          74    0.0200   -0.0242   -0.1131    0.1037    0.0238   -0.0091    0.0016    0.0620
          75    0.0073   -0.0016   -0.0352    0.0141    0.0385   -0.0322   -0.0074    0.0017
          76    0.0286   -0.0311   -0.1539    0.0460    0.3377   -0.0157   -0.0042    0.0363
          77   -0.0987    0.0405    0.3236    0.0465   -0.1078    0.0777    0.0639    0.6616
          78    0.0032   -0.0177   -0.0739    0.0400   -0.0051   -0.0035   -0.0046   -0.0308
          79   -0.0717    0.0991    0.4293   -0.3933   -0.1581    0.0046    0.0091   -0.2826
          80   -0.0477    0.0640    0.3116   -0.2895   -0.1024    0.0383    0.0079   -0.2083
          81   -0.0219    0.0330    0.1352   -0.1101   -0.0381    0.0163    0.0025   -0.0525


   Root No.      33        34        35        36        37        38        39        40

                33 A      34 A      35 A      36 A      37 A      38 A      39 A      40 A   

                   1.3       1.4       1.5       1.5       1.5       1.5       1.6       1.8
  
           1   -0.0033    0.0016    0.0374   -0.0068   -0.2607    0.0189    0.1292   -0.1326
           2   -0.0040   -0.0039   -0.0068   -0.0007   -0.0149    0.0358    0.1316   -0.0911
           3   -0.0023   -0.0031    0.0215   -0.0061    0.0374    0.3167   -0.0146   -0.0415
           4   -0.0038    0.0022    0.0517   -0.0092   -0.3351    0.0296    0.1482   -0.1820
           5   -0.0036   -0.0051    0.0533   -0.0077   -0.1350    0.0037   -0.2257    0.1063
           6    0.0029   -0.0084   -0.0285    0.0075   -0.0103   -0.3292    0.0366    0.0299
           7   -0.0019    0.0121    0.1070   -0.0048   -0.1077    0.0325   -0.2603    0.0668
           8   -0.0005   -0.0062   -0.0447    0.0057    0.0761   -0.0249    0.1896   -0.0074
           9   -0.0071   -0.0001   -0.0276   -0.0162   -0.0433    0.0179   -0.0845    0.0317
          10   -0.0046    0.0108    0.0966   -0.0093   -0.1230    0.0464   -0.2790    0.0842
          11   -0.0079   -0.0027    0.0632   -0.0029   -0.0752    0.0115   -0.2352    0.2023
          12   -0.0085    0.0085    0.0481   -0.0006   -0.0477   -0.0175   -0.0878    0.0233
          13    0.0004    0.0074   -0.0026    0.0027    0.0090   -0.0047    0.1264    0.0414
          14    0.0020   -0.0086   -0.1019    0.0111    0.1436   -0.0472    0.3879   -0.0117
          15    0.0138    0.0041   -0.0348    0.0082    0.0209    0.0276    0.0832    0.0632
          16    0.0063   -0.0054   -0.0655    0.0085    0.1458   -0.2508    0.0240   -0.0859
          17   -0.0049    0.0097    0.0573   -0.0025   -0.1290   -0.2615   -0.1764   -0.0293
          18   -0.0017    0.0030   -0.0000    0.0009    0.2938    0.0083   -0.2046   -0.0972
          19   -0.0023    0.0049    0.0471   -0.0050   -0.1030    0.0436   -0.0975    0.0390
          20   -0.0028   -0.0017   -0.0162    0.0028    0.0724   -0.0308    0.0734   -0.0158
          21   -0.0012    0.0022    0.0181   -0.0029   -0.0373    0.0060   -0.0358    0.0067
          22   -0.0699    0.0026   -0.0714   -0.0302   -0.0228    0.0050   -0.0624   -0.2098
          23   -0.0095   -0.0062   -0.0834    0.0019    0.0021    0.0004    0.0921    0.4087
          24    0.0205   -0.0075   -0.0048   -0.0229   -0.0135   -0.0035   -0.0562   -0.2890
          25    0.0072   -0.0037   -0.0649    0.0116    0.2468   -0.2226   -0.0214    0.0844
          26   -0.0004   -0.0088    0.0172   -0.0026   -0.1287   -0.1993   -0.1278    0.0639
          27    0.0020   -0.0064    0.0019   -0.0024    0.1791    0.2321   -0.1984    0.1023
          28   -0.0017    0.0031    0.0253   -0.0046   -0.0272    0.1039   -0.0802    0.0277
          29   -0.0039    0.0049   -0.0005    0.0025    0.2313   -0.1118   -0.1930   -0.1025
          30    0.0030    0.0037    0.0245    0.0004   -0.1530   -0.2721   -0.0309    0.0003
          31    0.0074   -0.0029   -0.0654    0.0038    0.2249    0.2262    0.0878   -0.0168
          32    0.0080   -0.0048    0.0031   -0.0014   -0.2512    0.1134    0.1771    0.0849
          33    0.0096   -0.0011   -0.0500    0.0079    0.0257   -0.2759    0.1125   -0.0487
          34   -0.0104   -0.0069    0.0666   -0.1068    0.0180   -0.0069    0.0204    0.0021
          35    0.0236   -0.0059   -0.0863   -0.2144   -0.0143    0.0031   -0.0189    0.0001
          36    0.0353   -0.4021    0.0901   -0.0171    0.0146   -0.0055    0.0105   -0.0063
          37   -0.0344   -0.0060    0.0502   -0.2010    0.0182   -0.0083    0.0234    0.0094
          38    0.0126   -0.0603   -0.2038    0.1433   -0.0486    0.0169   -0.0563   -0.0230
          39   -0.3722   -0.3530    0.0211   -0.0245    0.0041   -0.0018    0.0021    0.0027
          40    0.0190   -0.0421   -0.2943   -0.1042   -0.0589    0.0166   -0.0620   -0.0187
          41   -0.0120   -0.0127   -0.0865    0.1360   -0.0217    0.0081   -0.0240   -0.0138
          42   -0.3772    0.0915   -0.0502    0.0087   -0.0069    0.0021   -0.0055    0.0065
          43    0.0083    0.0061   -0.0933    0.1070   -0.0184    0.0052   -0.0084   -0.0006
          44   -0.0221    0.0180    0.1095    0.2877    0.0194   -0.0043    0.0304    0.0039
          45   -0.1723    0.4472   -0.0988    0.0139   -0.0159    0.0046   -0.0126   -0.0009
          46    0.0377   -0.0057   -0.0588    0.1659   -0.0116    0.0032    0.0016    0.0033
          47   -0.0160    0.0628    0.1711   -0.0965    0.0378   -0.0125    0.0365    0.0031
          48    0.2088    0.4246   -0.0245    0.0039   -0.0035    0.0002   -0.0025   -0.0124
          49    0.0085    0.0180    0.2057    0.0688    0.0441   -0.0142    0.0519    0.0092
          50    0.0184    0.0196    0.0652   -0.0953    0.0158   -0.0057    0.0155    0.0044
          51    0.5540   -0.1599    0.0743   -0.0009    0.0087   -0.0035    0.0011   -0.0136
          52    0.0245    0.0410    0.1147   -0.3287    0.0350   -0.0147    0.0411    0.0237
          53    0.0623   -0.0537   -0.2401    0.1567   -0.0591    0.0212   -0.0736   -0.0243
          54    0.2513    0.2256   -0.0117    0.0399   -0.0035    0.0004   -0.0020   -0.0028
          55    0.0879   -0.0647   -0.3927   -0.1179   -0.0815    0.0236   -0.0902   -0.0340
          56   -0.0113   -0.0467   -0.0980    0.0397   -0.0185    0.0047   -0.0144   -0.0028
          57    0.2403   -0.0398    0.0888    0.0034    0.0158   -0.0054    0.0128   -0.0065
          58   -0.0018   -0.0560   -0.0710    0.2490   -0.0223    0.0099   -0.0222   -0.0107
          59   -0.0018   -0.0165    0.1460    0.3609    0.0280   -0.0077    0.0483    0.0074
          60    0.1096   -0.2783    0.0679   -0.0536    0.0121   -0.0038    0.0036   -0.0096
          61   -0.0023   -0.0018   -0.0426    0.0035    0.2848    0.1405   -0.0105    0.0181
          62   -0.0009    0.0005    0.0514   -0.0109   -0.1265    0.3475    0.0023   -0.1169
          63   -0.0071   -0.0053    0.0053   -0.0021   -0.1056    0.0378    0.2343   -0.1600
          64    0.0073   -0.0050   -0.0847    0.0080    0.0491   -0.1654    0.2257   -0.0010
          65    0.0036    0.0018   -0.0552    0.0048    0.3397    0.1649   -0.0078   -0.1006
          66    0.0125    0.0017   -0.0025   -0.0022   -0.1629    0.2558    0.1890    0.1011
          67   -0.0145   -0.0435   -0.0369    0.2745   -0.0153    0.0079   -0.0150   -0.0023
          68   -0.0713    0.0836    0.2832   -0.1022    0.0544   -0.0151    0.0363   -0.0067
          69   -0.1623   -0.2491    0.0110   -0.0255    0.0023   -0.0007   -0.0014   -0.0038
          70   -0.0217    0.0648    0.1270   -0.1633    0.0283   -0.0097    0.0247    0.0198
          71    0.0324    0.0255   -0.1552   -0.2979   -0.0250    0.0055   -0.0275   -0.0024
          72   -0.0600    0.2361   -0.0576    0.0454   -0.0105    0.0032   -0.0075   -0.0002
          73    0.0003   -0.0129   -0.0634   -0.0401   -0.0113    0.0016    0.0063    0.0606
          74   -0.0196    0.0061   -0.0353   -0.0224   -0.0062   -0.0008   -0.0086   -0.0877
          75    0.0111    0.0003   -0.0062    0.0243    0.0217    0.0024    0.1121    0.5026
          76   -0.1237    0.0817    0.4270    0.1461    0.0807   -0.0260    0.0658   -0.0577
          77   -0.0214   -0.0033    0.1137   -0.3479    0.0418   -0.0193    0.0578    0.0267
          78   -0.3420    0.0675   -0.1164    0.0030   -0.0212    0.0070   -0.0193    0.0024
          79    0.0816    0.0004    0.0514    0.0825    0.0140    0.0086    0.0326    0.2625
          80    0.0509    0.0146    0.0798    0.0520   -0.0081    0.0041   -0.0897   -0.2757
          81    0.0393   -0.0020    0.0411    0.0094   -0.0010   -0.0033   -0.0345   -0.1803


   Root No.      41        42        43        44        45        46        47        48

                41 A      42 A      43 A      44 A      45 A      46 A      47 A      48 A   

                   1.9       2.4       2.5       2.8       2.9       3.1       3.2       3.4
  
           1    0.2308   -0.0240    0.0700   -0.0016    0.0706    0.0033    0.1304    0.0015
           2    0.0692    0.0311   -0.0695   -0.0033   -0.2800   -0.0091   -0.2300    0.0012
           3    0.0730    0.0321   -0.1517    0.0051    0.0544   -0.0051    0.0552   -0.0005
           4    0.3360   -0.0424    0.1235   -0.0025    0.1641    0.0067    0.3493    0.0006
           5   -0.0686   -0.0154   -0.0027    0.0012    0.1356    0.0016    0.0442    0.0009
           6   -0.0457   -0.0174    0.0928   -0.0042   -0.0254    0.0035   -0.0143   -0.0023
           7   -0.0635    0.0526   -0.1308   -0.0019   -0.1845    0.0020   -0.0276    0.0000
           8   -0.1043    0.0150   -0.0022   -0.0018    0.1536    0.0126   -0.0872    0.0006
           9   -0.0003   -0.1760    0.4505   -0.0010   -0.1811   -0.0408   -0.1084    0.0030
          10   -0.0716   -0.0076    0.0364   -0.0036   -0.2642   -0.0102   -0.0451    0.0019
          11   -0.2475   -0.0022   -0.0102   -0.0009   -0.1582   -0.0144    0.3502   -0.0001
          12   -0.0391    0.0623   -0.1675    0.0051   -0.0421    0.0087    0.0362   -0.0039
          13   -0.2151    0.0025    0.0599   -0.0018    0.0298   -0.0002    0.3046    0.0014
          14   -0.1881    0.0007    0.0646   -0.0019    0.2978    0.0170    0.0767    0.0008
          15   -0.0534    0.0513   -0.1945    0.0072    0.0771    0.0057    0.1210   -0.0040
          16    0.1641    0.0240   -0.1316    0.0058    0.0303   -0.0067    0.0295    0.0022
          17    0.1345    0.0084   -0.0904    0.0069    0.3021    0.0087   -0.2361    0.0019
          18    0.2416   -0.0134    0.0070    0.0012    0.2047    0.0079   -0.1260    0.0010
          19   -0.0264    0.0172   -0.1212    0.0078    0.1512   -0.0044   -0.0975    0.0039
          20   -0.0580    0.0174   -0.0043   -0.0037   -0.1029    0.0015   -0.1394    0.0005
          21   -0.0117   -0.0962    0.4935   -0.0218   -0.0026    0.0398   -0.0119   -0.0066
          22   -0.1176   -0.0476   -0.0236    0.0166    0.0073   -0.0069    0.0128    0.0046
          23    0.2085   -0.0010   -0.0353    0.0096   -0.0046   -0.0054   -0.0030    0.0009
          24   -0.1588   -0.0532   -0.0278   -0.0063    0.0155   -0.0199    0.0100   -0.0046
          25   -0.1676    0.0140   -0.0166   -0.0021   -0.1129   -0.0029   -0.1315    0.0031
          26   -0.0233   -0.0624    0.2336   -0.0102   -0.0135    0.0087   -0.0174   -0.0003
          27   -0.0965    0.0196   -0.1531    0.0090    0.2821   -0.0010    0.2416    0.0000
          28   -0.0115   -0.0255    0.0680    0.0013    0.2764    0.0152   -0.2637    0.0029
          29    0.2545   -0.0111    0.0058    0.0003    0.0298   -0.0006    0.0414    0.0001
          30    0.0041    0.0375   -0.1577    0.0056    0.0877   -0.0016   -0.0781    0.0004
          31   -0.0021   -0.0621    0.2761   -0.0104    0.0518    0.0175   -0.1043    0.0009
          32   -0.1858    0.0079   -0.0140   -0.0012   -0.0185   -0.0008   -0.0132    0.0005
          33    0.0275    0.0401   -0.1329    0.0011   -0.2577   -0.0180    0.2765   -0.0011
          34   -0.0047   -0.0801   -0.0150    0.0347   -0.0016    0.0184    0.0001    0.0282
          35    0.0029   -0.0976   -0.0325    0.0079   -0.0105    0.1620    0.0003    0.0407
          36   -0.0036    0.0086    0.0133    0.2787   -0.0029   -0.0075    0.0019    0.6118
          37   -0.0031   -0.1427   -0.0323    0.0212    0.0008   -0.0672   -0.0012   -0.0486
          38    0.0015    0.1555    0.0353    0.0216   -0.0019    0.0722    0.0001   -0.0241
          39    0.0010    0.0141    0.0080    0.2380   -0.0023    0.0219   -0.0017   -0.4229
          40    0.0015    0.1429    0.0310   -0.0344    0.0080   -0.1321   -0.0004   -0.0050
          41   -0.0021    0.0308    0.0071   -0.0019    0.0007   -0.0257   -0.0011   -0.0253
          42    0.0025   -0.0229   -0.0215   -0.5013    0.0048   -0.0083   -0.0007   -0.1258
          43   -0.0020   -0.0793   -0.0197   -0.0019    0.0018   -0.0387    0.0003    0.0579
          44   -0.0066   -0.1914   -0.0429    0.0068    0.0011   -0.0880   -0.0018    0.0084
          45    0.0004    0.0004   -0.0028   -0.0972   -0.0005    0.0033    0.0017    0.4659
          46   -0.0020   -0.1143   -0.0286    0.0315   -0.0039    0.0784    0.0007   -0.0089
          47   -0.0048    0.0624    0.0276    0.0072    0.0105   -0.1442    0.0006    0.0038
          48   -0.0055    0.0251    0.0237    0.5216   -0.0055    0.0154   -0.0015   -0.3057
          49   -0.0047    0.0601    0.0310   -0.0318    0.0067   -0.0065    0.0015   -0.0148
          50   -0.0005    0.0114    0.0066   -0.0244    0.0023   -0.0022    0.0009    0.0155
          51   -0.0048   -0.0080   -0.0139   -0.4641    0.0046   -0.0117   -0.0006   -0.1667
          52   -0.0004   -0.2390   -0.0620   -0.0201    0.0032   -0.1759   -0.0022    0.0051
          53    0.0074    0.3208    0.0747   -0.0085   -0.0046    0.2306    0.0031    0.0287
          54   -0.0009   -0.0008   -0.0028   -0.0973    0.0008   -0.0038    0.0002    0.1148
          55    0.0002    0.2745    0.0673    0.0339    0.0196   -0.3911   -0.0023   -0.0031
          56    0.0005    0.0439    0.0097   -0.0107    0.0044   -0.0749   -0.0004   -0.0038
          57   -0.0040   -0.0155    0.0042    0.2202   -0.0043    0.0442    0.0000    0.0466
          58   -0.0029   -0.0990   -0.0275    0.0208   -0.0004   -0.0763   -0.0018   -0.0334
          59   -0.0118   -0.3793   -0.0907    0.0269    0.0052   -0.2732   -0.0043   -0.0165
          60   -0.0033    0.0317    0.0107    0.0187   -0.0004    0.0196   -0.0008   -0.1443
          61   -0.0910    0.0290   -0.0822    0.0010   -0.1309   -0.0058   -0.1338    0.0027
          62    0.2213    0.0455   -0.2138    0.0051   -0.1597   -0.0168   -0.0968    0.0014
          63    0.1686    0.0316   -0.0703   -0.0036   -0.2756   -0.0099   -0.2072   -0.0001
          64   -0.1050    0.0413   -0.1377    0.0040   -0.0840   -0.0077   -0.0161    0.0020
          65    0.1837   -0.0297    0.1173   -0.0055   -0.1902   -0.0066    0.3064   -0.0021
          66   -0.2568    0.0096   -0.0004    0.0002    0.0720    0.0066   -0.1888   -0.0000
          67    0.0016   -0.1573   -0.0509   -0.0104   -0.0191    0.3246    0.0007   -0.0071
          68   -0.0048    0.2037    0.0676   -0.0003    0.0211   -0.3701   -0.0018   -0.0005
          69   -0.0017    0.0029   -0.0019   -0.1647    0.0023   -0.0158    0.0007    0.0999
          70    0.0065   -0.0787   -0.0258   -0.0161   -0.0088    0.1685    0.0010   -0.0048
          71    0.0006   -0.2405   -0.0776   -0.0094   -0.0269    0.4622    0.0015   -0.0158
          72    0.0001    0.0198    0.0029   -0.0664    0.0028   -0.0344   -0.0010   -0.1802
          73    0.0307   -0.0140   -0.0385    0.0036   -0.0013   -0.0016    0.0010    0.0001
          74   -0.0585   -0.0411   -0.0037    0.0077    0.0108   -0.0106    0.0117    0.0006
          75    0.2649    0.0551    0.0036    0.0010   -0.0168    0.0118   -0.0159   -0.0026
          76   -0.0365    0.4783    0.1297   -0.0316    0.0037    0.2942    0.0085    0.0092
          77    0.0002    0.0791    0.0194   -0.0055    0.0019    0.0555    0.0026   -0.0142
          78    0.0006   -0.0504   -0.0152    0.1228   -0.0019   -0.0192   -0.0004    0.0314
          79    0.1564    0.0772    0.0512   -0.0119   -0.0137    0.0054   -0.0130   -0.0025
          80   -0.1199    0.0381    0.0203   -0.0121   -0.0054    0.0102   -0.0070   -0.0039
          81   -0.0985    0.0120    0.0037   -0.0078    0.0102    0.0086    0.0125   -0.0036


   Root No.      49        50        51        52        53        54        55        56

                49 A      50 A      51 A      52 A      53 A      54 A      55 A      56 A   

                   3.6       3.6       4.7       4.9       5.5       6.0       6.6       7.4
  
           1   -0.0057    0.0013    0.0001    0.0047   -0.0006   -0.0003   -0.1772   -0.0060
           2   -0.0211   -0.0010   -0.0014   -0.0069   -0.0001    0.0003    0.3019    0.0085
           3    0.0552    0.0009   -0.0016    0.0018    0.0002    0.0001   -0.0980    0.0016
           4   -0.0096    0.0020    0.0007   -0.1533    0.0051    0.0003    0.3602    0.0062
           5    0.0194    0.0008   -0.0017   -0.0151   -0.0017   -0.0004   -0.0684    0.0006
           6   -0.0254    0.0002   -0.0018    0.0018    0.0009    0.0003    0.0157   -0.0014
           7   -0.2150   -0.0023    0.0023   -0.1903   -0.0108   -0.0004    0.0616    0.0188
           8   -0.0440    0.0004   -0.0006   -0.3141    0.0018   -0.0003   -0.0489    0.0018
           9    0.6604    0.0057   -0.0007   -0.1015    0.0294    0.0012    0.0270   -0.0338
          10   -0.0140   -0.0004    0.0014   -0.2720    0.0009   -0.0002    0.0985    0.0003
          11    0.0560    0.0009   -0.0029    0.3511   -0.0010    0.0001    0.0591    0.0024
          12   -0.1996   -0.0025    0.0024   -0.0416   -0.0084   -0.0002    0.0282    0.0092
          13    0.1588    0.0027   -0.0006    0.4090    0.0176    0.0019   -0.0049   -0.0255
          14    0.0628    0.0020   -0.0012   -0.1238    0.0124    0.0003   -0.1147   -0.0244
          15   -0.2006   -0.0033    0.0032    0.1079   -0.0185   -0.0011   -0.0146    0.0250
          16    0.0682    0.0015   -0.0002    0.1145    0.0004    0.0003    0.0914    0.0024
          17    0.0585   -0.0004    0.0002    0.2034    0.0017    0.0004    0.1433    0.0017
          18    0.0296    0.0006   -0.0012    0.1705    0.0024    0.0003    0.1177    0.0002
          19    0.1562    0.0022    0.0007   -0.2018    0.0052   -0.0007   -0.3317   -0.0209
          20   -0.0329   -0.0005   -0.0002   -0.2865    0.0055    0.0003    0.2298   -0.0035
          21   -0.5302   -0.0045    0.0012    0.0152   -0.0193   -0.0003   -0.0957    0.0221
          22   -0.0391   -0.0031    0.0028    0.0088   -0.0027   -0.0014    0.0017   -0.0985
          23   -0.0376    0.0005    0.0020    0.0010   -0.0119   -0.0007    0.0010    0.0259
          24    0.0122    0.0002   -0.0030   -0.0012   -0.0826   -0.0018   -0.0118    0.5659
          25   -0.0042    0.0008   -0.0001    0.0510   -0.0011   -0.0002   -0.0530    0.0005
          26   -0.1137   -0.0009   -0.0024    0.1085   -0.0058   -0.0004   -0.1295    0.0044
          27    0.1182    0.0025   -0.0014   -0.2297    0.0067    0.0002    0.2344   -0.0032
          28   -0.0102    0.0007    0.0005   -0.0036   -0.0022   -0.0005   -0.3569   -0.0140
          29    0.0034   -0.0010    0.0000    0.0010   -0.0002    0.0003    0.0835    0.0045
          30    0.0502    0.0002    0.0002   -0.0035    0.0009   -0.0004   -0.0949    0.0009
          31   -0.1457   -0.0016    0.0004    0.1661   -0.0015    0.0003    0.2160    0.0115
          32    0.0006   -0.0009   -0.0007   -0.0123   -0.0004   -0.0001   -0.0067    0.0002
          33    0.0497    0.0004    0.0008   -0.1780    0.0009   -0.0004   -0.1966   -0.0109
          34    0.0068    0.3373    0.0126   -0.0009   -0.2886    0.1023    0.0027   -0.0245
          35   -0.0030   -0.1327    0.0232    0.0003    0.0659   -0.2423    0.0011   -0.0579
          36   -0.0080    0.0183    0.3138    0.0009    0.0336    0.0060   -0.0005    0.0069
          37   -0.0055    0.2652   -0.0385   -0.0004   -0.2247   -0.0397    0.0033   -0.0534
          38    0.0086    0.2182   -0.0260   -0.0005   -0.0867   -0.2155    0.0022   -0.0758
          39    0.0008   -0.0790   -0.4108   -0.0012    0.0152    0.0096   -0.0002    0.0070
          40   -0.0042   -0.0664    0.0434   -0.0001   -0.0989    0.0543    0.0032   -0.1206
          41   -0.0032    0.3597    0.0157    0.0001   -0.0243   -0.2732    0.0011   -0.0268
          42    0.0080    0.0073    0.5486    0.0009    0.0057    0.0141   -0.0003    0.0090
          43    0.0021   -0.3321   -0.0309   -0.0015   -0.2410    0.1214    0.0039   -0.0826
          44   -0.0113    0.1101   -0.0258   -0.0002   -0.0017   -0.1883   -0.0003    0.0452
          45   -0.0044    0.0339   -0.5032   -0.0015    0.0268   -0.0033   -0.0002    0.0035
          46    0.0092   -0.2661    0.0263   -0.0012   -0.2425   -0.0042    0.0034   -0.0465
          47    0.0122   -0.2505    0.0216   -0.0002   -0.1595   -0.2648    0.0008    0.0416
          48   -0.0001    0.0044    0.3035    0.0009    0.0278    0.0069    0.0000   -0.0008
          49    0.0374    0.0547   -0.0132   -0.0018   -0.3504    0.0532   -0.0002    0.0911
          50    0.0115   -0.3128    0.0024   -0.0003   -0.0680   -0.2842    0.0006    0.0133
          51    0.0059    0.0185   -0.2113   -0.0004    0.0194    0.0099    0.0000   -0.0137
          52   -0.0325   -0.1318   -0.0018    0.0015    0.2344   -0.2170   -0.0009   -0.0134
          53    0.0357   -0.1409    0.0113   -0.0015   -0.1923    0.2952    0.0001    0.0201
          54    0.0004    0.0299    0.0722   -0.0001   -0.0096    0.0038   -0.0001   -0.0001
          55   -0.0277    0.0348   -0.0164    0.0021    0.3961   -0.0159   -0.0060    0.1487
          56   -0.0036   -0.1976    0.0045    0.0000    0.0750    0.0578   -0.0013    0.0269
          57    0.0015    0.0057   -0.1180   -0.0007   -0.0324   -0.0042    0.0006   -0.0143
          58   -0.0202    0.1814    0.0080    0.0008    0.1512    0.0948   -0.0010   -0.0027
          59   -0.0438   -0.0826    0.0036    0.0007    0.2723    0.3528   -0.0021   -0.0160
          60    0.0082   -0.0140    0.0945   -0.0002   -0.0230   -0.0215    0.0004   -0.0023
          61    0.0014    0.0007   -0.0003    0.0569   -0.0018   -0.0001   -0.0404   -0.0001
          62    0.0754   -0.0007   -0.0010    0.2191   -0.0038   -0.0004   -0.1691   -0.0013
          63   -0.0047   -0.0005   -0.0027    0.1762   -0.0026    0.0000   -0.1191   -0.0026
          64    0.0418    0.0006    0.0007    0.0142    0.0009    0.0004    0.1370    0.0034
          65   -0.0477   -0.0021    0.0010   -0.1256   -0.0028   -0.0007   -0.2801   -0.0057
          66    0.0123   -0.0001    0.0010    0.0756    0.0040    0.0004    0.1965    0.0008
          67    0.0021    0.1327    0.0053    0.0007    0.1542   -0.2543   -0.0019    0.0562
          68   -0.0011    0.1253   -0.0134   -0.0006   -0.1085    0.3158    0.0011   -0.0425
          69    0.0022   -0.0089   -0.0470    0.0001   -0.0073    0.0100    0.0003   -0.0060
          70    0.0029   -0.1714   -0.0008    0.0002    0.1042    0.1189   -0.0019    0.0379
          71    0.0020    0.0712   -0.0049   -0.0000    0.1590    0.3796   -0.0030    0.0588
          72    0.0006    0.0006   -0.0507   -0.0003   -0.0186   -0.0277    0.0002   -0.0065
          73   -0.0537    0.0090    0.0011    0.0020    0.0230    0.0035    0.0083   -0.2365
          74    0.0106   -0.0044    0.0025    0.0074   -0.0546   -0.0048   -0.0112    0.3296
          75   -0.0051    0.0040    0.0006   -0.0080    0.0343    0.0032    0.0064   -0.1577
          76    0.0522   -0.0475   -0.0025    0.0027    0.3462   -0.0155   -0.0057    0.0183
          77    0.0063    0.2508   -0.0069    0.0009    0.0601    0.0725   -0.0012    0.0027
          78   -0.0119   -0.0168    0.0114   -0.0006   -0.0286   -0.0039    0.0008   -0.0020
          79    0.0482   -0.0049   -0.0011   -0.0082    0.0276   -0.0009   -0.0093    0.3499
          80   -0.0002   -0.0108    0.0011   -0.0059    0.0694    0.0007    0.0109   -0.3340
          81   -0.0255   -0.0036    0.0001    0.0166    0.0430   -0.0013    0.0035   -0.3966


   Root No.      57        58        59        60        61        62        63        64

                57 A      58 A      59 A      60 A      61 A      62 A      63 A      64 A   

                   8.0       8.3       8.7       8.8       8.9       9.0       9.1       9.4
  
           1   -0.0000   -0.0007   -0.2385   -0.0706   -0.0510   -0.3587   -0.0790    0.6181
           2   -0.0000    0.0001   -0.0910   -0.0737   -0.1599   -0.2952    0.5664    0.0434
           3    0.0032    0.0009    0.6224    0.3995   -0.0167   -0.1776    0.1403    0.1567
           4    0.0000    0.0006    0.1646    0.0434    0.0289    0.2285    0.0691   -0.3794
           5    0.0001    0.0001    0.0028    0.0057    0.0106    0.0142   -0.0347    0.0013
           6   -0.0001   -0.0002   -0.0299   -0.0202    0.0008    0.0078   -0.0035   -0.0077
           7    0.0016    0.0001    0.0167    0.0223    0.0243   -0.0083   -0.0766    0.0092
           8    0.0022    0.0003    0.0239    0.0410    0.0048    0.0003   -0.1272    0.0086
           9   -0.0031   -0.0003    0.0035    0.0174    0.0049   -0.0057   -0.0284    0.0056
          10   -0.0011    0.0002    0.0369    0.0370    0.0593   -0.0607   -0.2306    0.0113
          11    0.0003   -0.0000   -0.0066   -0.0143   -0.0140    0.0020    0.0449   -0.0136
          12    0.0007    0.0001    0.0035    0.0168    0.0113   -0.0138   -0.0566    0.0026
          13    0.0001   -0.0005   -0.0290   -0.0220   -0.0797    0.0014    0.1250   -0.0129
          14   -0.0026   -0.0001    0.0273    0.0336    0.0535    0.0268   -0.2072    0.0060
          15    0.0010    0.0004    0.0064   -0.0070    0.0185   -0.0063    0.0261   -0.0048
          16    0.0001    0.0002    0.0291   -0.0187    0.0008   -0.0998   -0.0932   -0.0286
          17   -0.0004    0.0009    0.0784   -0.1018   -0.0243   -0.2943   -0.1859   -0.1419
          18   -0.0003    0.0008    0.0804   -0.1052   -0.0204   -0.1981   -0.1439   -0.0820
          19   -0.0022   -0.0001   -0.0055    0.0298    0.0086    0.0256   -0.0001    0.0009
          20   -0.0009    0.0002    0.0093    0.0058   -0.0088   -0.0183    0.0175   -0.0139
          21    0.0029    0.0004   -0.0309   -0.1039   -0.0342    0.0070    0.0056   -0.0029
          22   -0.0323   -0.0012    0.0042   -0.0132    0.0930   -0.0138    0.0187    0.0006
          23    0.0033    0.0003    0.0002   -0.0045    0.0274   -0.0051    0.0063   -0.0001
[...]
 REDUCED MASS        0.6469         N 17 -- H 26          +1.3% ( 10.1%)     60.3%
 EFFECTIVE MASS      2.1599
 FORCE CONSTANT      0.5319

 VIBRATION         42   42A           ATOM PAIR      ENERGY CONTRIBUTION    RADIAL
 FREQUENCY          1201.78         C 14 -- H 19         +30.6% ( 77.2%)      0.7%
 TRANSITION DIPOLE   0.0392         C 15 -- C 16         +15.5% ( 55.0%)     99.5%
 TRAVEL (Ang.)       0.3082         C 13 -- H 18          +6.7% ( 36.0%)      0.1%
 REDUCED MASS        0.5909         C 12 -- C 13          +6.6% ( 35.9%)    100.0%
 EFFECTIVE MASS      5.2220
 FORCE CONSTANT      0.5028

 VIBRATION         43   43A           ATOM PAIR      ENERGY CONTRIBUTION    RADIAL
 FREQUENCY          1216.32         C 12 -- C 13         +15.5% ( 58.6%)    100.0%
 TRANSITION DIPOLE   0.3518         C 12 -- N 17         +11.5% ( 50.5%)    100.0%
 TRAVEL (Ang.)       0.2189         C 13 -- C 14         +11.3% ( 50.0%)     93.1%
 REDUCED MASS        1.1566         C 16 -- N 17         +10.6% ( 48.4%)     90.3%
 EFFECTIVE MASS     10.4033
 FORCE CONSTANT      1.0082

 VIBRATION         44   44A           ATOM PAIR      ENERGY CONTRIBUTION    RADIAL
 FREQUENCY          1247.70         C 16 -- H 23         +25.4% ( 56.6%)     14.9%
 TRANSITION DIPOLE   0.0898         C 12 -- H 24         +24.4% ( 55.6%)     15.9%
 TRAVEL (Ang.)       0.4133         C 13 -- H 18          +9.8% ( 35.2%)      6.8%
 REDUCED MASS        0.3164         C 15 -- H 20          +8.8% ( 33.4%)      6.7%
 EFFECTIVE MASS      3.4771
 FORCE CONSTANT      0.2902

 VIBRATION         45   45A           ATOM PAIR      ENERGY CONTRIBUTION    RADIAL
 FREQUENCY          1256.65         C 10 -- H 11         +40.7% ( 55.2%)      0.0%
 TRANSITION DIPOLE   0.6299         H  6 -- C 10         +21.4% ( 40.0%)      7.1%
 TRAVEL (Ang.)       0.4289         C 10 -- H 22         +17.6% ( 36.3%)     10.5%
 REDUCED MASS        0.2917         C  1 -- H  9          +6.9% ( 22.7%)      0.3%
 EFFECTIVE MASS      1.5489
 FORCE CONSTANT      0.2714

 VIBRATION         46   46A           ATOM PAIR      ENERGY CONTRIBUTION    RADIAL
 FREQUENCY          1258.33         C  1 -- H  9         +41.3% ( 56.3%)      0.0%
 TRANSITION DIPOLE   0.8321         C  1 -- H 21         +18.7% ( 37.9%)      9.0%
 TRAVEL (Ang.)       0.4258         C  1 -- H  2         +18.2% ( 37.4%)      9.1%
 REDUCED MASS        0.2955         C 10 -- H 11          +6.8% ( 22.9%)      0.6%
 EFFECTIVE MASS      1.6816
 FORCE CONSTANT      0.2757

 VIBRATION         47   47A           ATOM PAIR      ENERGY CONTRIBUTION    RADIAL
 FREQUENCY          1271.83         C 10 -- H 22         +37.7% ( 52.2%)      0.4%
 TRANSITION DIPOLE   0.3487         H  6 -- C 10         +32.4% ( 48.4%)      1.0%
 TRAVEL (Ang.)       0.4239         C 10 -- H 11         +15.3% ( 33.3%)     20.0%
 REDUCED MASS        0.2951         C  1 -- H 21          +5.1% ( 19.1%)      0.5%
 EFFECTIVE MASS      1.4043
 FORCE CONSTANT      0.2812

 VIBRATION         48   48A           ATOM PAIR      ENERGY CONTRIBUTION    RADIAL
 FREQUENCY          1279.29         C  1 -- H 21         +34.5% ( 49.1%)      0.6%
 TRANSITION DIPOLE   0.8066         C  1 -- H  2         +33.2% ( 48.1%)      0.6%
 TRAVEL (Ang.)       0.4324         C  1 -- H  9         +18.1% ( 35.5%)     14.6%
 REDUCED MASS        0.2819         C 10 -- H 22          +4.5% ( 17.8%)      0.1%
 EFFECTIVE MASS      1.3334
 FORCE CONSTANT      0.2719

 VIBRATION         49   49A           ATOM PAIR      ENERGY CONTRIBUTION    RADIAL
 FREQUENCY          1297.74         C 12 -- H 24         +12.9% ( 45.4%)      0.5%
 TRANSITION DIPOLE   0.3345         C 15 -- H 20         +12.9% ( 45.3%)      2.6%
 TRAVEL (Ang.)       0.3839         C 16 -- H 23         +12.2% ( 44.1%)      0.8%
 REDUCED MASS        0.3525         C 13 -- H 18         +11.1% ( 42.1%)      4.0%
 EFFECTIVE MASS      3.6905
 FORCE CONSTANT      0.3498

 VIBRATION         50   50A           ATOM PAIR      ENERGY CONTRIBUTION    RADIAL
 FREQUENCY          1331.03         N  3 -- O  5         +19.9% ( 65.5%)     76.3%
 TRANSITION DIPOLE   4.8276         N  3 -- O  4         +18.4% ( 62.9%)     69.7%
 TRAVEL (Ang.)       0.1424         C  7 -- C 10         +14.7% ( 56.2%)     47.1%
 REDUCED MASS        2.4989         C  1 -- C  7         +14.3% ( 55.5%)     42.4%
 EFFECTIVE MASS     13.0007         O  4 -- O  5         +12.1% ( 51.0%)    100.0%
 FORCE CONSTANT      2.6084

 VIBRATION         51   51A           ATOM PAIR      ENERGY CONTRIBUTION    RADIAL
 FREQUENCY          1351.26         C  7 -- C 10         +18.9% ( 60.4%)     90.5%
 TRANSITION DIPOLE   1.2297         C  1 -- C  7         +17.9% ( 58.9%)     91.5%
 TRAVEL (Ang.)       0.1941         H  6 -- C 10         +12.2% ( 48.5%)      2.0%
 REDUCED MASS        1.3248         C  1 -- H 21          +9.5% ( 42.9%)      2.9%
 EFFECTIVE MASS      7.1994
 FORCE CONSTANT      1.4252

 VIBRATION         52   52A           ATOM PAIR      ENERGY CONTRIBUTION    RADIAL
 FREQUENCY          1368.13         C 12 -- N 17         +10.0% ( 42.8%)     95.4%
 TRANSITION DIPOLE   0.7869         C 14 -- C 15          +9.7% ( 42.3%)     94.0%
 TRAVEL (Ang.)       0.2302         C 16 -- N 17          +9.7% ( 42.2%)     93.2%
 REDUCED MASS        0.9300         C 15 -- C 16          +9.5% ( 41.7%)     96.8%
 EFFECTIVE MASS      6.5005
 FORCE CONSTANT      1.0256

 VIBRATION         53   53A           ATOM PAIR      ENERGY CONTRIBUTION    RADIAL
 FREQUENCY          1377.79         C  1 -- H 21         +17.1% ( 42.5%)      1.5%
 TRANSITION DIPOLE   0.3373         H  6 -- C 10         +15.5% ( 40.4%)      0.9%
 TRAVEL (Ang.)       0.4401         C 10 -- H 22         +15.5% ( 40.3%)      1.1%
 REDUCED MASS        0.2526         C  1 -- H  2         +14.9% ( 39.6%)      2.6%
 EFFECTIVE MASS      2.5287         C  1 -- H  9         +12.6% ( 36.4%)      1.7%
 FORCE CONSTANT      0.2825         C 10 -- H 11         +10.9% ( 33.9%)      1.1%

 VIBRATION         54   54A           ATOM PAIR      ENERGY CONTRIBUTION    RADIAL
 FREQUENCY          1399.64         C  7 -- C 10         +27.2% ( 62.4%)     75.7%
 TRANSITION DIPOLE   0.9816         C  1 -- C  7         +25.5% ( 60.4%)     74.7%
 TRAVEL (Ang.)       0.1336         N  3 -- C  7         +23.8% ( 58.3%)      0.0%
 REDUCED MASS        2.6993         C  1 -- H  2          +7.9% ( 33.7%)      5.2%
 EFFECTIVE MASS      6.1663
 FORCE CONSTANT      3.1155

 VIBRATION         55   55A           ATOM PAIR      ENERGY CONTRIBUTION    RADIAL
 FREQUENCY          1435.91         H 26 -- O 27         +22.3% ( 63.3%)      1.5%
 TRANSITION DIPOLE   0.3669         N 17 -- H 26         +21.9% ( 62.8%)      0.2%
 TRAVEL (Ang.)       0.3169         C 14 -- H 19         +10.9% ( 44.4%)      0.0%
 REDUCED MASS        0.4676         C 14 -- C 15          +6.7% ( 34.8%)     28.1%
 EFFECTIVE MASS      4.8302
 FORCE CONSTANT      0.5680

 VIBRATION         56   56A           ATOM PAIR      ENERGY CONTRIBUTION    RADIAL
 FREQUENCY          1475.75         N  3 -- O  4         +36.2% ( 86.0%)     86.9%
 TRANSITION DIPOLE   8.1583         N  3 -- O  5         +34.9% ( 84.5%)     86.3%
 TRAVEL (Ang.)       0.0815         N  3 -- C  7         +21.9% ( 66.9%)      0.1%
 REDUCED MASS        6.8721         O  4 -- O  5          +6.5% ( 36.6%)      0.2%
 EFFECTIVE MASS     14.5548
 FORCE CONSTANT      8.8178

 VIBRATION         57   57A           ATOM PAIR      ENERGY CONTRIBUTION    RADIAL
 FREQUENCY          1517.15         C 13 -- C 14         +12.4% ( 48.0%)     75.2%
 TRANSITION DIPOLE   1.0663         C 14 -- C 15         +11.8% ( 46.8%)     72.2%
 TRAVEL (Ang.)       0.1869         C 12 -- C 13         +10.1% ( 43.4%)      0.0%
 REDUCED MASS        1.2719         C 15 -- C 16         +10.0% ( 43.1%)      0.0%
 EFFECTIVE MASS      9.3937
 FORCE CONSTANT      1.7249

 VIBRATION         58   58A           ATOM PAIR      ENERGY CONTRIBUTION    RADIAL
 FREQUENCY          1590.41         N 17 -- H 26         +20.4% ( 61.4%)      0.0%
 TRANSITION DIPOLE   0.8389         H 26 -- O 27         +17.4% ( 56.7%)      1.4%
 TRAVEL (Ang.)       0.2166         C 14 -- C 15          +9.0% ( 40.7%)     43.4%
 REDUCED MASS        0.9035         C 13 -- C 14          +8.7% ( 40.2%)     44.8%
 EFFECTIVE MASS      6.7460
 FORCE CONSTANT      1.3465

 VIBRATION         59   59A           ATOM PAIR      ENERGY CONTRIBUTION    RADIAL
 FREQUENCY          1660.39         C 12 -- C 13         +18.3% ( 60.6%)     93.3%
 TRANSITION DIPOLE   2.8969         C 15 -- C 16         +13.6% ( 52.2%)     91.8%
 TRAVEL (Ang.)       0.1293         C 13 -- C 14         +13.5% ( 52.1%)     79.8%
 REDUCED MASS        2.4306         C 16 -- N 17         +12.9% ( 50.9%)     83.4%
 EFFECTIVE MASS     11.9860
 FORCE CONSTANT      3.9480

 VIBRATION         60   60A           ATOM PAIR      ENERGY CONTRIBUTION    RADIAL
 FREQUENCY          1667.49         C 14 -- C 15         +17.6% ( 58.9%)    100.0%
 TRANSITION DIPOLE   1.6475         C 12 -- N 17         +15.7% ( 55.5%)     98.6%
 TRAVEL (Ang.)       0.1297         C 16 -- N 17         +10.2% ( 44.9%)     43.1%
 REDUCED MASS        2.4020         C 15 -- C 16         +10.1% ( 44.6%)     49.3%
 EFFECTIVE MASS     11.8582
 FORCE CONSTANT      3.9351

 VIBRATION         61   61A           ATOM PAIR      ENERGY CONTRIBUTION    RADIAL
 FREQUENCY          1721.20         N  3 -- C  7         +41.2% ( 95.5%)     99.8%
 TRANSITION DIPOLE   6.4527         C  1 -- C  7         +14.5% ( 56.6%)     28.4%
 TRAVEL (Ang.)       0.0827         C  7 -- C 10         +14.5% ( 56.6%)     29.9%
 REDUCED MASS        5.7322         N  3 -- O  4         +14.2% ( 56.0%)     40.1%
 EFFECTIVE MASS     12.6290         N  3 -- O  5         +13.9% ( 55.5%)     34.4%
 FORCE CONSTANT     10.0053

 VIBRATION         62   62A           ATOM PAIR      ENERGY CONTRIBUTION    RADIAL
 FREQUENCY          1967.03         H  8 -- O 27         +91.0% ( 98.2%)     99.1%
 TRANSITION DIPOLE   2.5146         H 25 -- O 27          +3.0% ( 17.9%)     40.5%
 TRAVEL (Ang.)       0.1436         H 26 -- O 27          +2.5% ( 16.2%)     21.9%
 REDUCED MASS        1.6615         N 17 -- H 26          +1.7% ( 13.3%)     99.8%
 EFFECTIVE MASS      2.9127
 FORCE CONSTANT      3.7876

 VIBRATION         63   63A           ATOM PAIR      ENERGY CONTRIBUTION    RADIAL
 FREQUENCY          2230.07         N 17 -- H 26         +51.2% ( 97.8%)     99.9%
 TRANSITION DIPOLE   4.1842         H 26 -- O 27         +45.7% ( 92.5%)     98.3%
 TRAVEL (Ang.)       0.1859         H 25 -- O 27          +0.8% ( 12.0%)     42.5%
 REDUCED MASS        0.8752         C 16 -- N 17          +0.7% ( 11.5%)     11.7%
 EFFECTIVE MASS      1.4975
 FORCE CONSTANT      2.5646

 VIBRATION         64   64A           ATOM PAIR      ENERGY CONTRIBUTION    RADIAL
 FREQUENCY          2653.54         C  1 -- H  9         +67.1% ( 84.4%)     99.4%
 TRANSITION DIPOLE   0.6506         C  1 -- H 21         +26.5% ( 53.0%)     93.6%
 TRAVEL (Ang.)       0.2181         C  1 -- H  2          +4.2% ( 21.0%)     54.9%
 REDUCED MASS        0.5345         C 10 -- H 11          +1.0% ( 10.1%)     99.3%
 EFFECTIVE MASS      1.4306
 FORCE CONSTANT      2.2172

 VIBRATION         65   65A           ATOM PAIR      ENERGY CONTRIBUTION    RADIAL
 FREQUENCY          2657.43         C 10 -- H 11         +61.3% ( 80.7%)     99.4%
 TRANSITION DIPOLE   0.8881         C 10 -- H 22         +30.8% ( 57.2%)     94.4%
 TRAVEL (Ang.)       0.2283         H  6 -- C 10          +5.6% ( 24.5%)     62.4%
 REDUCED MASS        0.4867         C  1 -- H  9          +0.9% (  9.7%)     99.0%
 EFFECTIVE MASS      1.4367
 FORCE CONSTANT      2.0252

 VIBRATION         66   66A           ATOM PAIR      ENERGY CONTRIBUTION    RADIAL
 FREQUENCY          2664.96         H  6 -- C 10         +58.1% ( 78.6%)     99.2%
 TRANSITION DIPOLE   0.6587         C 10 -- H 22         +35.4% ( 61.4%)     95.5%
 TRAVEL (Ang.)       0.2295         C 10 -- H 11          +4.9% ( 22.8%)     56.9%
 REDUCED MASS        0.4806         C  7 -- C 10          +0.9% (  9.8%)      0.0%
 EFFECTIVE MASS      1.4461
 FORCE CONSTANT      2.0109

 VIBRATION         67   67A           ATOM PAIR      ENERGY CONTRIBUTION    RADIAL
 FREQUENCY          2671.01         C 12 -- H 24         +86.0% ( 93.8%)    100.0%
 TRANSITION DIPOLE   1.7962         C 16 -- H 23         +10.1% ( 32.2%)    100.0%
 TRAVEL (Ang.)       0.1857         C 12 -- C 13          +1.0% ( 10.2%)     25.6%
 REDUCED MASS        0.7323         C 12 -- N 17          +1.0% ( 10.2%)     10.5%
 EFFECTIVE MASS      1.3868
 FORCE CONSTANT      3.0780

 VIBRATION         68   68A           ATOM PAIR      ENERGY CONTRIBUTION    RADIAL
 FREQUENCY          2678.09         C  1 -- H  2         +51.8% ( 74.1%)     98.9%
 TRANSITION DIPOLE   0.7576         C  1 -- H 21         +40.0% ( 65.2%)     96.2%
 TRAVEL (Ang.)       0.2376         C  1 -- H  9          +6.0% ( 25.3%)     62.4%
 REDUCED MASS        0.4461         C  1 -- C  7          +0.9% (  9.7%)      0.0%
 EFFECTIVE MASS      1.4445
 FORCE CONSTANT      1.8849

 VIBRATION         69   69A           ATOM PAIR      ENERGY CONTRIBUTION    RADIAL
 FREQUENCY          2679.60         C 16 -- H 23         +82.5% ( 91.9%)    100.0%
 TRANSITION DIPOLE   1.8730         C 12 -- H 24          +8.4% ( 29.4%)    100.0%
 TRAVEL (Ang.)       0.1931         C 14 -- H 19          +3.8% ( 19.7%)    100.0%
 REDUCED MASS        0.6751         C 15 -- H 20          +1.2% ( 11.1%)     99.4%
 EFFECTIVE MASS      1.3997
 FORCE CONSTANT      2.8560

 VIBRATION         70   70A           ATOM PAIR      ENERGY CONTRIBUTION    RADIAL
 FREQUENCY          2694.42         C 14 -- H 19         +84.1% ( 92.8%)    100.0%
 TRANSITION DIPOLE   0.8944         C 13 -- H 18          +6.5% ( 25.7%)     99.8%
 TRAVEL (Ang.)       0.1895         C 15 -- H 20          +5.3% ( 23.2%)     99.8%
 REDUCED MASS        0.6973         C 16 -- H 23          +1.4% ( 11.9%)     99.9%
 EFFECTIVE MASS      1.3972
 FORCE CONSTANT      2.9825

 VIBRATION         71   71A           ATOM PAIR      ENERGY CONTRIBUTION    RADIAL
 FREQUENCY          2717.31         C 13 -- H 18         +71.3% ( 85.3%)    100.0%
 TRANSITION DIPOLE   1.8541         C 15 -- H 20         +25.0% ( 50.5%)    100.0%
 TRAVEL (Ang.)       0.2116         C 14 -- H 19          +1.0% ( 10.1%)     94.9%
 REDUCED MASS        0.5544         C 12 -- C 13          +0.8% (  9.0%)     30.8%
 EFFECTIVE MASS      1.3739
 FORCE CONSTANT      2.4117

 VIBRATION         72   72A           ATOM PAIR      ENERGY CONTRIBUTION    RADIAL
 FREQUENCY          2730.81         C 15 -- H 20         +66.4% ( 82.2%)    100.0%
 TRANSITION DIPOLE   1.1649         C 13 -- H 18         +18.6% ( 43.5%)    100.0%
 TRAVEL (Ang.)       0.2289         C 14 -- H 19          +8.2% ( 28.9%)     99.9%
 REDUCED MASS        0.4712         C 16 -- H 23          +2.4% ( 15.7%)     98.9%
 EFFECTIVE MASS      1.4386
 FORCE CONSTANT      2.0703

 VIBRATION         73   73A           ATOM PAIR      ENERGY CONTRIBUTION    RADIAL
 FREQUENCY          2766.22         H 25 -- O 27         +97.8% ( 98.0%)     98.6%
 TRANSITION DIPOLE   0.8755         H 26 -- O 27          +0.8% (  8.8%)      1.0%
 TRAVEL (Ang.)       0.1644         H  8 -- O 27          +0.8% (  8.7%)     13.8%
 REDUCED MASS        0.9018         N 17 -- H 26          +0.5% (  6.9%)     99.3%
 EFFECTIVE MASS      1.3320
 FORCE CONSTANT      4.0655

 VIBRATION         74   74A           ATOM PAIR      ENERGY CONTRIBUTION    RADIAL
 FREQUENCY          2776.97         H  6 -- C 10         +35.2% ( 56.9%)     95.9%
 TRANSITION DIPOLE   0.5958         C 10 -- H 22         +32.1% ( 54.3%)     95.2%
 TRAVEL (Ang.)       0.2741         C 10 -- H 11         +31.8% ( 54.1%)     95.3%
 REDUCED MASS        0.3231         C  7 -- C 10          +0.3% (  5.0%)     99.3%
 EFFECTIVE MASS      1.1380
 FORCE CONSTANT      1.4682

 VIBRATION         75   75A           ATOM PAIR      ENERGY CONTRIBUTION    RADIAL
 FREQUENCY          2782.34         C  1 -- H  2         +43.9% ( 63.6%)     96.9%
 TRANSITION DIPOLE   0.5303         C  1 -- H 21         +31.4% ( 53.8%)     95.1%
 TRAVEL (Ang.)       0.2672         C  1 -- H  9         +23.9% ( 46.9%)     93.0%
 REDUCED MASS        0.3396         C  1 -- C  7          +0.3% (  5.1%)     93.2%
 EFFECTIVE MASS      1.1449
 FORCE CONSTANT      1.5488

      SYMMETRY NUMBER FOR POINT-GROUP C1  =  1


          SYSTEM IS A GROUND STATE



 Title: ASE calculation


          MOLECULE IS NOT LINEAR

          THERE ARE 75 GENUINE VIBRATIONS IN THIS SYSTEM
          THIS THERMODYNAMICS CALCULATION IS LIMITED TO
          MOLECULES WHICH HAVE NO INTERNAL ROTATIONS




                    CALCULATED THERMODYNAMIC PROPERTIES
                                          *
   TEMP. (K)   PARTITION FUNCTION   H.O.F.    ENTHALPY  HEAT CAPACITY ENTROPY
                                   KCAL/MOL   CAL/MOLE    CAL/K/MOL  CAL/K/MOL


 298.00  VIB.     0.4814D+07                  8381.2906    49.9425    58.7025
         ROT.     0.2533D+07                   888.2803     2.9808    32.2818
         INT.     0.1219D+14                  9269.5709    52.9233    90.9843
         TRA.     0.2477D+28                  1480.4672     4.9680    41.5850
         TOT.                      -72.082   10750.0381    57.8913   132.5694

   *: NOTE: HEATS OF FORMATION ARE RELATIVE TO THE
            ELEMENTS IN THEIR STANDARD STATE AT 298K
              (=  Standard Enthalpy of Formation).

            Hvib:  Zero-point energy is not included.
                   frequencies of less than zero cm-1 are not included.
            Hrot = (3/2)RT
            Htra = (3/2)RT + pV = (5/2)RT

            Heat capacity is Cp, not Cv

          For more information, see: HTTP://OpenMOPAC.net/Manual/thermochemistry.html


           FORCE CONSTANT IN CARTESIAN COORDINATES (Millidynes/A)

    ATOM   CHEMICAL       X               Y               Z
   NUMBER   SYMBOL  FORCE CONSTANT  FORCE CONSTANT  FORCE CONSTANT

      1       C        6.541263        7.394378        5.880795
      2       H        4.142976        0.772089        0.535530
      3       N       12.518567       14.129596        3.363086
      4       O        9.048415        1.616627        0.805776
      5       O        2.844980        8.216086        0.452918
      6       H        1.042796        2.648278        1.695234
      7       C       10.232776       12.383387        2.879968
      8       H        0.560345        0.360714        4.050282
      9       H        0.819602        1.126914        3.336967
     10       C        7.386478        6.404714        6.027109
     11       H        2.051178        0.510328        2.717054
     12       C       11.149240        9.782575        2.307595
     13       C       10.505886       10.258833        2.201788
     14       C        9.651193       11.154426        2.543223
     15       C       10.957474        9.732450        2.351097
     16       C       10.912463       10.079521        2.131338
     17       N       10.210006       12.245834        1.415359
     18       H        2.208016        2.788735        0.350350
     19       H        3.928251        1.027278        0.377944
     20       H        1.202467        3.820883        0.372446
     21       H        0.884380        2.401678        2.101169
     22       H        0.910100        2.917885        1.545233
     23       H        2.300466        2.608129        0.353508
     24       H        1.307527        3.560660        0.353636
     25       H        1.527854        2.208708        1.279344
     26       H        2.721618        1.302426        0.381305
     27       O        1.883076        3.264968        4.469770

 **********************
 *                    *
 * JOB ENDED NORMALLY *
 *                    *
 **********************



 TOTAL JOB TIME:             3.70 SECONDS

 == MOPAC DONE ==
