
                                 *****************
                                 * O   R   C   A *
                                 *****************

                                            #,                                       
                                            ###                                      
                                            ####                                     
                                            #####                                    
                                            ######                                   
                                           ########,                                 
                                     ,,################,,,,,                         
                               ,,#################################,,                 
                          ,,##########################################,,             
                       ,#########################################, ''#####,          
                    ,#############################################,,   '####,        
                  ,##################################################,,,,####,       
                ,###########''''           ''''###############################       
              ,#####''   ,,,,##########,,,,          '''####'''          '####       
            ,##' ,,,,###########################,,,                        '##       
           ' ,,###''''                  '''############,,,                           
         ,,##''                                '''############,,,,        ,,,,,,###''
      ,#''                                            '''#######################'''  
     '                                                          ''''####''''         
             ,#######,   #######,   ,#######,      ##                                
            ,#'     '#,  ##    ##  ,#'     '#,    #''#        ######   ,####,        
            ##       ##  ##   ,#'  ##            #'  '#       #        #'  '#        
            ##       ##  #######   ##           ,######,      #####,   #    #        
            '#,     ,#'  ##    ##  '#,     ,#' ,#      #,         ##   #,  ,#        
             '#######'   ##     ##  '#######'  #'      '#     #####' # '####'        



                  #######################################################
                  #                        -***-                        #
                  #          Department of theory and spectroscopy      #
                  #    Directorship and core code : Frank Neese         #
                  #        Max Planck Institute fuer Kohlenforschung    #
                  #                Kaiser Wilhelm Platz 1               #
                  #                 D-45470 Muelheim/Ruhr               #
                  #                      Germany                        #
                  #                                                     #
                  #                  All rights reserved                #
                  #                        -***-                        #
                  #######################################################


                         Program Version 5.0.4 -  RELEASE  -


 With contributions from (in alphabetic order):
   Daniel Aravena         : Magnetic Suceptibility
   Michael Atanasov       : Ab Initio Ligand Field Theory (pilot matlab implementation)
   Alexander A. Auer      : GIAO ZORA, VPT2 properties, NMR spectrum
   Ute Becker             : Parallelization
   Giovanni Bistoni       : ED, misc. LED, open-shell LED, HFLD
   Martin Brehm           : Molecular dynamics
   Dmytro Bykov           : SCF Hessian
   Vijay G. Chilkuri      : MRCI spin determinant printing, contributions to CSF-ICE
   Dipayan Datta          : RHF DLPNO-CCSD density
   Achintya Kumar Dutta   : EOM-CC, STEOM-CC
   Dmitry Ganyushin       : Spin-Orbit,Spin-Spin,Magnetic field MRCI
   Miquel Garcia          : C-PCM and meta-GGA Hessian, CC/C-PCM, Gaussian charge scheme
   Yang Guo               : DLPNO-NEVPT2, F12-NEVPT2, CIM, IAO-localization
   Andreas Hansen         : Spin unrestricted coupled pair/coupled cluster methods
   Benjamin Helmich-Paris : MC-RPA, TRAH-SCF, COSX integrals
   Lee Huntington         : MR-EOM, pCC
   Robert Izsak           : Overlap fitted RIJCOSX, COSX-SCS-MP3, EOM
   Marcus Kettner         : VPT2
   Christian Kollmar      : KDIIS, OOCD, Brueckner-CCSD(T), CCSD density, CASPT2, CASPT2-K
   Simone Kossmann        : Meta GGA functionals, TD-DFT gradient, OOMP2, MP2 Hessian
   Martin Krupicka        : Initial AUTO-CI
   Lucas Lang             : DCDCAS
   Marvin Lechner         : AUTO-CI (C++ implementation), FIC-MRCC
   Dagmar Lenk            : GEPOL surface, SMD
   Dimitrios Liakos       : Extrapolation schemes; Compound Job, initial MDCI parallelization
   Dimitrios Manganas     : Further ROCIS development; embedding schemes
   Dimitrios Pantazis     : SARC Basis sets
   Anastasios Papadopoulos: AUTO-CI, single reference methods and gradients
   Taras Petrenko         : DFT Hessian,TD-DFT gradient, ASA, ECA, R-Raman, ABS, FL, XAS/XES, NRVS
   Peter Pinski           : DLPNO-MP2, DLPNO-MP2 Gradient
   Christoph Reimann      : Effective Core Potentials
   Marius Retegan         : Local ZFS, SOC
   Christoph Riplinger    : Optimizer, TS searches, QM/MM, DLPNO-CCSD(T), (RO)-DLPNO pert. Triples
   Tobias Risthaus        : Range-separated hybrids, TD-DFT gradient, RPA, STAB
   Michael Roemelt        : Original ROCIS implementation
   Masaaki Saitow         : Open-shell DLPNO-CCSD energy and density
   Barbara Sandhoefer     : DKH picture change effects
   Avijit Sen             : IP-ROCIS
   Kantharuban Sivalingam : CASSCF convergence, NEVPT2, FIC-MRCI
   Bernardo de Souza      : ESD, SOC TD-DFT
   Georgi Stoychev        : AutoAux, RI-MP2 NMR, DLPNO-MP2 response
   Willem Van den Heuvel  : Paramagnetic NMR
   Boris Wezisla          : Elementary symmetry handling
   Frank Wennmohs         : Technical directorship


 We gratefully acknowledge several colleagues who have allowed us to
 interface, adapt or use parts of their codes:
   Stefan Grimme, W. Hujo, H. Kruse, P. Pracht,  : VdW corrections, initial TS optimization,
                  C. Bannwarth, S. Ehlert          DFT functionals, gCP, sTDA/sTD-DF
   Ed Valeev, F. Pavosevic, A. Kumar             : LibInt (2-el integral package), F12 methods
   Garnet Chan, S. Sharma, J. Yang, R. Olivares  : DMRG
   Ulf Ekstrom                                   : XCFun DFT Library
   Mihaly Kallay                                 : mrcc  (arbitrary order and MRCC methods)
   Jiri Pittner, Ondrej Demel                    : Mk-CCSD
   Frank Weinhold                                : gennbo (NPA and NBO analysis)
   Christopher J. Cramer and Donald G. Truhlar   : smd solvation model
   Lars Goerigk                                  : TD-DFT with DH, B97 family of functionals
   V. Asgeirsson, H. Jonsson                     : NEB implementation
   FAccTs GmbH                                   : IRC, NEB, NEB-TS, DLPNO-Multilevel, CI-OPT
                                                   MM, QMMM, 2- and 3-layer-ONIOM, Crystal-QMMM,
                                                   LR-CPCM, SF, NACMEs, symmetry and pop. for TD-DFT,
                                                   nearIR, NL-DFT gradient (VV10), updates on ESD,
                                                   ML-optimized integration grids
   S Lehtola, MJT Oliveira, MAL Marques          : LibXC Library
   Liviu Ungur et al                             : ANISO software


 Your calculation uses the libint2 library for the computation of 2-el integrals
 For citations please refer to: http://libint.valeyev.net

 Your ORCA version has been built with support for libXC version: 5.1.0
 For citations please refer to: https://tddft.org/programs/libxc/

 This ORCA versions uses:
   CBLAS   interface :  Fast vector & matrix operations
   LAPACKE interface :  Fast linear algebra routines
   SCALAPACK package :  Parallel linear algebra routines
   Shared memory     :  Shared parallel matrices
   BLAS/LAPACK       :  OpenBLAS 0.3.15  USE64BITINT DYNAMIC_ARCH NO_AFFINITY Prescott SINGLE_THREADED
        Core in use  :  Prescott
   Copyright (c) 2011-2014, The OpenBLAS Project


Your calculation utilizes the atom-pairwise dispersion correction
with the Becke-Johnson damping scheme (D3BJ)
Cite in your paper:
S.Grimme, S.Ehrlich, L.Goerigk, J Comput Chem, (2011), 32, 1456–1465 
S.Grimme, J.Antony, S.Ehrlich and H.Krieg, J.Chem.Phys., 132, (2010), 154104 
   

================================================================================

----- Orbital basis set information -----
Your calculation utilizes the basis: def2-TZVP
   F. Weigend and R. Ahlrichs, Phys. Chem. Chem. Phys. 7, 3297 (2005).

----- AuxJ basis set information -----
Your calculation utilizes the auxiliary basis: def2/J
   F. Weigend, Phys. Chem. Chem. Phys. 8, 1057 (2006).

================================================================================
                                        WARNINGS
                       Please study these warnings very carefully!
================================================================================


WARNING: Geometry Optimization
  ===> : Switching off AutoStart
         For restart on a previous wavefunction, please use MOREAD

INFO   : the flag for use of the SHARK integral package has been found!

================================================================================
                                       INPUT FILE
================================================================================
NAME = /home/rudenko/mop_saddle_orca_4_serv/for_orca/ch32chno2_pyridine_new/orca/orca_start/start.inp
|  1> !  opt B3LYP def2-TZVP CPCM D3 
|  2> %pal nprocs 102 end
|  3> %cpcm epsilon 78.4 end 
|  4> *xyz 0 1 
|  5> C   0.58278 -0.24516 -0.02623
|  6> H   0.62694 -0.36391 -1.11861
|  7> N   0.34789 -2.65843 0.26864
|  8> O   0.52101 -3.07231 -0.8696
|  9> O   -0.44516 -3.18836 1.02943
| 10> H   1.69366 -0.48363 2.56643
| 11> C   1.13503 -1.45939 0.71361
| 12> H   2.20712 -1.64611 0.40439
| 13> H   -0.459 -0.02237 0.24295
| 14> C   1.04296 -1.30405 2.22409
| 15> H   0.02383 -1.07083 2.56317
| 16> C   6.69846 -1.25761 -0.83461
| 17> C   7.93194 -1.46833 -1.45975
| 18> C   8.51864 -2.72945 -1.37087
| 19> C   7.85923 -3.73877 -0.67165
| 20> C   6.62838 -3.44773 -0.07284
| 21> N   6.06017 -2.22758 -0.1491
| 22> H   8.41917 -0.65996 -2.00297
| 23> H   9.48404 -2.92462 -1.84452
| 24> H   8.28947 -4.73621 -0.5892
| 25> H   1.17111 0.6534 0.21768
| 26> H   1.36213 -2.2107 2.75858
| 27> H   6.06879 -4.20788 0.48949
| 28> H   6.19296 -0.28332 -0.87574
| 29> H   3.71844 -1.84858 2.25942
| 30> H   4.69651 -1.48533 1.14327
| 31> O   4.12811 -1.09406 1.82657
| 32> *
| 33> 
| 34>                          ****END OF INPUT****
================================================================================

                       *****************************
                       * Geometry Optimization Run *
                       *****************************

Geometry optimization settings:
Update method            Update   .... BFGS
Choice of coordinates    CoordSys .... Z-matrix Internals
Initial Hessian          InHess   .... Almoef's Model

Convergence Tolerances:
Energy Change            TolE     ....  5.0000e-06 Eh
Max. Gradient            TolMAXG  ....  3.0000e-04 Eh/bohr
RMS Gradient             TolRMSG  ....  1.0000e-04 Eh/bohr
Max. Displacement        TolMAXD  ....  4.0000e-03 bohr
RMS Displacement         TolRMSD  ....  2.0000e-03 bohr
Strict Convergence                ....  False
------------------------------------------------------------------------------
                        ORCA OPTIMIZATION COORDINATE SETUP
------------------------------------------------------------------------------

The optimization will be done in new redundant internal coordinates
Making redundant internal coordinates   ...  (new redundants) done
Evaluating the initial hessian          ...  (Almloef) done
Evaluating the coordinates              ...  done
Calculating the B-matrix                .... done
Calculating the G-matrix                .... done
Diagonalizing the G-matrix              .... done
Small eigenvalue found = 6.526e-03
Small eigenvalue found = 1.226e-02
Small eigenvalue found = 1.653e-02
The first mode is                       ....   70
The number of degrees of freedom        ....   75

    -----------------------------------------------------------------
                    Redundant Internal Coordinates


    -----------------------------------------------------------------
         Definition                    Initial Value    Approx d2E/dq
    -----------------------------------------------------------------
      1. B(H   1,C   0)                  1.0997         0.347491   
      2. B(O   3,N   2)                  1.2235         0.924090   
      3. B(O   4,N   2)                  1.2201         0.935696   
      4. B(C   6,C   0)                  1.5254         0.380009   
      5. B(C   6,N   2)                  1.5018         0.371166   
      6. B(H   7,C   6)                  1.1313         0.309399   
      7. B(H   8,C   0)                  1.0988         0.348623   
      8. B(C   9,H   5)                  1.1017         0.344977   
      9. B(C   9,C   6)                  1.5212         0.385799   
     10. B(H  10,C   9)                  1.0991         0.348277   
     11. B(C  12,C  11)                  1.3988         0.604894   
     12. B(C  13,C  12)                  1.3938         0.616247   
     13. B(C  14,C  13)                  1.3937         0.616315   
     14. B(C  15,C  14)                  1.3994         0.603630   
     15. B(N  16,C  11)                  1.3484         0.651999   
     16. B(N  16,C  15)                  1.3481         0.652653   
     17. B(H  17,C  12)                  1.0890         0.361412   
     18. B(H  18,C  13)                  1.0929         0.356283   
     19. B(H  19,C  14)                  1.0894         0.360895   
     20. B(H  20,C   0)                  1.1014         0.345358   
     21. B(H  21,C   9)                  1.0998         0.347365   
     22. B(H  22,C  15)                  1.0987         0.348748   
     23. B(H  23,C  11)                  1.0984         0.349169   
     24. B(H  24,H   7)                  2.4013         0.000558   
     25. B(H  24,C   6)                  3.0356         0.000283   
     26. B(H  24,H   5)                  2.4611         0.000448   
     27. B(H  24,H  21)                  2.4357         0.000492   
     28. B(H  24,C   9)                  2.7306         0.000869   
     29. B(H  25,H   7)                  2.6017         0.000267   
     30. B(H  25,N  16)                  2.0201         0.010585   
     31. B(O  26,H   7)                  2.4531         0.002157   
     32. B(O  26,H   5)                  2.6166         0.001183   
     33. B(O  26,H  25)                  0.9711         0.499148   
     34. B(O  26,H  24)                  0.9615         0.517092   
     35. B(O  26,C   9)                  3.1177         0.000980   
     36. A(H   1,C   0,H   8)          107.6564         0.287755   
     37. A(H   1,C   0,H  20)          106.6564         0.287332   
     38. A(H   8,C   0,H  20)          106.6653         0.287478   
     39. A(C   6,C   0,H  20)          110.4037         0.323006   
     40. A(H   1,C   0,C   6)          112.4144         0.323332   
     41. A(C   6,C   0,H   8)          112.6956         0.323505   
     42. A(O   3,N   2,O   4)          121.6799         0.489950   
     43. A(O   3,N   2,C   6)          118.1375         0.416990   
     44. A(O   4,N   2,C   6)          120.1806         0.417918   
     45. A(N   2,C   6,H   7)          106.4957         0.314173   
     46. A(C   0,C   6,H   7)          109.9931         0.317254   
     47. A(H   7,C   6,C   9)          110.2188         0.318037   
     48. A(N   2,C   6,C   9)          110.1215         0.362683   
     49. A(C   0,C   6,C   9)          112.2347         0.366428   
     50. A(C   0,C   6,N   2)          107.5833         0.361748   
     51. A(C   6,C   9,H  10)          112.5890         0.324256   
     52. A(H   5,C   9,H  10)          107.0848         0.287384   
     53. A(H   5,C   9,C   6)          110.4166         0.323749   
     54. A(H  10,C   9,H  21)          107.1030         0.287694   
     55. A(H  21,C   9,O  26)           80.2305         0.149305   
     56. A(H  10,C   9,O  26)          160.4936         0.149341   
     57. A(C   6,C   9,O  26)           79.6527         0.160402   
     58. A(H   5,C   9,H  21)          106.9469         0.287266   
     59. A(C   6,C   9,H  21)          112.3837         0.324116   
     60. A(H   5,C   9,O  26)           53.4868         0.149211   
     61. A(C  12,C  11,N  16)          122.4292         0.433220   
     62. A(N  16,C  11,H  23)          116.0565         0.351895   
     63. A(C  12,C  11,H  23)          121.5142         0.349615   
     64. A(C  13,C  12,H  17)          121.0064         0.352764   
     65. A(C  11,C  12,H  17)          120.3732         0.351656   
     66. A(C  11,C  12,C  13)          118.6204         0.431674   
     67. A(C  14,C  13,H  18)          120.4000         0.351918   
     68. A(C  12,C  13,H  18)          120.3838         0.351912   
     69. A(C  12,C  13,C  14)          119.2161         0.433128   
     70. A(C  15,C  14,H  19)          120.3583         0.351446   
     71. A(C  13,C  14,H  19)          120.9424         0.352685   
     72. A(C  13,C  14,C  15)          118.6993         0.431520   
     73. A(C  14,C  15,N  16)          122.3269         0.433135   
     74. A(N  16,C  15,H  22)          116.1333         0.351883   
     75. A(C  14,C  15,H  22)          121.5398         0.349421   
     76. A(C  15,N  16,H  25)          125.5130         0.206795   
     77. A(C  11,N  16,H  25)          112.3635         0.206769   
     78. A(C  11,N  16,C  15)          118.7053         0.436310   
     79. A(N  16,H  25,O  26)          173.3661         0.184550   
     80. A(C   9,O  26,H  25)          129.9235         0.153699   
     81. A(C   9,O  26,H  24)           57.8679         0.154218   
     82. A(H  24,O  26,H  25)          104.4755         0.319403   
     83. D(H   7,C   6,C   0,H   8)   -179.9183         0.012204   
     84. D(H   7,C   6,C   0,H   1)     58.2023         0.012204   
     85. D(H   7,C   6,N   2,O   4)    133.6368         0.012634   
     86. D(H   7,C   6,C   0,H  20)    -60.7601         0.012204   
     87. D(C   0,C   6,N   2,O   3)     71.0352         0.012634   
     88. D(C   9,C   6,N   2,O   3)   -166.3593         0.012634   
     89. D(C   9,C   6,C   0,H   8)    -56.8220         0.012204   
     90. D(C   0,C   6,N   2,O   4)   -108.4649         0.012634   
     91. D(N   2,C   6,C   0,H   8)     64.4706         0.012204   
     92. D(N   2,C   6,C   0,H  20)   -176.3712         0.012204   
     93. D(N   2,C   6,C   0,H   1)    -57.4087         0.012204   
     94. D(C   9,C   6,C   0,H   1)   -178.7013         0.012204   
     95. D(H   7,C   6,N   2,O   3)    -46.8631         0.012634   
     96. D(C   9,C   6,N   2,O   4)     14.1407         0.012634   
     97. D(C   9,C   6,C   0,H  20)     62.3362         0.012204   
     98. D(O  26,C   9,C   6,H   7)     13.0140         0.013904   
     99. D(O  26,C   9,C   6,N   2)    130.2201         0.013904   
    100. D(H  21,C   9,C   6,H   7)    -61.8127         0.013904   
    101. D(H  21,C   9,C   6,C   0)    175.2180         0.013904   
    102. D(H  10,C   9,C   6,H   7)    177.1350         0.013904   
    103. D(H  10,C   9,C   6,N   2)    -65.6588         0.013904   
    104. D(H  21,C   9,C   6,N   2)     55.3934         0.013904   
    105. D(O  26,C   9,C   6,C   0)   -109.9553         0.013904   
    106. D(H  10,C   9,C   6,C   0)     54.1658         0.013904   
    107. D(H   5,C   9,C   6,H   7)     57.5058         0.013904   
    108. D(H   5,C   9,C   6,N   2)    174.7120         0.013904   
    109. D(H   5,C   9,C   6,C   0)    -65.4634         0.013904   
    110. D(H  17,C  12,C  11,H  23)      0.1155         0.025246   
    111. D(C  13,C  12,C  11,H  23)   -179.9022         0.025246   
    112. D(C  13,C  12,C  11,N  16)      0.1278         0.025246   
    113. D(H  17,C  12,C  11,N  16)   -179.8545         0.025246   
    114. D(H  18,C  13,C  12,H  17)      0.2649         0.026259   
    115. D(H  18,C  13,C  12,C  11)   -179.7172         0.026259   
    116. D(C  14,C  13,C  12,H  17)   -179.6926         0.026259   
    117. D(C  14,C  13,C  12,C  11)      0.3252         0.026259   
    118. D(H  19,C  14,C  13,H  18)     -0.2998         0.026265   
    119. D(H  19,C  14,C  13,C  12)    179.6578         0.026265   
    120. D(C  15,C  14,C  13,H  18)    179.6551         0.026265   
    121. D(C  15,C  14,C  13,C  12)     -0.3873         0.026265   
    122. D(H  22,C  15,C  14,H  19)     -0.0317         0.025135   
    123. D(H  22,C  15,C  14,C  13)   -179.9868         0.025135   
    124. D(N  16,C  15,C  14,H  19)    179.9585         0.025135   
    125. D(N  16,C  15,C  14,C  13)      0.0033         0.025135   
    126. D(H  25,N  16,C  15,H  22)     22.9571         0.034787   
    127. D(H  25,N  16,C  15,C  14)   -157.0336         0.034787   
    128. D(C  11,N  16,C  15,H  22)   -179.5673         0.034787   
    129. D(C  11,N  16,C  15,C  14)      0.4421         0.034787   
    130. D(H  25,N  16,C  11,H  23)    -20.1857         0.034711   
    131. D(H  25,N  16,C  11,C  12)    159.7858         0.034711   
    132. D(C  15,N  16,C  11,H  23)    179.5193         0.034711   
    133. D(C  15,N  16,C  11,C  12)     -0.5092         0.034711   
    134. D(O  26,H  25,N  16,C  15)     86.6798         0.001565   
    135. D(O  26,H  25,N  16,C  11)    -72.0158         0.001565   
    136. D(H  24,O  26,H  25,N  16)   -110.4046         0.406339   
    137. D(H  25,O  26,C   9,H  21)     86.1188         0.001500   
    138. D(H  25,O  26,C   9,H  10)   -159.8240         0.001500   
    139. D(H  25,O  26,C   9,C   6)    -28.9835         0.001500   
    140. D(H  25,O  26,C   9,H   5)   -154.1800         0.001500   
    141. D(H  24,O  26,C   9,H  21)      4.2068         0.001500   
    142. D(H  24,O  26,C   9,H  10)    118.2640         0.001500   
    143. D(H  24,O  26,C   9,C   6)   -110.8955         0.001500   
    144. D(C   9,O  26,H  25,N  16)   -170.3890         0.406339   
    145. D(H  24,O  26,C   9,H   5)    123.9080         0.001500   
    -----------------------------------------------------------------

Number of atoms                         .... 27
Number of degrees of freedom            .... 145

         *************************************************************
         *                GEOMETRY OPTIMIZATION CYCLE   1            *
         *************************************************************
---------------------------------
CARTESIAN COORDINATES (ANGSTROEM)
---------------------------------
  C      0.582780   -0.245160   -0.026230
  H      0.626940   -0.363910   -1.118610
  N      0.347890   -2.658430    0.268640
  O      0.521010   -3.072310   -0.869600
  O     -0.445160   -3.188360    1.029430
  H      1.693660   -0.483630    2.566430
  C      1.135030   -1.459390    0.713610
  H      2.207120   -1.646110    0.404390
  H     -0.459000   -0.022370    0.242950
  C      1.042960   -1.304050    2.224090
  H      0.023830   -1.070830    2.563170
  C      6.698460   -1.257610   -0.834610
  C      7.931940   -1.468330   -1.459750
  C      8.518640   -2.729450   -1.370870
  C      7.859230   -3.738770   -0.671650
  C      6.628380   -3.447730   -0.072840
  N      6.060170   -2.227580   -0.149100
  H      8.419170   -0.659960   -2.002970
  H      9.484040   -2.924620   -1.844520
  H      8.289470   -4.736210   -0.589200
  H      1.171110    0.653400    0.217680
  H      1.362130   -2.210700    2.758580
  H      6.068790   -4.207880    0.489490
  H      6.192960   -0.283320   -0.875740
  H      3.718440   -1.848580    2.259420
  H      4.696510   -1.485330    1.143270
  O      4.128110   -1.094060    1.826570

----------------------------
CARTESIAN COORDINATES (A.U.)
----------------------------
  NO LB      ZA    FRAG     MASS         X           Y           Z
   0 C     6.0000    0    12.011    1.101295   -0.463285   -0.049568
   1 H     1.0000    0     1.008    1.184745   -0.687690   -2.113867
   2 N     7.0000    0    14.007    0.657417   -5.023705    0.507656
   3 O     8.0000    0    15.999    0.984566   -5.805824   -1.643306
   4 O     8.0000    0    15.999   -0.841230   -6.025127    1.945341
   5 H     1.0000    0     1.008    3.200554   -0.913928    4.849850
   6 C     6.0000    0    12.011    2.144896   -2.757847    1.348527
   7 H     1.0000    0     1.008    4.170852   -3.110697    0.764186
   8 H     1.0000    0     1.008   -0.867384   -0.042273    0.459109
   9 C     6.0000    0    12.011    1.970909   -2.464297    4.202921
  10 H     1.0000    0     1.008    0.045032   -2.023575    4.843689
  11 C     6.0000    0    12.011   12.658255   -2.376538   -1.577184
  12 C     6.0000    0    12.011   14.989194   -2.774742   -2.758528
  13 C     6.0000    0    12.011   16.097897   -5.157913   -2.590569
  14 C     6.0000    0    12.011   14.851792   -7.065251   -1.269235
  15 C     6.0000    0    12.011   12.525823   -6.515265   -0.137648
  16 N     7.0000    0    14.007   11.452062   -4.209516   -0.281758
  17 H     1.0000    0     1.008   15.909926   -1.247144   -3.785065
  18 H     1.0000    0     1.008   17.922238   -5.526731   -3.485638
  19 H     1.0000    0     1.008   15.664828   -8.950140   -1.113427
  20 H     1.0000    0     1.008    2.213077    1.234747    0.411356
  21 H     1.0000    0     1.008    2.574053   -4.177618    5.212961
  22 H     1.0000    0     1.008   11.468351   -7.951741    0.925002
  23 H     1.0000    0     1.008   11.702998   -0.535397   -1.654909
  24 H     1.0000    0     1.008    7.026833   -3.493310    4.269685
  25 H     1.0000    0     1.008    8.875118   -2.806867    2.160467
  26 O     8.0000    0    15.999    7.800997   -2.067474    3.451717

--------------------------------
INTERNAL COORDINATES (ANGSTROEM)
--------------------------------
 C      0   0   0     0.000000000000     0.00000000     0.00000000
 H      1   0   0     1.099702565469     0.00000000     0.00000000
 N      1   2   0     2.442538376751    90.97927857     0.00000000
 O      3   1   2     1.223461272947   102.02340643     7.33319344
 O      3   1   2     1.220063740753   124.53634371   224.35513359
 H      1   2   3     2.830690408876   152.24611244    72.37978045
 C      3   1   2     1.501760500912    36.53525851   128.83132825
 H      7   3   1     1.131308240446   106.49569267   242.10170106
 H      1   2   3     1.098817011563   107.65636350   264.89602010
 C      6   1   2     1.101678783494    63.02060480   265.00877775
 H     10   6   1     1.099087244808   107.08479095   267.70697394
 C      8   7   3     4.675274135877   165.71793359   156.05276720
 C     12   8   7     1.398812299202   162.36977448   217.73809862
 C     13  12   8     1.393750407641   118.62035762   302.84703544
 C     14  13  12     1.393720567008   119.21614458     0.32520738
 C     15  14  13     1.399381799296   118.69931954   359.61265371
 N     16  15  14     1.348126186305   122.32694000     0.00000000
 H     13  12   8     1.089010146050   120.37320807   122.86477179
 H     14  13  12     1.092901098636   120.38379848   180.28278427
 H     15  14  13     1.089399382091   120.94236843   179.65777932
 H      1   2   3     1.101378386659   106.65644216   150.73079788
 H     10   6   1     1.099801469130   106.94694086   153.16943731
 H     16  15  14     1.098719263279   121.53978401   180.01316151
 H     12   8   7     1.098391064694    68.99305496   347.55926069
 H      8   7   3     2.401295180564   113.52806467   244.52636402
 H     25   8   7     1.527862006171    79.54339151   201.38988931
 O     25   8   7     0.961503542271    81.61779532   239.85712169

---------------------------
INTERNAL COORDINATES (A.U.)
---------------------------
 C      0   0   0     0.000000000000     0.00000000     0.00000000
 H      1   0   0     2.078136677508     0.00000000     0.00000000
 N      1   2   0     4.615728603651    90.97927857     0.00000000
 O      3   1   2     2.312006741328   102.02340643     7.33319344
 O      3   1   2     2.305586335951   124.53634371   224.35513359
 H      1   2   3     5.349229642692   152.24611244    72.37978045
 C      3   1   2     2.837916065464    36.53525851   128.83132825
 H      7   3   1     2.137862747490   106.49569267   242.10170106
 H      1   2   3     2.076463223148   107.65636350   264.89602010
 C      6   1   2     2.081871188354    63.02060480   265.00877775
 H     10   6   1     2.076973889973   107.08479095   267.70697394
 C      8   7   3     8.834987717813   165.71793359   156.05276720
 C     12   8   7     2.643372158253   162.36977448   217.73809862
 C     13  12   8     2.633806569483   118.62035762   302.84703544
 C     14  13  12     2.633750178858   119.21614458     0.32520738
 C     15  14  13     2.644448357463   118.69931954   359.61265371
 N     16  15  14     2.547589286083   122.32694000     0.00000000
 H     13  12   8     2.057930933096   120.37320807   122.86477179
 H     14  13  12     2.065283767884   120.38379848   180.28278427
 H     15  14  13     2.058666482615   120.94236843   179.65777932
 H      1   2   3     2.081303520606   106.65644216   150.73079788
 H     10   6   1     2.078323578340   106.94694086   153.16943731
 H     16  15  14     2.076278505661   121.53978401   180.01316151
 H     12   8   7     2.075658300218    68.99305496   347.55926069
 H      8   7   3     4.537790257971   113.52806467   244.52636402
 H     25   8   7     2.887240762086    79.54339151   201.38988931
 O     25   8   7     1.816978371688    81.61779532   239.85712169

---------------------
BASIS SET INFORMATION
---------------------
There are 4 groups of distinct atoms

 Group   1 Type C   : 11s6p2d1f contracted to 5s3p2d1f pattern {62111/411/11/1}
 Group   2 Type H   : 5s1p contracted to 3s1p pattern {311/1}
 Group   3 Type N   : 11s6p2d1f contracted to 5s3p2d1f pattern {62111/411/11/1}
 Group   4 Type O   : 11s6p2d1f contracted to 5s3p2d1f pattern {62111/411/11/1}

Atom   0C    basis set group =>   1
Atom   1H    basis set group =>   2
Atom   2N    basis set group =>   3
Atom   3O    basis set group =>   4
Atom   4O    basis set group =>   4
Atom   5H    basis set group =>   2
Atom   6C    basis set group =>   1
Atom   7H    basis set group =>   2
Atom   8H    basis set group =>   2
Atom   9C    basis set group =>   1
Atom  10H    basis set group =>   2
Atom  11C    basis set group =>   1
Atom  12C    basis set group =>   1
Atom  13C    basis set group =>   1
Atom  14C    basis set group =>   1
Atom  15C    basis set group =>   1
Atom  16N    basis set group =>   3
Atom  17H    basis set group =>   2
Atom  18H    basis set group =>   2
Atom  19H    basis set group =>   2
Atom  20H    basis set group =>   2
Atom  21H    basis set group =>   2
Atom  22H    basis set group =>   2
Atom  23H    basis set group =>   2
Atom  24H    basis set group =>   2
Atom  25H    basis set group =>   2
Atom  26O    basis set group =>   4
---------------------------------
AUXILIARY/J BASIS SET INFORMATION
---------------------------------
There are 4 groups of distinct atoms

 Group   1 Type C   : 12s5p4d2f1g contracted to 6s4p3d1f1g pattern {711111/2111/211/2/1}
 Group   2 Type H   : 5s2p1d contracted to 3s1p1d pattern {311/2/1}
 Group   3 Type N   : 12s5p4d2f1g contracted to 6s4p3d1f1g pattern {711111/2111/211/2/1}
 Group   4 Type O   : 12s5p4d2f1g contracted to 6s4p3d1f1g pattern {711111/2111/211/2/1}

Atom   0C    basis set group =>   1
Atom   1H    basis set group =>   2
Atom   2N    basis set group =>   3
Atom   3O    basis set group =>   4
Atom   4O    basis set group =>   4
Atom   5H    basis set group =>   2
Atom   6C    basis set group =>   1
Atom   7H    basis set group =>   2
Atom   8H    basis set group =>   2
Atom   9C    basis set group =>   1
Atom  10H    basis set group =>   2
Atom  11C    basis set group =>   1
Atom  12C    basis set group =>   1
Atom  13C    basis set group =>   1
Atom  14C    basis set group =>   1
Atom  15C    basis set group =>   1
Atom  16N    basis set group =>   3
Atom  17H    basis set group =>   2
Atom  18H    basis set group =>   2
Atom  19H    basis set group =>   2
Atom  20H    basis set group =>   2
Atom  21H    basis set group =>   2
Atom  22H    basis set group =>   2
Atom  23H    basis set group =>   2
Atom  24H    basis set group =>   2
Atom  25H    basis set group =>   2
Atom  26O    basis set group =>   4


           ************************************************************
           *        Program running with 102 parallel MPI-processes   *
           *              working on a common directory               *
           ************************************************************
------------------------------------------------------------------------------
                           ORCA GTO INTEGRAL CALCULATION
                           -- RI-GTO INTEGRALS CHOSEN --
------------------------------------------------------------------------------
------------------------------------------------------------------------------
                   ___                                                        
                  /   \      - P O W E R E D   B Y -                         
                 /     \                                                     
                 |  |  |   _    _      __       _____    __    __             
                 |  |  |  | |  | |    /  \     |  _  \  |  |  /  |          
                  \  \/   | |  | |   /    \    | | | |  |  | /  /          
                 / \  \   | |__| |  /  /\  \   | |_| |  |  |/  /          
                |  |  |   |  __  | /  /__\  \  |    /   |      \           
                |  |  |   | |  | | |   __   |  |    \   |  |\   \          
                \     /   | |  | | |  |  |  |  | |\  \  |  | \   \       
                 \___/    |_|  |_| |__|  |__|  |_| \__\ |__|  \__/        
                                                                              
                      - O R C A' S   B I G   F R I E N D -                    
                                      &                                       
                       - I N T E G R A L  F E E D E R -                       
                                                                              
 v1 FN, 2020, v2 2021                                                         
------------------------------------------------------------------------------


Reading SHARK input file /home/rudenko/mop_saddle_orca_4_serv/for_orca/ch32chno2_pyridine_new/orca/orca_start/start.SHARKINP.tmp ... ok
----------------------
SHARK INTEGRAL PACKAGE
----------------------

Number of atoms                             ...     27
Number of basis functions                   ...    487
Number of shells                            ...    199
Maximum angular momentum                    ...      3
Integral batch strategy                     ... SHARK/LIBINT Hybrid
RI-J (if used) integral strategy            ... SPLIT-RIJ (Revised 2003 algorithm where possible)
Printlevel                                  ...      1
Contraction scheme used                     ... SEGMENTED contraction
Coulomb Range Separation                    ... NOT USED
Exchange Range Separation                   ... NOT USED
Finite Nucleus Model                        ... NOT USED
Auxiliary Coulomb fitting basis             ... AVAILABLE
   # of basis functions in Aux-J            ...    791
   # of shells in Aux-J                     ...    265
   Maximum angular momentum in Aux-J        ...      4
Auxiliary J/K fitting basis                 ... NOT available
Auxiliary Correlation fitting basis         ... NOT available
Auxiliary 'external' fitting basis          ... NOT available
Integral threshold                          ...     2.500000e-11
Primitive cut-off                           ...     2.500000e-12
Primitive pair pre-selection threshold      ...     2.500000e-12

Calculating pre-screening integrals         ... done (  0.1 sec) Dimension = 199
Organizing shell pair data                  ... done (  0.4 sec)
Shell pair information
Total number of shell pairs                 ...     19900
Shell pairs after pre-screening             ...     13760
Total number of primitive shell pairs       ...     59668
Primitive shell pairs kept                  ...     28775
          la=0 lb=0:   4007 shell pairs
          la=1 lb=0:   4100 shell pairs
          la=1 lb=1:   1088 shell pairs
          la=2 lb=0:   1828 shell pairs
          la=2 lb=1:    949 shell pairs
          la=2 lb=2:    214 shell pairs
          la=3 lb=0:    878 shell pairs
          la=3 lb=1:    456 shell pairs
          la=3 lb=2:    191 shell pairs
          la=3 lb=3:     49 shell pairs

Calculating one electron integrals          ... done (  0.1 sec)
Calculating RI/J V-Matrix + Cholesky decomp.... done (  0.1 sec)
Calculating Nuclear repulsion               ... done (  0.0 sec) ENN=    738.067397627253 Eh

SHARK setup successfully completed in   0.9 seconds

Maximum memory used throughout the entire GTOINT-calculation: 26.2 MB


           ************************************************************
           *        Program running with 102 parallel MPI-processes   *
           *              working on a common directory               *
           ************************************************************
-------------------------------------------------------------------------------
                                 ORCA SCF
-------------------------------------------------------------------------------

------------
SCF SETTINGS
------------
Hamiltonian:
 Density Functional     Method          .... DFT(GTOs)
 Exchange Functional    Exchange        .... B88
   X-Alpha parameter    XAlpha          ....  0.666667
   Becke's b parameter  XBeta           ....  0.004200
 Correlation Functional Correlation     .... LYP
 LDA part of GGA corr.  LDAOpt          .... VWN-5
 Gradients option       PostSCFGGA      .... off
 Hybrid DFT is turned on
   Fraction HF Exchange ScalHFX         ....  0.200000
   Scaling of DF-GGA-X  ScalDFX         ....  0.720000
   Scaling of DF-GGA-C  ScalDFC         ....  0.810000
   Scaling of DF-LDA-C  ScalLDAC        ....  1.000000
   Perturbative correction              ....  0.000000
   Density functional embedding theory  .... OFF
   NL short-range parameter             ....  4.800000
 RI-approximation to the Coulomb term is turned on
   Number of AuxJ basis functions       .... 791
   RIJ-COSX (HFX calculated with COS-X)).... on


General Settings:
 Integral files         IntName         .... /home/rudenko/mop_saddle_orca_4_serv/for_orca/ch32chno2_pyridine_new/orca/orca_start/start
 Hartree-Fock type      HFTyp           .... RHF
 Total Charge           Charge          ....    0
 Multiplicity           Mult            ....    1
 Number of Electrons    NEL             ....  100
 Basis Dimension        Dim             ....  487
 Nuclear Repulsion      ENuc            ....    738.0673976273 Eh

Convergence Acceleration:
 DIIS                   CNVDIIS         .... on
   Start iteration      DIISMaxIt       ....    12
   Startup error        DIISStart       ....  0.200000
   # of expansion vecs  DIISMaxEq       ....     5
   Bias factor          DIISBfac        ....   1.050
   Max. coefficient     DIISMaxC        ....  10.000
 Trust-Rad. Augm. Hess. CNVTRAH         .... auto
   Auto Start mean grad. ratio tolernc. ....  1.125000
   Auto Start start iteration           ....    20
   Auto Start num. interpolation iter.  ....    10
   Max. Number of Micro iterations      ....    16
   Max. Number of Macro iterations      .... Maxiter - #DIIS iter
   Number of Davidson start vectors     ....     2
   Converg. threshold I  (grad. norm)   ....   1.000e-05
   Converg. threshold II (energy diff.) ....   1.000e-08
   Grad. Scal. Fac. for Micro threshold ....   0.100
   Minimum threshold for Micro iter.    ....   0.010
   NR start threshold (gradient norm)   ....   0.001
   Initial trust radius                 ....   0.400
   Minimum AH scaling param. (alpha)    ....   1.000
   Maximum AH scaling param. (alpha)    .... 1000.000
   Orbital update algorithm             .... Taylor
   White noise on init. David. guess    .... on
   Maximum white noise                  ....   0.010
   Quad. conv. algorithm                .... NR
 SOSCF                  CNVSOSCF        .... on
   Start iteration      SOSCFMaxIt      ....   150
   Startup grad/error   SOSCFStart      ....  0.003300
 Level Shifting         CNVShift        .... on
   Level shift para.    LevelShift      ....    0.2500
   Turn off err/grad.   ShiftErr        ....    0.0010
 Zerner damping         CNVZerner       .... off
 Static damping         CNVDamp         .... on
   Fraction old density DampFac         ....    0.7000
   Max. Damping (<1)    DampMax         ....    0.9800
   Min. Damping (>=0)   DampMin         ....    0.0000
   Turn off err/grad.   DampErr         ....    0.1000
 Fernandez-Rico         CNVRico         .... off

SCF Procedure:
 Maximum # iterations   MaxIter         ....   125
 SCF integral mode      SCFMode         .... Direct
   Integral package                     .... SHARK and LIBINT hybrid scheme
 Reset frequency        DirectResetFreq ....    20
 Integral Threshold     Thresh          ....  2.500e-11 Eh
 Primitive CutOff       TCut            ....  2.500e-12 Eh

Convergence Tolerance:
 Convergence Check Mode ConvCheckMode   .... Total+1el-Energy
 Convergence forced     ConvForced      .... 0
 Energy Change          TolE            ....  1.000e-08 Eh
 1-El. energy change                    ....  1.000e-05 Eh
 Orbital Gradient       TolG            ....  1.000e-05
 Orbital Rotation angle TolX            ....  1.000e-05
 DIIS Error             TolErr          ....  5.000e-07


Diagonalization of the overlap matrix:
Smallest eigenvalue                        ... 5.984e-05
Time for diagonalization                   ...    0.117 sec
Threshold for overlap eigenvalues          ... 1.000e-08
Number of eigenvalues below threshold      ... 0
Time for construction of square roots      ...    0.160 sec
Total time needed                          ...    0.280 sec

Time for model grid setup =    0.182 sec

------------------------------
INITIAL GUESS: MODEL POTENTIAL
------------------------------
Loading Hartree-Fock densities                     ... done
Calculating cut-offs                               ... done
Initializing the effective Hamiltonian             ... done
Setting up the integral package (SHARK)            ... done
Starting the Coulomb interaction                   ... done (   0.0 sec)
Reading the grid                                   ... done
Mapping shells                                     ... done
Starting the XC term evaluation                    ... done (   0.0 sec)
  promolecular density results
     # of electrons  =     99.989269999
     EX              =    -82.955409447
     EC              =     -3.378684162
     EX+EC           =    -86.334093609
Transforming the Hamiltonian                       ... done (   0.1 sec)
Diagonalizing the Hamiltonian                      ... done (   0.1 sec)
Back transforming the eigenvectors                 ... done (   0.1 sec)
Now organizing SCF variables                       ... done
                      ------------------
                      INITIAL GUESS DONE (   0.6 sec)
                      ------------------
-------------------
DFT GRID GENERATION
-------------------

General Integration Accuracy     IntAcc      ... 4.388
Radial Grid Type                 RadialGrid  ... OptM3 with GC (2021)
Angular Grid (max. ang.)         AngularGrid ... 4 (Lebedev-302)
Angular grid pruning method      GridPruning ... 4 (adaptive)
Weight generation scheme         WeightScheme... Becke
Basis function cutoff            BFCut       ... 1.0000e-11
Integration weight cutoff        WCut        ... 1.0000e-14
Angular grids for H and He will be reduced by one unit
Partially contracted basis set               ... off
Rotationally invariant grid construction     ... off

Total number of grid points                  ...   123564
Total number of batches                      ...     1947
Average number of points per batch           ...       63
Average number of grid points per atom       ...     4576
Time for grid setup =    0.976 sec

--------------------
COSX GRID GENERATION
--------------------

GRIDX 1
-------
General Integration Accuracy     IntAcc      ... 3.816
Radial Grid Type                 RadialGrid  ... OptM3 with GC (2021)
Angular Grid (max. ang.)         AngularGrid ... 1 (Lebedev-50)
Angular grid pruning method      GridPruning ... 4 (adaptive)
Weight generation scheme         WeightScheme... Becke
Basis function cutoff            BFCut       ... 1.0000e-11
Integration weight cutoff        WCut        ... 1.0000e-14
Angular grids for H and He will be reduced by one unit
Partially contracted basis set               ... on
Rotationally invariant grid construction     ... off

Total number of grid points                  ...    15802
Total number of batches                      ...      257
Average number of points per batch           ...       61
Average number of grid points per atom       ...      585
UseSFitting                                  ... on

GRIDX 2
-------
General Integration Accuracy     IntAcc      ... 4.020
Radial Grid Type                 RadialGrid  ... OptM3 with GC (2021)
Angular Grid (max. ang.)         AngularGrid ... 2 (Lebedev-110)
Angular grid pruning method      GridPruning ... 4 (adaptive)
Weight generation scheme         WeightScheme... Becke
Basis function cutoff            BFCut       ... 1.0000e-11
Integration weight cutoff        WCut        ... 1.0000e-14
Angular grids for H and He will be reduced by one unit
Partially contracted basis set               ... on
Rotationally invariant grid construction     ... off

Total number of grid points                  ...    34016
Total number of batches                      ...      542
Average number of points per batch           ...       62
Average number of grid points per atom       ...     1260
UseSFitting                                  ... on

GRIDX 3
-------
General Integration Accuracy     IntAcc      ... 4.338
Radial Grid Type                 RadialGrid  ... OptM3 with GC (2021)
Angular Grid (max. ang.)         AngularGrid ... 3 (Lebedev-194)
Angular grid pruning method      GridPruning ... 4 (adaptive)
Weight generation scheme         WeightScheme... Becke
Basis function cutoff            BFCut       ... 1.0000e-11
Integration weight cutoff        WCut        ... 1.0000e-14
Angular grids for H and He will be reduced by one unit
Partially contracted basis set               ... on
Rotationally invariant grid construction     ... off

Total number of grid points                  ...    74441
Total number of batches                      ...     1176
Average number of points per batch           ...       63
Average number of grid points per atom       ...     2757
UseSFitting                                  ... on

Time for X-Grid setup             =    1.258 sec


--------------------
CPCM SOLVATION MODEL
--------------------
CPCM parameters:
  Epsilon                                         ...      78.4000
  Refrac                                          ...       1.3300
  Rsolv                                           ...       1.3000
  Surface type                                    ... GAUSSIAN VDW
  Epsilon function type                           ...         CPCM
Radii:
 Radius for C  used is    3.8550 Bohr (=   2.0400 Ang.)
 Radius for H  used is    2.4944 Bohr (=   1.3200 Ang.)
 Radius for N  used is    3.5149 Bohr (=   1.8600 Ang.)
 Radius for O  used is    3.4469 Bohr (=   1.8240 Ang.)
Calculating surface                               ...        done! (  0.0s)
GEPOL surface points                              ...         1596
GEPOL Volume                                      ...    1650.7113
GEPOL Surface-area                                ...     971.7919
Calculating surface distance matrix               ...        done! (  0.1s)
Performing Cholesky decomposition & store         ...        done! (  0.5s)
Overall time for CPCM initialization              ...                 0.6s
--------------
SCF ITERATIONS
--------------
ITER       Energy         Delta-E        Max-DP      RMS-DP      [F,P]     Damp
               ***  Starting incremental Fock matrix formation  ***
  0   -647.8198497630   0.000000000000 0.10091121  0.00095038  0.3425519 0.7000
  1   -648.0426774554  -0.222827692429 0.08571808  0.00070341  0.1375518 0.7000
                               ***Turning on DIIS***
  2   -648.1229408764  -0.080263421055 0.09567929  0.00102845  0.0365943 0.0000
  3   -648.2569488694  -0.134007992937 0.07856081  0.00054252  0.0766408 0.0000
  4   -648.2836194835  -0.026670614136 0.02032055  0.00016580  0.0149324 0.0000
  5   -648.2853308711  -0.001711387629 0.00754694  0.00006452  0.0053039 0.0000
                      *** Initiating the SOSCF procedure ***
                           *** Shutting down DIIS ***
                      *** Re-Reading the Fockian *** 
                      *** Removing any level shift *** 
ITER      Energy       Delta-E        Grad      Rot      Max-DP    RMS-DP
  6   -648.28546581  -0.0001349340  0.000208  0.000208  0.003205  0.000029
               *** Restarting incremental Fock matrix formation ***
  7   -648.28546740  -0.0000015972  0.000174  0.000367  0.000680  0.000015
  8   -648.28546568   0.0000017219  0.000281  0.000380  0.000805  0.000008
  9   -648.28546979  -0.0000041142  0.000052  0.000100  0.000098  0.000002
 10   -648.28546970   0.0000000965  0.000072  0.000081  0.000093  0.000001
 11   -648.28546985  -0.0000001542  0.000020  0.000070  0.000039  0.000000
 12   -648.28546984   0.0000000076  0.000044  0.000052  0.000024  0.000000
 13   -648.28546984   0.0000000001  0.000004  0.000007  0.000024  0.000000
 14   -648.28546983   0.0000000159  0.000003  0.000003  0.000014  0.000000
                  ***Gradient check signals convergence***
              ***Rediagonalizing the Fockian in SOSCF/NRSCF***

               *****************************************************
               *                     SUCCESS                       *
               *           SCF CONVERGED AFTER  15 CYCLES          *
               *****************************************************

Old exchange energy                            =    -16.832543287 Eh
New exchange energy                            =    -16.832547467 Eh
Exchange energy change after final integration =     -0.000004180 Eh
Total energy after final integration           =   -648.285474029 Eh
Final COS-X integration done in                =     1.239 sec

----------------
TOTAL SCF ENERGY
----------------

Total Energy       :         -648.28547403 Eh          -17640.74459 eV

Components:
Nuclear Repulsion  :          738.06739763 Eh           20083.83493 eV
Electronic Energy  :        -1386.35287166 Eh          -37724.57952 eV
One Electron Energy:        -2345.88990398 Eh          -63834.90959 eV
Two Electron Energy:          959.53703233 Eh           26110.33007 eV
Max COSX asymmetry :            0.00000099 Eh               0.00003 eV
CPCM Dielectric    :           -0.02403271 Eh              -0.65396 eV

Virial components:
Potential Energy   :        -1293.52019326 Eh          -35198.47391 eV
Kinetic Energy     :          645.23471923 Eh           17557.72933 eV
Virial Ratio       :            2.00472813


DFT components:
N(Alpha)           :       50.000020037113 electrons
N(Beta)            :       50.000020037113 electrons
N(Total)           :      100.000040074226 electrons
E(X)               :      -66.986818698782 Eh       
E(C)               :       -3.994141378958 Eh       
E(XC)              :      -70.980960077741 Eh       
DFET-embed. en.    :        0.000000000000 Eh       
CPCM Solvation Model Properties:
Surface-charge          :           -0.02879872
Charge-correction       :           -0.00010487 Eh              -0.00285 eV
Free-energy (cav+disp)  :  This term is not implemented in the current solvation scheme

---------------
SCF CONVERGENCE
---------------

  Last Energy change         ...   -2.0277e-08  Tolerance :   1.0000e-08
  Last MAX-Density change    ...    2.5535e-15  Tolerance :   1.0000e-07
  Last RMS-Density change    ...    1.7532e-17  Tolerance :   5.0000e-09
  Last Orbital Gradient      ...    8.5756e-08  Tolerance :   1.0000e-05
  Last Orbital Rotation      ...    3.2206e-07  Tolerance :   1.0000e-05

             **** THE GBW FILE WAS UPDATED (/home/rudenko/mop_saddle_orca_4_serv/for_orca/ch32chno2_pyridine_new/orca/orca_start/start.gbw) ****
             **** DENSITY /home/rudenko/mop_saddle_orca_4_serv/for_orca/ch32chno2_pyridine_new/orca/orca_start/start.scfp WAS UPDATED ****
             **** ENERGY FILE WAS UPDATED (/home/rudenko/mop_saddle_orca_4_serv/for_orca/ch32chno2_pyridine_new/orca/orca_start/start.en.tmp) ****
             **** THE GBW FILE WAS UPDATED (/home/rudenko/mop_saddle_orca_4_serv/for_orca/ch32chno2_pyridine_new/orca/orca_start/start.gbw) ****
             **** DENSITY /home/rudenko/mop_saddle_orca_4_serv/for_orca/ch32chno2_pyridine_new/orca/orca_start/start.scfp WAS UPDATED ****
----------------
ORBITAL ENERGIES
----------------

  NO   OCC          E(Eh)            E(eV) 
   0   2.0000     -19.167622      -521.5775 
   1   2.0000     -19.164206      -521.4845 
   2   2.0000     -19.109831      -520.0049 
   3   2.0000     -14.550266      -395.9329 
   4   2.0000     -14.327949      -389.8833 
   5   2.0000     -10.235570      -278.5240 
   6   2.0000     -10.216300      -277.9997 
   7   2.0000     -10.216029      -277.9923 
   8   2.0000     -10.195531      -277.4345 
   9   2.0000     -10.187089      -277.2048 
  10   2.0000     -10.186964      -277.2014 
  11   2.0000     -10.173280      -276.8290 
  12   2.0000     -10.166648      -276.6486 
  13   2.0000      -1.239622       -33.7318 
  14   2.0000      -1.060762       -28.8648 
  15   2.0000      -0.996580       -27.1183 
  16   2.0000      -0.946747       -25.7623 
  17   2.0000      -0.842791       -22.9335 
  18   2.0000      -0.806711       -21.9517 
  19   2.0000      -0.765470       -20.8295 
  20   2.0000      -0.700071       -19.0499 
  21   2.0000      -0.696187       -18.9442 
  22   2.0000      -0.634398       -17.2629 
  23   2.0000      -0.629224       -17.1221 
  24   2.0000      -0.585307       -15.9270 
  25   2.0000      -0.551569       -15.0090 
  26   2.0000      -0.532802       -14.4983 
  27   2.0000      -0.529262       -14.4020 
  28   2.0000      -0.521688       -14.1958 
  29   2.0000      -0.513978       -13.9861 
  30   2.0000      -0.485707       -13.2168 
  31   2.0000      -0.469842       -12.7850 
  32   2.0000      -0.454684       -12.3726 
  33   2.0000      -0.432384       -11.7658 
  34   2.0000      -0.414396       -11.2763 
  35   2.0000      -0.408074       -11.1042 
  36   2.0000      -0.407074       -11.0770 
  37   2.0000      -0.403435       -10.9780 
  38   2.0000      -0.390792       -10.6340 
  39   2.0000      -0.380419       -10.3517 
  40   2.0000      -0.368566       -10.0292 
  41   2.0000      -0.358211        -9.7474 
  42   2.0000      -0.358089        -9.7441 
  43   2.0000      -0.325248        -8.8504 
  44   2.0000      -0.319554        -8.6955 
  45   2.0000      -0.307048        -8.3552 
  46   2.0000      -0.300309        -8.1718 
  47   2.0000      -0.296399        -8.0654 
  48   2.0000      -0.276016        -7.5108 
  49   2.0000      -0.271748        -7.3946 
  50   0.0000      -0.078921        -2.1475 
  51   0.0000      -0.041704        -1.1348 
  52   0.0000      -0.026631        -0.7247 
  53   0.0000       0.027637         0.7521 
  54   0.0000       0.058123         1.5816 
  55   0.0000       0.066859         1.8193 
  56   0.0000       0.077144         2.0992 
  57   0.0000       0.086626         2.3572 
  58   0.0000       0.095726         2.6048 
  59   0.0000       0.098315         2.6753 
  60   0.0000       0.106331         2.8934 
  61   0.0000       0.109792         2.9876 
  62   0.0000       0.114464         3.1147 
  63   0.0000       0.119252         3.2450 
  64   0.0000       0.122420         3.3312 
  65   0.0000       0.132383         3.6023 
  66   0.0000       0.133225         3.6252 
  67   0.0000       0.141663         3.8549 
  68   0.0000       0.147555         4.0152 
  69   0.0000       0.155909         4.2425 
  70   0.0000       0.174399         4.7456 
  71   0.0000       0.181590         4.9413 
  72   0.0000       0.191988         5.2243 
  73   0.0000       0.199256         5.4220 
  74   0.0000       0.201026         5.4702 
  75   0.0000       0.216823         5.9000 
  76   0.0000       0.221833         6.0364 
  77   0.0000       0.225294         6.1305 
  78   0.0000       0.227360         6.1868 
  79   0.0000       0.231031         6.2867 
  80   0.0000       0.239363         6.5134 
  81   0.0000       0.240111         6.5338 
  82   0.0000       0.249528         6.7900 
  83   0.0000       0.265034         7.2119 
  84   0.0000       0.268174         7.2974 
  85   0.0000       0.277232         7.5439 
  86   0.0000       0.281912         7.6712 
  87   0.0000       0.293629         7.9900 
  88   0.0000       0.314844         8.5673 
  89   0.0000       0.316094         8.6014 
  90   0.0000       0.321423         8.7464 
  91   0.0000       0.330423         8.9913 
  92   0.0000       0.332146         9.0382 
  93   0.0000       0.338569         9.2129 
  94   0.0000       0.352362         9.5883 
  95   0.0000       0.362078         9.8526 
  96   0.0000       0.369709        10.0603 
  97   0.0000       0.376484        10.2447 
  98   0.0000       0.386008        10.5038 
  99   0.0000       0.391845        10.6627 
 100   0.0000       0.395552        10.7635 
 101   0.0000       0.402447        10.9511 
 102   0.0000       0.409803        11.1513 
 103   0.0000       0.414463        11.2781 
 104   0.0000       0.419890        11.4258 
 105   0.0000       0.424114        11.5407 
 106   0.0000       0.431831        11.7507 
 107   0.0000       0.439241        11.9524 
 108   0.0000       0.443080        12.0568 
 109   0.0000       0.446978        12.1629 
 110   0.0000       0.452443        12.3116 
 111   0.0000       0.458707        12.4820 
 112   0.0000       0.462343        12.5810 
 113   0.0000       0.463801        12.6207 
 114   0.0000       0.468167        12.7395 
 115   0.0000       0.478611        13.0237 
 116   0.0000       0.480245        13.0681 
 117   0.0000       0.487691        13.2707 
 118   0.0000       0.488670        13.2974 
 119   0.0000       0.490373        13.3437 
 120   0.0000       0.495630        13.4868 
 121   0.0000       0.512762        13.9530 
 122   0.0000       0.523521        14.2457 
 123   0.0000       0.530457        14.4345 
 124   0.0000       0.541883        14.7454 
 125   0.0000       0.549496        14.9525 
 126   0.0000       0.559367        15.2211 
 127   0.0000       0.567717        15.4484 
 128   0.0000       0.589907        16.0522 
 129   0.0000       0.599676        16.3180 
 130   0.0000       0.615364        16.7449 
 131   0.0000       0.622972        16.9519 
 132   0.0000       0.629931        17.1413 
 133   0.0000       0.641582        17.4583 
 134   0.0000       0.643750        17.5173 
 135   0.0000       0.652436        17.7537 
 136   0.0000       0.658428        17.9167 
 137   0.0000       0.663831        18.0638 
 138   0.0000       0.670104        18.2345 
 139   0.0000       0.681577        18.5467 
 140   0.0000       0.715509        19.4700 
 141   0.0000       0.738309        20.0904 
 142   0.0000       0.743499        20.2316 
 143   0.0000       0.748898        20.3785 
 144   0.0000       0.756519        20.5859 
 145   0.0000       0.760614        20.6974 
 146   0.0000       0.770721        20.9724 
 147   0.0000       0.788390        21.4532 
 148   0.0000       0.804586        21.8939 
 149   0.0000       0.814713        22.1695 
 150   0.0000       0.822570        22.3833 
 151   0.0000       0.853396        23.2221 
 152   0.0000       0.869143        23.6506 
 153   0.0000       0.883451        24.0399 
 154   0.0000       0.894492        24.3404 
 155   0.0000       0.908988        24.7348 
 156   0.0000       0.927564        25.2403 
 157   0.0000       0.937379        25.5074 
 158   0.0000       0.961124        26.1535 
 159   0.0000       0.968852        26.3638 
 160   0.0000       0.988408        26.8959 
 161   0.0000       1.001400        27.2495 
 162   0.0000       1.004544        27.3350 
 163   0.0000       1.018402        27.7121 
 164   0.0000       1.025105        27.8945 
 165   0.0000       1.053190        28.6588 
 166   0.0000       1.082664        29.4608 
 167   0.0000       1.092967        29.7411 
 168   0.0000       1.096603        29.8401 
 169   0.0000       1.108866        30.1738 
 170   0.0000       1.117779        30.4163 
 171   0.0000       1.127066        30.6690 
 172   0.0000       1.149944        31.2916 
 173   0.0000       1.168622        31.7998 
 174   0.0000       1.179467        32.0949 
 175   0.0000       1.193603        32.4796 
 176   0.0000       1.205590        32.8058 
 177   0.0000       1.228553        33.4306 
 178   0.0000       1.237441        33.6725 
 179   0.0000       1.245621        33.8951 
 180   0.0000       1.264239        34.4017 
 181   0.0000       1.271169        34.5903 
 182   0.0000       1.281565        34.8731 
 183   0.0000       1.292251        35.1639 
 184   0.0000       1.302246        35.4359 
 185   0.0000       1.304164        35.4881 
 186   0.0000       1.309172        35.6244 
 187   0.0000       1.329118        36.1671 
 188   0.0000       1.340156        36.4675 
 189   0.0000       1.375781        37.4369 
 190   0.0000       1.390106        37.8267 
 191   0.0000       1.404823        38.2272 
 192   0.0000       1.408835        38.3364 
 193   0.0000       1.441628        39.2287 
 194   0.0000       1.460869        39.7523 
 195   0.0000       1.464641        39.8549 
 196   0.0000       1.465209        39.8704 
 197   0.0000       1.465981        39.8914 
 198   0.0000       1.489731        40.5376 
 199   0.0000       1.516871        41.2762 
 200   0.0000       1.520081        41.3635 
 201   0.0000       1.525816        41.5196 
 202   0.0000       1.531869        41.6843 
 203   0.0000       1.546433        42.0806 
 204   0.0000       1.552369        42.2421 
 205   0.0000       1.565770        42.6068 
 206   0.0000       1.584217        43.1087 
 207   0.0000       1.591976        43.3199 
 208   0.0000       1.599601        43.5274 
 209   0.0000       1.607110        43.7317 
 210   0.0000       1.620334        44.0915 
 211   0.0000       1.628603        44.3165 
 212   0.0000       1.648446        44.8565 
 213   0.0000       1.651418        44.9374 
 214   0.0000       1.665932        45.3323 
 215   0.0000       1.676010        45.6066 
 216   0.0000       1.684626        45.8410 
 217   0.0000       1.688626        45.9499 
 218   0.0000       1.706957        46.4487 
 219   0.0000       1.710505        46.5452 
 220   0.0000       1.719232        46.7827 
 221   0.0000       1.729900        47.0730 
 222   0.0000       1.741458        47.3875 
 223   0.0000       1.750228        47.6261 
 224   0.0000       1.762917        47.9714 
 225   0.0000       1.777863        48.3781 
 226   0.0000       1.789338        48.6904 
 227   0.0000       1.809125        49.2288 
 228   0.0000       1.822819        49.6014 
 229   0.0000       1.842545        50.1382 
 230   0.0000       1.863699        50.7138 
 231   0.0000       1.896398        51.6036 
 232   0.0000       1.899204        51.6800 
 233   0.0000       1.903093        51.7858 
 234   0.0000       1.929749        52.5111 
 235   0.0000       1.930971        52.5444 
 236   0.0000       1.947733        53.0005 
 237   0.0000       1.972751        53.6813 
 238   0.0000       2.003511        54.5183 
 239   0.0000       2.004332        54.5407 
 240   0.0000       2.033880        55.3447 
 241   0.0000       2.037494        55.4430 
 242   0.0000       2.048074        55.7309 
 243   0.0000       2.055630        55.9365 
 244   0.0000       2.077457        56.5305 
 245   0.0000       2.085022        56.7363 
 246   0.0000       2.093629        56.9705 
 247   0.0000       2.101036        57.1721 
 248   0.0000       2.128832        57.9285 
 249   0.0000       2.139245        58.2118 
 250   0.0000       2.149053        58.4787 
 251   0.0000       2.161955        58.8298 
 252   0.0000       2.170623        59.0657 
 253   0.0000       2.177454        59.2515 
 254   0.0000       2.206502        60.0420 
 255   0.0000       2.214251        60.2528 
 256   0.0000       2.216239        60.3069 
 257   0.0000       2.237402        60.8828 
 258   0.0000       2.244410        61.0735 
 259   0.0000       2.264551        61.6216 
 260   0.0000       2.285844        62.2010 
 261   0.0000       2.295655        62.4679 
 262   0.0000       2.301322        62.6221 
 263   0.0000       2.315767        63.0152 
 264   0.0000       2.331564        63.4451 
 265   0.0000       2.356990        64.1369 
 266   0.0000       2.369316        64.4724 
 267   0.0000       2.382321        64.8263 
 268   0.0000       2.391214        65.0682 
 269   0.0000       2.399244        65.2867 
 270   0.0000       2.420257        65.8585 
 271   0.0000       2.424184        65.9654 
 272   0.0000       2.430742        66.1439 
 273   0.0000       2.455558        66.8191 
 274   0.0000       2.467240        67.1370 
 275   0.0000       2.497337        67.9560 
 276   0.0000       2.522485        68.6403 
 277   0.0000       2.523422        68.6658 
 278   0.0000       2.544747        69.2461 
 279   0.0000       2.546292        69.2881 
 280   0.0000       2.564106        69.7729 
 281   0.0000       2.571811        69.9825 
 282   0.0000       2.579710        70.1975 
 283   0.0000       2.584320        70.3229 
 284   0.0000       2.585162        70.3458 
 285   0.0000       2.590202        70.4830 
 286   0.0000       2.594772        70.6073 
 287   0.0000       2.611870        71.0726 
 288   0.0000       2.614120        71.1338 
 289   0.0000       2.628620        71.5284 
 290   0.0000       2.630931        71.5913 
 291   0.0000       2.654008        72.2192 
 292   0.0000       2.666037        72.5465 
 293   0.0000       2.668601        72.6163 
 294   0.0000       2.673667        72.7542 
 295   0.0000       2.677018        72.8454 
 296   0.0000       2.693957        73.3063 
 297   0.0000       2.705466        73.6195 
 298   0.0000       2.712366        73.8072 
 299   0.0000       2.736397        74.4612 
 300   0.0000       2.752506        74.8995 
 301   0.0000       2.758368        75.0590 
 302   0.0000       2.779008        75.6206 
 303   0.0000       2.780016        75.6481 
 304   0.0000       2.790882        75.9438 
 305   0.0000       2.802233        76.2526 
 306   0.0000       2.806303        76.3634 
 307   0.0000       2.809059        76.4384 
 308   0.0000       2.816209        76.6329 
 309   0.0000       2.842478        77.3477 
 310   0.0000       2.865640        77.9780 
 311   0.0000       2.888752        78.6069 
 312   0.0000       2.894744        78.7700 
 313   0.0000       2.908055        79.1322 
 314   0.0000       2.926467        79.6332 
 315   0.0000       2.949904        80.2710 
 316   0.0000       2.951980        80.3275 
 317   0.0000       2.970305        80.8261 
 318   0.0000       2.998462        81.5923 
 319   0.0000       3.006240        81.8039 
 320   0.0000       3.050769        83.0157 
 321   0.0000       3.064270        83.3830 
 322   0.0000       3.066023        83.4307 
 323   0.0000       3.081001        83.8383 
 324   0.0000       3.084622        83.9368 
 325   0.0000       3.102145        84.4137 
 326   0.0000       3.106996        84.5457 
 327   0.0000       3.113291        84.7170 
 328   0.0000       3.127132        85.0936 
 329   0.0000       3.132870        85.2497 
 330   0.0000       3.143278        85.5329 
 331   0.0000       3.148069        85.6633 
 332   0.0000       3.150242        85.7224 
 333   0.0000       3.159833        85.9834 
 334   0.0000       3.178680        86.4963 
 335   0.0000       3.186855        86.7187 
 336   0.0000       3.203346        87.1675 
 337   0.0000       3.207251        87.2737 
 338   0.0000       3.210704        87.3677 
 339   0.0000       3.226603        87.8003 
 340   0.0000       3.236376        88.0663 
 341   0.0000       3.237342        88.0926 
 342   0.0000       3.255018        88.5736 
 343   0.0000       3.279292        89.2341 
 344   0.0000       3.311657        90.1148 
 345   0.0000       3.328509        90.5733 
 346   0.0000       3.337681        90.8229 
 347   0.0000       3.354393        91.2777 
 348   0.0000       3.361889        91.4817 
 349   0.0000       3.376696        91.8846 
 350   0.0000       3.384559        92.0985 
 351   0.0000       3.388381        92.2025 
 352   0.0000       3.400318        92.5274 
 353   0.0000       3.416340        92.9633 
 354   0.0000       3.439319        93.5886 
 355   0.0000       3.440971        93.6336 
 356   0.0000       3.463519        94.2471 
 357   0.0000       3.471669        94.4689 
 358   0.0000       3.501370        95.2771 
 359   0.0000       3.513410        95.6047 
 360   0.0000       3.538244        96.2805 
 361   0.0000       3.541840        96.3784 
 362   0.0000       3.568651        97.1079 
 363   0.0000       3.589701        97.6807 
 364   0.0000       3.617248        98.4303 
 365   0.0000       3.673669        99.9656 
 366   0.0000       3.698584       100.6436 
 367   0.0000       3.703026       100.7645 
 368   0.0000       3.715273       101.0977 
 369   0.0000       3.724837       101.3580 
 370   0.0000       3.737286       101.6967 
 371   0.0000       3.755411       102.1899 
 372   0.0000       3.790436       103.1430 
 373   0.0000       3.803069       103.4868 
 374   0.0000       3.860186       105.0410 
 375   0.0000       3.874179       105.4218 
 376   0.0000       3.888824       105.8203 
 377   0.0000       3.914815       106.5275 
 378   0.0000       3.939748       107.2060 
 379   0.0000       3.968653       107.9925 
 380   0.0000       3.985278       108.4449 
 381   0.0000       3.991360       108.6104 
 382   0.0000       3.998771       108.8121 
 383   0.0000       4.006416       109.0201 
 384   0.0000       4.022917       109.4691 
 385   0.0000       4.045751       110.0905 
 386   0.0000       4.048505       110.1654 
 387   0.0000       4.077386       110.9513 
 388   0.0000       4.086234       111.1921 
 389   0.0000       4.123077       112.1946 
 390   0.0000       4.129375       112.3660 
 391   0.0000       4.172164       113.5304 
 392   0.0000       4.207564       114.4936 
 393   0.0000       4.242279       115.4383 
 394   0.0000       4.243249       115.4647 
 395   0.0000       4.267601       116.1273 
 396   0.0000       4.299077       116.9838 
 397   0.0000       4.315313       117.4256 
 398   0.0000       4.318301       117.5069 
 399   0.0000       4.339754       118.0907 
 400   0.0000       4.343124       118.1824 
 401   0.0000       4.386275       119.3566 
 402   0.0000       4.441839       120.8686 
 403   0.0000       4.449171       121.0681 
 404   0.0000       4.469679       121.6261 
 405   0.0000       4.490169       122.1837 
 406   0.0000       4.503768       122.5538 
 407   0.0000       4.530708       123.2868 
 408   0.0000       4.591829       124.9500 
 409   0.0000       4.615951       125.6064 
 410   0.0000       4.677341       127.2769 
 411   0.0000       4.705427       128.0412 
 412   0.0000       4.707666       128.1021 
 413   0.0000       4.723513       128.5333 
 414   0.0000       4.735762       128.8666 
 415   0.0000       4.758229       129.4780 
 416   0.0000       4.811774       130.9350 
 417   0.0000       4.814552       131.0106 
 418   0.0000       4.871930       132.5720 
 419   0.0000       4.897883       133.2782 
 420   0.0000       4.911676       133.6535 
 421   0.0000       4.918089       133.8280 
 422   0.0000       4.921774       133.9283 
 423   0.0000       5.002341       136.1206 
 424   0.0000       5.010754       136.3495 
 425   0.0000       5.055292       137.5615 
 426   0.0000       5.094981       138.6415 
 427   0.0000       5.107519       138.9827 
 428   0.0000       5.122525       139.3910 
 429   0.0000       5.125518       139.4724 
 430   0.0000       5.131922       139.6467 
 431   0.0000       5.143654       139.9660 
 432   0.0000       5.179548       140.9427 
 433   0.0000       5.210327       141.7802 
 434   0.0000       5.217496       141.9753 
 435   0.0000       5.257330       143.0592 
 436   0.0000       5.276236       143.5737 
 437   0.0000       5.331002       145.0639 
 438   0.0000       5.355296       145.7250 
 439   0.0000       5.385680       146.5518 
 440   0.0000       5.394580       146.7940 
 441   0.0000       5.404065       147.0521 
 442   0.0000       5.442804       148.1062 
 443   0.0000       5.489972       149.3897 
 444   0.0000       5.571706       151.6138 
 445   0.0000       5.582194       151.8992 
 446   0.0000       5.592848       152.1891 
 447   0.0000       5.644699       153.6001 
 448   0.0000       5.704200       155.2192 
 449   0.0000       5.737845       156.1347 
 450   0.0000       5.954388       162.0271 
 451   0.0000       5.956629       162.0881 
 452   0.0000       6.081125       165.4758 
 453   0.0000       6.242532       169.8679 
 454   0.0000       6.276045       170.7799 
 455   0.0000       6.284361       171.0062 
 456   0.0000       6.333596       172.3459 
 457   0.0000       6.338784       172.4871 
 458   0.0000       6.365244       173.2071 
 459   0.0000       6.397385       174.0817 
 460   0.0000       6.402176       174.2121 
 461   0.0000       6.406753       174.3366 
 462   0.0000       6.455255       175.6564 
 463   0.0000       6.678075       181.7197 
 464   0.0000       6.841715       186.1725 
 465   0.0000       6.868750       186.9082 
 466   0.0000       6.921919       188.3550 
 467   0.0000       6.964482       189.5132 
 468   0.0000       7.079298       192.6375 
 469   0.0000       7.103263       193.2896 
 470   0.0000       7.248491       197.2415 
 471   0.0000       7.279524       198.0859 
 472   0.0000       7.313220       199.0028 
 473   0.0000       7.419697       201.9002 
 474   0.0000      22.173530       603.3724 
 475   0.0000      22.293095       606.6260 
 476   0.0000      22.367787       608.6584 
 477   0.0000      22.488318       611.9383 
 478   0.0000      22.515809       612.6863 
 479   0.0000      22.543113       613.4293 
 480   0.0000      22.647170       616.2608 
 481   0.0000      22.905445       623.2888 
 482   0.0000      32.366261       880.7307 
 483   0.0000      32.439317       882.7187 
 484   0.0000      43.509522      1183.9543 
 485   0.0000      43.932098      1195.4532 
 486   0.0000      43.992248      1197.0899 

                    ********************************
                    * MULLIKEN POPULATION ANALYSIS *
                    ********************************

-----------------------
MULLIKEN ATOMIC CHARGES
-----------------------
   0 C :   -0.387839
   1 H :    0.139923
   2 N :    0.444624
   3 O :   -0.364129
   4 O :   -0.348985
   5 H :    0.145460
   6 C :    0.057959
   7 H :    0.112099
   8 H :    0.137091
   9 C :   -0.390404
  10 H :    0.132488
  11 C :   -0.009961
  12 C :   -0.129382
  13 C :   -0.119165
  14 C :   -0.126144
  15 C :   -0.025988
  16 N :   -0.333609
  17 H :    0.155990
  18 H :    0.161585
  19 H :    0.155821
  20 H :    0.139777
  21 H :    0.142261
  22 H :    0.155622
  23 H :    0.157736
  24 H :    0.349437
  25 H :    0.342637
  26 O :   -0.694906
Sum of atomic charges:   -0.0000000

--------------------------------
MULLIKEN REDUCED ORBITAL CHARGES
--------------------------------
  0 C s       :     3.308145  s :     3.308145
      pz      :     1.034714  p :     3.029612
      px      :     1.047611
      py      :     0.947287
      dz2     :     0.016083  d :     0.046366
      dxz     :     0.002389
      dyz     :     0.006141
      dx2y2   :     0.010769
      dxy     :     0.010984
      f0      :     0.000931  f :     0.003716
      f+1     :     0.000114
      f-1     :     0.000726
      f+2     :     0.000302
      f-2     :     0.000225
      f+3     :     0.000890
      f-3     :     0.000529
  1 H s       :     0.838736  s :     0.838736
      pz      :     0.012928  p :     0.021340
      px      :     0.004289
      py      :     0.004123
  2 N s       :     3.312777  s :     3.312777
      pz      :     0.887240  p :     2.991134
      px      :     1.027853
      py      :     1.076041
      dz2     :     0.067097  d :     0.237073
      dxz     :     0.055522
      dyz     :     0.056767
      dx2y2   :     0.030544
      dxy     :     0.027144
      f0      :     0.002455  f :     0.014393
      f+1     :     0.003254
      f-1     :     0.002498
      f+2     :     0.002171
      f-2     :     0.001783
      f+3     :     0.001151
      f-3     :     0.001081
  3 O s       :     3.878080  s :     3.878080
      pz      :     1.192855  p :     4.441366
      px      :     1.627529
      py      :     1.620982
      dz2     :     0.016667  d :     0.041392
      dxz     :     0.009506
      dyz     :     0.011876
      dx2y2   :     0.001477
      dxy     :     0.001866
      f0      :     0.001119  f :     0.003291
      f+1     :     0.000647
      f-1     :     0.000938
      f+2     :     0.000237
      f-2     :     0.000294
      f+3     :     0.000033
      f-3     :     0.000023
  4 O s       :     3.882437  s :     3.882437
      pz      :     1.535229  p :     4.421552
      px      :     1.324041
      py      :     1.562282
      dz2     :     0.006990  d :     0.041696
      dxz     :     0.011256
      dyz     :     0.008338
      dx2y2   :     0.007856
      dxy     :     0.007256
      f0      :     0.000382  f :     0.003300
      f+1     :     0.000579
      f-1     :     0.000356
      f+2     :     0.000627
      f-2     :     0.000790
      f+3     :     0.000286
      f-3     :     0.000280
  5 H s       :     0.833118  s :     0.833118
      pz      :     0.005057  p :     0.021422
      px      :     0.007504
      py      :     0.008860
  6 C s       :     3.177471  s :     3.177471
      pz      :     0.930182  p :     2.614274
      px      :     0.915520
      py      :     0.768572
      dz2     :     0.031357  d :     0.140547
      dxz     :     0.025471
      dyz     :     0.034714
      dx2y2   :     0.023985
      dxy     :     0.025020
      f0      :     0.001567  f :     0.009749
      f+1     :     0.001361
      f-1     :     0.002258
      f+2     :     0.000589
      f-2     :     0.001167
      f+3     :     0.001484
      f-3     :     0.001325
  7 H s       :     0.865510  s :     0.865510
      pz      :     0.004317  p :     0.022392
[...]
      px      :     0.004888
      py      :     0.013895
 20 H s       :     0.841918  s :     0.841918
      pz      :     0.006019  p :     0.021711
      px      :     0.005942
      py      :     0.009750
 21 H s       :     0.838500  s :     0.838500
      pz      :     0.007448  p :     0.021398
      px      :     0.004349
      py      :     0.009601
 22 H s       :     0.825875  s :     0.825875
      pz      :     0.010877  p :     0.021741
      px      :     0.004210
      py      :     0.006654
 23 H s       :     0.823848  s :     0.823848
      pz      :     0.003357  p :     0.021757
      px      :     0.004621
      py      :     0.013779
 24 H s       :     0.610077  s :     0.610077
      pz      :     0.012953  p :     0.046462
      px      :     0.017108
      py      :     0.016401
 25 H s       :     0.603694  s :     0.603694
      pz      :     0.028101  p :     0.056535
      px      :     0.014692
      py      :     0.013742
 26 O s       :     3.786862  s :     3.786862
      pz      :     1.590124  p :     4.918918
      px      :     1.616555
      py      :     1.712239
      dz2     :     0.004726  d :     0.018276
      dxz     :     0.001245
      dyz     :     0.004484
      dx2y2   :     0.001201
      dxy     :     0.006620
      f0      :     0.000106  f :     0.001189
      f+1     :     0.000297
      f-1     :     0.000178
      f+2     :     0.000042
      f-2     :     0.000221
      f+3     :     0.000132
      f-3     :     0.000215


                     *******************************
                     * LOEWDIN POPULATION ANALYSIS *
                     *******************************

----------------------
LOEWDIN ATOMIC CHARGES
----------------------
   0 C :   -0.266007
   1 H :    0.129949
   2 N :   -0.032750
   3 O :   -0.055761
   4 O :   -0.049522
   5 H :    0.134048
   6 C :   -0.278534
   7 H :    0.155635
   8 H :    0.129601
   9 C :   -0.273645
  10 H :    0.127814
  11 C :   -0.195737
  12 C :   -0.136468
  13 C :   -0.104497
  14 C :   -0.137642
  15 C :   -0.200682
  16 N :    0.107169
  17 H :    0.155305
  18 H :    0.156235
  19 H :    0.155220
  20 H :    0.138183
  21 H :    0.130302
  22 H :    0.144790
  23 H :    0.145230
  24 H :    0.157851
  25 H :    0.134550
  26 O :   -0.370637

-------------------------------
LOEWDIN REDUCED ORBITAL CHARGES
-------------------------------
  0 C s       :     2.830752  s :     2.830752
      pz      :     1.051319  p :     3.158995
      px      :     1.078007
      py      :     1.029669
      dz2     :     0.039763  d :     0.250925
      dxz     :     0.058112
      dyz     :     0.059546
      dx2y2   :     0.046157
      dxy     :     0.047347
      f0      :     0.003301  f :     0.025334
      f+1     :     0.002387
      f-1     :     0.004606
      f+2     :     0.003492
      f-2     :     0.004670
      f+3     :     0.003915
      f-3     :     0.002963
  1 H s       :     0.807904  s :     0.807904
      pz      :     0.027421  p :     0.062147
      px      :     0.021091
      py      :     0.013635
  2 N s       :     2.952717  s :     2.952717
      pz      :     1.049218  p :     3.272396
      px      :     1.111797
      py      :     1.111380
      dz2     :     0.069878  d :     0.735693
      dxz     :     0.168835
      dyz     :     0.070638
      dx2y2   :     0.210996
      dxy     :     0.215345
      f0      :     0.004460  f :     0.071945
      f+1     :     0.010700
      f-1     :     0.003633
      f+2     :     0.010444
      f-2     :     0.008846
      f+3     :     0.012352
      f-3     :     0.021510
  3 O s       :     3.503276  s :     3.503276
      pz      :     1.443634  p :     4.442446
      px      :     1.552750
      py      :     1.446062
      dz2     :     0.012020  d :     0.099039
      dxz     :     0.016684
      dyz     :     0.016406
      dx2y2   :     0.020596
      dxy     :     0.033333
      f0      :     0.001060  f :     0.011000
      f+1     :     0.001024
      f-1     :     0.000923
      f+2     :     0.000699
      f-2     :     0.002483
      f+3     :     0.002441
      f-3     :     0.002371
  4 O s       :     3.498202  s :     3.498202
      pz      :     1.476497  p :     4.440764
      px      :     1.326401
      py      :     1.637865
      dz2     :     0.012477  d :     0.099480
      dxz     :     0.025407
      dyz     :     0.001107
      dx2y2   :     0.037447
      dxy     :     0.023043
      f0      :     0.001061  f :     0.011076
      f+1     :     0.001925
      f-1     :     0.000137
      f+2     :     0.001931
      f-2     :     0.000224
      f+3     :     0.003231
      f-3     :     0.002567
  5 H s       :     0.804089  s :     0.804089
      pz      :     0.019162  p :     0.061863
      px      :     0.017492
      py      :     0.025209
  6 C s       :     2.767565  s :     2.767565
      pz      :     0.985823  p :     2.911320
      px      :     1.014286
      py      :     0.911212
      dz2     :     0.103932  d :     0.538429
      dxz     :     0.095520
      dyz     :     0.144937
      dx2y2   :     0.105397
      dxy     :     0.088642
      f0      :     0.010196  f :     0.061220
      f+1     :     0.004973
      f-1     :     0.011471
      f+2     :     0.007995
      f-2     :     0.012343
      f+3     :     0.007821
      f-3     :     0.006420
  7 H s       :     0.782954  s :     0.782954
      pz      :     0.013832  p :     0.061411
      px      :     0.035472
      py      :     0.012108
  8 H s       :     0.808476  s :     0.808476
      pz      :     0.014777  p :     0.061923
      px      :     0.032680
      py      :     0.014466
  9 C s       :     2.830197  s :     2.830197
      pz      :     1.031973  p :     3.166437
      px      :     1.062265
      py      :     1.072199
      dz2     :     0.044406  d :     0.251439
      dxz     :     0.050989
      dyz     :     0.073908
      dx2y2   :     0.047474
      dxy     :     0.034662
      f0      :     0.006142  f :     0.025573
      f+1     :     0.004451
      f-1     :     0.001887
      f+2     :     0.003986
      f-2     :     0.004355
      f+3     :     0.002267
      f-3     :     0.002485
 10 H s       :     0.810011  s :     0.810011
      pz      :     0.014489  p :     0.062175
      px      :     0.032242
      py      :     0.015444
 11 C s       :     2.780010  s :     2.780010
      pz      :     1.027041  p :     2.867317
      px      :     0.863825
      py      :     0.976451
      dz2     :     0.184550  d :     0.486578
      dxz     :     0.089761
      dyz     :     0.123598
      dx2y2   :     0.059166
      dxy     :     0.029502
      f0      :     0.015806  f :     0.061833
      f+1     :     0.005658
      f-1     :     0.013920
      f+2     :     0.010700
      f-2     :     0.010732
      f+3     :     0.002202
      f-3     :     0.002815
 12 C s       :     2.771075  s :     2.771075
      pz      :     1.022648  p :     2.952655
      px      :     0.894685
      py      :     1.035322
      dz2     :     0.077684  d :     0.369411
      dxz     :     0.035800
      dyz     :     0.154065
      dx2y2   :     0.051740
      dxy     :     0.050122
      f0      :     0.010229  f :     0.043327
      f+1     :     0.005128
      f-1     :     0.008068
      f+2     :     0.006994
      f-2     :     0.002993
      f+3     :     0.005009
      f-3     :     0.004906
 13 C s       :     2.770047  s :     2.770047
      pz      :     1.005235  p :     2.903867
      px      :     0.842362
      py      :     1.056270
      dz2     :     0.094723  d :     0.386494
      dxz     :     0.032887
      dyz     :     0.130378
      dx2y2   :     0.060944
      dxy     :     0.067561
      f0      :     0.009387  f :     0.044090
      f+1     :     0.003519
      f-1     :     0.007946
      f+2     :     0.007731
      f-2     :     0.005234
      f+3     :     0.004828
      f-3     :     0.005445
 14 C s       :     2.771135  s :     2.771135
      pz      :     1.062534  p :     2.953739
      px      :     0.893632
      py      :     0.997573
      dz2     :     0.132787  d :     0.369438
      dxz     :     0.066114
      dyz     :     0.097506
      dx2y2   :     0.050688
      dxy     :     0.022342
      f0      :     0.010555  f :     0.043330
      f+1     :     0.004493
      f-1     :     0.009230
      f+2     :     0.007803
      f-2     :     0.007166
      f+3     :     0.001576
      f-3     :     0.002507
 15 C s       :     2.780612  s :     2.780612
      pz      :     1.034844  p :     2.871650
      px      :     0.867456
      py      :     0.969350
      dz2     :     0.090216  d :     0.486654
      dxz     :     0.038460
      dyz     :     0.204472
      dx2y2   :     0.074437
      dxy     :     0.079069
      f0      :     0.013850  f :     0.061767
      f+1     :     0.005316
      f-1     :     0.009685
      f+2     :     0.010902
      f-2     :     0.004188
      f+3     :     0.009450
      f-3     :     0.008375
 16 N s       :     3.033273  s :     3.033273
      pz      :     1.346600  p :     3.617720
      px      :     1.073808
      py      :     1.197312
      dz2     :     0.046268  d :     0.223589
      dxz     :     0.017878
      dyz     :     0.070753
      dx2y2   :     0.044152
      dxy     :     0.044538
      f0      :     0.003881  f :     0.018249
      f+1     :     0.001406
      f-1     :     0.003633
      f+2     :     0.003031
      f-2     :     0.002130
      f+3     :     0.001793
      f-3     :     0.002374
 17 H s       :     0.784730  s :     0.784730
      pz      :     0.026104  p :     0.059965
      px      :     0.012965
      py      :     0.020896
 18 H s       :     0.784710  s :     0.784710
      pz      :     0.031515  p :     0.059055
      px      :     0.013271
      py      :     0.014270
 19 H s       :     0.784833  s :     0.784833
      pz      :     0.010853  p :     0.059946
      px      :     0.013755
      py      :     0.035338
 20 H s       :     0.799947  s :     0.799947
      pz      :     0.018615  p :     0.061869
      px      :     0.017448
      py      :     0.025806
 21 H s       :     0.808148  s :     0.808148
      pz      :     0.019940  p :     0.061550
      px      :     0.013029
      py      :     0.028581
 22 H s       :     0.796470  s :     0.796470
      pz      :     0.028635  p :     0.058740
      px      :     0.012158
      py      :     0.017947
 23 H s       :     0.795972  s :     0.795972
      pz      :     0.009790  p :     0.058798
      px      :     0.013234
      py      :     0.035774
 24 H s       :     0.679173  s :     0.679173
      pz      :     0.037719  p :     0.162976
      px      :     0.063552
      py      :     0.061705
 25 H s       :     0.675147  s :     0.675147
      pz      :     0.101435  p :     0.190303
      px      :     0.043849
      py      :     0.045019
 26 O s       :     3.463031  s :     3.463031
      pz      :     1.565461  p :     4.877949
      px      :     1.607095
      py      :     1.705392
      dz2     :     0.007828  d :     0.027487
      dxz     :     0.003005
      dyz     :     0.005762
      dx2y2   :     0.000395
      dxy     :     0.010498
      f0      :     0.000209  f :     0.002171
      f+1     :     0.000411
      f-1     :     0.000508
      f+2     :     0.000007
      f-2     :     0.000378
      f+3     :     0.000240
      f-3     :     0.000418


                      *****************************
                      * MAYER POPULATION ANALYSIS *
                      *****************************

  NA   - Mulliken gross atomic population
  ZA   - Total nuclear charge
  QA   - Mulliken gross atomic charge
  VA   - Mayer's total valence
  BVA  - Mayer's bonded valence
  FA   - Mayer's free valence

  ATOM       NA         ZA         QA         VA         BVA        FA
  0 C      6.3802     6.0000    -0.3802     3.8569     3.8569     0.0000
  1 H      0.8536     1.0000     0.1464     0.9696     0.9696    -0.0000
  2 N      6.5617     7.0000     0.4383     4.0755     4.0755     0.0000
  3 O      8.3559     8.0000    -0.3559     1.8926     1.8926     0.0000
  4 O      8.3532     8.0000    -0.3532     1.8988     1.8988    -0.0000
  5 H      0.8722     1.0000     0.1278     0.9893     0.9893     0.0000
  6 C      5.9458     6.0000     0.0542     3.7156     3.7156    -0.0000
  7 H      0.8862     1.0000     0.1138     0.9931     0.9931     0.0000
  8 H      0.8597     1.0000     0.1403     0.9756     0.9756    -0.0000
  9 C      6.3633     6.0000    -0.3633     3.8503     3.8503    -0.0000
 10 H      0.8677     1.0000     0.1323     0.9838     0.9838    -0.0000
 11 C      5.9990     6.0000     0.0010     3.9155     3.9155     0.0000
 12 C      6.1323     6.0000    -0.1323     3.9038     3.9038     0.0000
 13 C      6.1066     6.0000    -0.1066     3.9080     3.9080    -0.0000
 14 C      6.1308     6.0000    -0.1308     3.8995     3.8995    -0.0000
 15 C      6.0075     6.0000    -0.0075     3.9291     3.9291    -0.0000
 16 N      7.3358     7.0000    -0.3358     3.0097     3.0097    -0.0000
 17 H      0.8458     1.0000     0.1542     0.9645     0.9645    -0.0000
 18 H      0.8383     1.0000     0.1617     0.9597     0.9597    -0.0000
 19 H      0.8457     1.0000     0.1543     0.9642     0.9642     0.0000
 20 H      0.8636     1.0000     0.1364     0.9773     0.9773    -0.0000
 21 H      0.8599     1.0000     0.1401     0.9645     0.9645    -0.0000
 22 H      0.8476     1.0000     0.1524     0.9685     0.9685    -0.0000
 23 H      0.8456     1.0000     0.1544     0.9668     0.9668     0.0000
 24 H      0.6565     1.0000     0.3435     0.8990     0.8990    -0.0000
 25 H      0.6602     1.0000     0.3398     0.9718     0.9718    -0.0000
 26 O      8.7252     8.0000    -0.7252     1.7439     1.7439     0.0000

  Mayer bond orders larger than 0.100000
B(  0-C ,  1-H ) :   0.9705 B(  0-C ,  6-C ) :   0.9458 B(  0-C ,  8-H ) :   0.9566 
B(  0-C , 20-H ) :   0.9626 B(  2-N ,  3-O ) :   1.6054 B(  2-N ,  4-O ) :   1.6055 
B(  2-N ,  6-C ) :   0.8338 B(  3-O ,  4-O ) :   0.2096 B(  5-H ,  9-C ) :   0.9613 
B(  6-C ,  7-H ) :   0.9437 B(  6-C ,  9-C ) :   0.9510 B(  9-C , 10-H ) :   0.9616 
B(  9-C , 21-H ) :   0.9703 B( 11-C , 12-C ) :   1.4246 B( 11-C , 16-N ) :   1.3761 
B( 11-C , 23-H ) :   0.9556 B( 12-C , 13-C ) :   1.4103 B( 12-C , 17-H ) :   0.9613 
B( 13-C , 14-C ) :   1.4084 B( 13-C , 18-H ) :   0.9540 B( 14-C , 15-C ) :   1.4248 
B( 14-C , 19-H ) :   0.9615 B( 15-C , 16-N ) :   1.3815 B( 15-C , 22-H ) :   0.9571 
B( 16-N , 25-H ) :   0.1553 B( 24-H , 26-O ) :   0.8927 B( 25-H , 26-O ) :   0.8093 


-------
TIMINGS
-------

Total SCF time: 0 days 0 hours 0 min 21 sec 

Total time                  ....      21.994 sec
Sum of individual times     ....      19.358 sec  ( 88.0%)

Fock matrix formation       ....      13.917 sec  ( 63.3%)
  Split-RI-J                ....       2.390 sec  ( 17.2% of F)
  Chain of spheres X        ....       6.397 sec  ( 46.0% of F)
  XC integration            ....       1.598 sec  ( 11.5% of F)
    Basis function eval.    ....       0.173 sec  ( 10.8% of XC)
    Density eval.           ....       0.417 sec  ( 26.1% of XC)
    XC-Functional eval.     ....       0.011 sec  (  0.7% of XC)
    XC-Potential eval.      ....       0.143 sec  (  8.9% of XC)
Diagonalization             ....       0.293 sec  (  1.3%)
Density matrix formation    ....       0.141 sec  (  0.6%)
Population analysis         ....       0.391 sec  (  1.8%)
Initial guess               ....       0.372 sec  (  1.7%)
Orbital Transformation      ....       0.000 sec  (  0.0%)
Orbital Orthonormalization  ....       0.313 sec  (  1.4%)
DIIS solution               ....       0.141 sec  (  0.6%)
SOSCF solution              ....       1.829 sec  (  8.3%)
Grid generation             ....       2.274 sec  ( 10.3%)

Maximum memory used throughout the entire SCF-calculation: 103.0 MB


-------------------------------------------------------------------------------
                          DFT DISPERSION CORRECTION                            
                                                                               
                              DFTD3 V3.1  Rev 1                                
                          USING Becke-Johnson damping                          
-------------------------------------------------------------------------------
The B3LYP functional is recognized
Active option DFTDOPT                   ...         4   

molecular C6(AA) [au] = 6555.627413 


            DFT-D V3
 parameters
 s6 scaling factor         :     1.0000 
 a1 scaling factor         :     0.3981 
 s8 scaling factor         :     1.9889 
 a2 scaling factor         :     4.4211 
 ad hoc parameters k1-k3   :    16.0000     1.3333    -4.0000 

 Edisp/kcal,au: -27.484461233109  -0.043799272262 
 E6   /kcal   : -13.588003904 
 E8   /kcal   : -13.896457329 
 % E8         :  50.561141478 

-------------------------   ----------------
Dispersion correction           -0.043799272
-------------------------   ----------------


-------------------------   --------------------
FINAL SINGLE POINT ENERGY      -648.335375147093
-------------------------   --------------------

                                *** OPTIMIZATION RUN DONE ***

                            ***************************************
                            *     ORCA property calculations      *
                            ***************************************

                                    ---------------------
                                    Active property flags
                                    ---------------------
   (+) Dipole Moment


------------------------------------------------------------------------------
                       ORCA ELECTRIC PROPERTIES CALCULATION
------------------------------------------------------------------------------

Dipole Moment Calculation                       ... on
Quadrupole Moment Calculation                   ... off
Polarizability Calculation                      ... off
GBWName                                         ... /home/rudenko/mop_saddle_orca_4_serv/for_orca/ch32chno2_pyridine_new/orca/orca_start/start.gbw
Electron density                                ... /home/rudenko/mop_saddle_orca_4_serv/for_orca/ch32chno2_pyridine_new/orca/orca_start/start.scfp
The origin for moment calculation is the CENTER OF MASS  = ( 7.255324, -3.982121  0.226993)

-------------
DIPOLE MOMENT
-------------
                                X             Y             Z
Electronic contribution:      1.43270      -7.18061      -5.28058
Nuclear contribution   :     -0.58794       7.37891       4.30674
                        -----------------------------------------
Total Dipole Moment    :      0.84476       0.19830      -0.97383
                        -----------------------------------------
Magnitude (a.u.)       :      1.30434
Magnitude (Debye)      :      3.31536



--------------------
Rotational spectrum 
--------------------
 
Rotational constants in cm-1:     0.029896     0.016068     0.012871 
Rotational constants in MHz :   896.259485   481.697744   385.860756 

 Dipole components along the rotational axes: 
x,y,z [a.u.] :     0.990539    -0.619764    -0.579672 
x,y,z [Debye]:     2.517749    -1.575315    -1.473409 

 

Timings for individual modules:

Sum of individual times         ...     3682.282 sec (=  61.371 min)
GTO integral calculation        ...      369.770 sec (=   6.163 min)  10.0 %
SCF iterations                  ...     2534.178 sec (=  42.236 min)  68.8 %
SCF Gradient evaluation         ...      769.324 sec (=  12.822 min)  20.9 %
Geometry relaxation             ...        9.010 sec (=   0.150 min)   0.2 %
                             ****ORCA TERMINATED NORMALLY****
TOTAL RUN TIME: 0 days 1 hours 6 minutes 15 seconds 41 msec
