 *******************************************************************************
 **                                                                           **
 **                              MOPAC v22.0.6                                **
 **                                                                           **
 *******************************************************************************
 **          Digital Object Identifier (DOI): 10.5281/zenodo.6511958          **
 **    Visit the DOI location for information on how to cite this program.    **
 *******************************************************************************

                              PM7 CALCULATION RESULTS

 *******************************************************************************
 *  CALCULATION DONE:                                Mon Mar 25 23:05:08 2024  *
 *  PM7        - The PM7 Hamiltonian to be used
 *  SINGLET    - SPIN STATE DEFINED AS A SINGLET
 *
 *
 *
 *                 CHARGE ON SYSTEM = 0
 *
 *
 *
 *  EPS=78.4   - USE ANDREAS KLAMT'S COSMO IMPLICIT SOLVATION MODEL
 *  LET        - OVERRIDE SOME SAFETY CHECKS
 *  THREADS    - USE A MAXIMUM OF 30 THREADS
 *  T=         - A TIME OF 14.0 DAYS REQUESTED
 *  DUMP=N     - RESTART FILE WRITTEN EVERY 30.0 MINUTES REQUESTED
 *  RELSCF     - DEFAULT SCF CRITERION MULTIPLIED BY 1.0000
 *              (DEFAULT SCF CRITERION = 0.00010)
 *  ITRY=      - DO A MAXIMUM OF 15000 ITERATIONS FOR SCF
 *  AUX        - OUTPUT AUXILIARY INFORMATION
 *  ISOTOPE    - SAVE THE FORCE MATRIX FOR USE LATER
 *  BONDS      - FINAL BOND-ORDER MATRIX TO BE PRINTED
 *  LARGE      - EXPANDED OUTPUT TO BE PRINTED
 *  THERMO     - THERMODYNAMIC QUANTITIES TO BE CALCULATED
 *******************************************************************************
PM7 AUX LARGE THERMO(298,298) LET ISOTOPE BONDS DUMP=30M ITRY=15000 T=14D THREADS=30 CHARGE=0 SINGLET eps=78.4 RELSCF=1
 Title: ASE calculation

   ATOM   CHEMICAL          X               Y               Z
  NUMBER   SYMBOL      (ANGSTROMS)     (ANGSTROMS)     (ANGSTROMS)

     1       C          1.99166212  *   2.64948521  *   2.19207050  *
     2       C          2.20482700  *   1.28470641  *   2.00297386  *
     3       C          1.14812813  *   0.44631417  *   1.64201395  *
     4       C         -0.13085538  *   0.97489115  *   1.45381703  *
     5       C         -0.30963471  *   2.33617237  *   1.64776830  *
     6       C          0.71955357  *   3.19188644  *   2.01650875  *
     7       H          2.82438194  *   3.29733246  *   2.47984229  *
     8       H          3.20989243  *   0.87426445  *   2.14041779  *
     9       H         -0.96253418  *   0.32759412  *   1.15933716  *
    10      Cl         -1.88174070  *   2.98717368  *   1.41784840  *
    11       H          0.55117238  *   4.26106133  *   2.16615722  *
    12       C          1.40466645  *  -1.02877953  *   1.47778345  *
    13       C          0.44365582  *  -1.88397369  *   2.29332204  *
    14       H          0.64349267  *  -2.95918875  *   2.17693432  *
    15       H         -0.61070777  *  -1.71504644  *   2.03479531  *
    16       H          0.55673650  *  -1.65808785  *   3.36753338  *
    17       N          1.25358148  *  -1.36816984  *   0.02073952  *
    18       O          2.25192188  *  -1.69567241  *  -0.60054777  *
    19       O          0.15225556  *  -1.29941230  *  -0.49873094  *
    20       N          5.74974523  *  -0.00721541  *   3.22343402  *
    21       C          6.24449034  *  -1.28586284  *   2.65587255  *
    22       C          7.71659634  *  -1.21005867  *   2.21341074  *
    23       C          7.90279482  *  -0.06744940  *   1.20750200  *
    24       C          7.38916293  *   1.25338850  *   1.79402083  *
    25       C          5.92524793  *   1.09317807  *   2.24468541  *
    26       D          2.46990561  *  -1.28597762  *   1.77588494  *
    27       H          6.10791651  *  -2.07996576  *   3.42043072  *
    28       H          5.59894006  *  -1.55633832  *   1.79113744  *
    29       H          8.03069360  *  -2.17235162  *   1.76984132  *
    30       H          8.37003818  *  -1.05405723  *   3.09152543  *
    31       H          8.96867423  *   0.02659596  *   0.92986225  *
    32       H          7.36373305  *  -0.29853584  *   0.26861665  *
    33       H          7.47091076  *   2.06608218  *   1.04952840  *
    34       H          8.01949818  *   1.56153076  *   2.64829916  *
    35       H          5.55580390  *   2.03302830  *   2.70805601  *
    36       H          5.28093063  *   0.88675932  *   1.36150234  *
    37       H          6.26235262  *   0.21214302  *   4.08485364  *
    38       H          2.60878223  *  -0.13246504  *   4.33239022  *
    39       H          3.94725146  *  -0.56883844  *   3.71718987  *
    40       O          3.05217194  *  -0.88962496  *   3.94839666  *


                                Isotopes Used

              Atom:   26  H  Default mass  1.0079,  mass used:  2.0140 amu


          CARTESIAN COORDINATES 

    NO.       ATOM           X           Y           Z

     1         C          1.9917      2.6495      2.1921
     2         C          2.2048      1.2847      2.0030
     3         C          1.1481      0.4463      1.6420
     4         C         -0.1309      0.9749      1.4538
     5         C         -0.3096      2.3362      1.6478
     6         C          0.7196      3.1919      2.0165
     7         H          2.8244      3.2973      2.4798
     8         H          3.2099      0.8743      2.1404
     9         H         -0.9625      0.3276      1.1593
    10        Cl         -1.8817      2.9872      1.4178
    11         H          0.5512      4.2611      2.1662
    12         C          1.4047     -1.0288      1.4778
    13         C          0.4437     -1.8840      2.2933
    14         H          0.6435     -2.9592      2.1769
    15         H         -0.6107     -1.7150      2.0348
    16         H          0.5567     -1.6581      3.3675
    17         N          1.2536     -1.3682      0.0207
    18         O          2.2519     -1.6957     -0.6005
    19         O          0.1523     -1.2994     -0.4987
    20         N          5.7497     -0.0072      3.2234
    21         C          6.2445     -1.2859      2.6559
    22         C          7.7166     -1.2101      2.2134
    23         C          7.9028     -0.0674      1.2075
    24         C          7.3892      1.2534      1.7940
    25         C          5.9252      1.0932      2.2447
    26         H          2.4699     -1.2860      1.7759
    27         H          6.1079     -2.0800      3.4204
    28         H          5.5989     -1.5563      1.7911
    29         H          8.0307     -2.1724      1.7698
    30         H          8.3700     -1.0541      3.0915
    31         H          8.9687      0.0266      0.9299
    32         H          7.3637     -0.2985      0.2686
    33         H          7.4709      2.0661      1.0495
    34         H          8.0195      1.5615      2.6483
    35         H          5.5558      2.0330      2.7081
    36         H          5.2809      0.8868      1.3615
    37         H          6.2624      0.2121      4.0849
    38         H          2.6088     -0.1325      4.3324
    39         H          3.9473     -0.5688      3.7172
    40         O          3.0522     -0.8896      3.9484

 General Reference for PM7:
 "Optimization of Parameters for Semiempirical Methods VI: More Modifications to the 
 NDDO Approximations and Re-optimization of Parameters", J. J. P. Stewart, J. Mol. Mod., 1:32, 19 (2013)
 https://link.springer.com/article/10.1007/s00894-012-1667-x

           Empirical Formula: C13 H21 N2 O3 Cl  =    40 atoms



      MOLECULAR POINT GROUP   :   C1  


 SINGLET STATE CALCULATION


      RHF CALCULATION, NO. OF DOUBLY OCCUPIED LEVELS = 54

  SCF CRITERION =    0.1000E-03


          HEAT OF FORMATION =    -102.266289 KCALS/MOLE


          CARTESIAN COORDINATE DERIVATIVES

   NUMBER  ATOM         X            Y            Z

     1       C      0.020646    -0.067234     0.087204
     2       C      0.036339    -0.021746    -0.182068
     3       C      0.065883     0.133555     0.143598
     4       C      0.039804    -0.029650     0.131747
     5       C      0.088165     0.027239    -0.042379
     6       C      0.024474    -0.016724    -0.049353
     7       H     -0.031407    -0.222892    -0.037959
     8       H      0.101439    -0.029337    -0.018146
     9       H     -0.013659     0.093223    -0.060854
    10      Cl      0.046773     0.311357    -0.053105
    11       H     -0.165488    -0.144551    -0.049528
    12       C      0.184364    -0.049849     0.059854
    13       C      0.013646    -0.014032     0.120318
    14       H     -0.024066     0.048285     0.036376
    15       H      0.016442    -0.037368    -0.000164
    16       H     -0.034534     0.010365    -0.041212
    17       N     -0.175454     0.087906     0.078244
    18       O      0.044853    -0.003352     0.093746
    19       O     -0.079863     0.011179    -0.227717
    20       N     -0.043291    -0.106442     0.072124
    21       C     -0.153185     0.038577    -0.039746
    22       C      0.037772     0.109934     0.002541
    23       C      0.010135     0.056219    -0.069120
    24       C     -0.068364     0.004909     0.026510
    25       C      0.105691     0.040896     0.107101
    26       H      0.040670    -0.149780    -0.168632
    27       H     -0.111454     0.051180     0.087325
    28       H     -0.139176    -0.064533     0.030615
    29       H      0.089811     0.062899    -0.063992
    30       H     -0.108303     0.083371     0.011376
    31       H      0.039066     0.168463    -0.080125
    32       H     -0.040748    -0.056119    -0.168279
    33       H     -0.053143    -0.008471     0.101021
    34       H      0.147704    -0.033614    -0.092182
    35       H      0.072894    -0.020893    -0.023748
    36       H      0.088269    -0.071012     0.104727
    37       H     -0.072536     0.069838    -0.085205
    38       H      0.066435    -0.189929     0.048976
    39       H     -0.022868    -0.156990     0.048180
    40       O     -0.043622     0.085131     0.162007

 DIPOLE           X         Y         Z       TOTAL
 POINT-CHG.    -2.412    -6.649    -3.803     8.031
 HYBRID        -0.160    -0.803     0.478     0.948
 SUM           -2.571    -7.452    -3.325     8.555


          GRADIENT NORM =   1.01405


          TIME FOR SCF CALCULATION =    2.43

          TIME FOR DERIVATIVES     =    0.35

          MOLECULAR WEIGHT =  289.78



          ROTATIONAL CONSTANTS IN CM(-1)

          A =    0.01556632   B =    0.00514603   C =    0.00445883



           PRINCIPAL MOMENTS OF INERTIA IN UNITS OF 10**(-40)*GRAM-CM**2

          A =     1798.2896   B =     5439.6805   C =     6278.0424


          ORIENTATION OF MOLECULE IN FORCE CALCULATION

    NO.       ATOM         X         Y         Z

     1          C      -2.3470    0.1173   -0.2149
     2          C      -0.9528    0.1173   -0.2149
     3          C      -0.2447    1.3208   -0.2149
     4          C      -0.9321    2.5365   -0.2006
     5          C      -2.3183    2.5026   -0.1990
     6          C      -3.0486    1.3219   -0.2091
     7          H      -2.8929   -0.8303   -0.2202
     8          H      -0.4160   -0.8363   -0.2152
     9          H      -0.3857    3.4845   -0.1884
    10         Cl      -3.1647    3.9964   -0.1825
    11          H      -4.1413    1.3229   -0.2108
    12          C       1.2608    1.2867   -0.2485
    13          C       1.8404    2.1406   -1.3687
    14          H       2.9392    2.1026   -1.3938
    15          H       1.5489    3.1977   -1.3010
    16          H       1.4909    1.7674   -2.3466
    17          N       1.7675    1.7946    1.0730
    18          O       2.3250    1.0045    1.8179
    19          O       1.6023    2.9667    1.3668
    20          N       0.6883   -3.4268   -0.9011
    21          C       2.0926   -3.6265   -0.4652
    22          C       2.3035   -4.9632    0.2678
    23          C       1.3499   -5.0599    1.4650
    24          C      -0.1011   -4.8512    1.0141
    25          C      -0.2292   -3.5141    0.2608
    26          H       1.6350    0.2210   -0.3667
    27          H       2.7454   -3.5667   -1.3620
    28          H       2.3760   -2.7786    0.1970
    29          H       3.3537   -5.0534    0.6001
    30          H       2.1316   -5.8078   -0.4246
    31          H       1.4585   -6.0419    1.9610
    32          H       1.6210   -4.3035    2.2266
    33          H      -0.7832   -4.8646    1.8836
    34          H      -0.4222   -5.6866    0.3652
    35          H      -1.2686   -3.3719   -0.1053
    36          H      -0.0059   -2.6710    0.9516
    37          H       0.4352   -4.1391   -1.5950
    38          H       0.1803   -0.6154   -2.6184
    39          H       0.8956   -1.7229   -1.8296
    40          O       1.0414   -0.8687   -2.2841


    FIRST DERIVATIVES WILL BE USED IN THE CALCULATION OF SECOND DERIVATIVES

          ESTIMATED TIME TO COMPLETE CALCULATION =      667.50 SECONDS

    FOR POINT-GROUP C1   THERE ARE   1 UNIQUE SYMMETRY FUNCTIONS.

 STEP:   1 TIME =     3.31 SECS, INTEGRAL =      3.31 TIME LEFT:1209593.91
 STEP:   2 TIME =     0.61 SECS, INTEGRAL =      3.92 TIME LEFT:1209593.30
 STEP:   3 TIME =     0.46 SECS, INTEGRAL =      4.38 TIME LEFT:1209592.84
 STEP:   4 TIME =     0.51 SECS, INTEGRAL =      4.89 TIME LEFT:1209592.33
 STEP:   5 TIME =     0.59 SECS, INTEGRAL =      5.48 TIME LEFT:1209591.74
 STEP:   6 TIME =     0.46 SECS, INTEGRAL =      5.94 TIME LEFT:1209591.28
 STEP:   7 TIME =     0.43 SECS, INTEGRAL =      6.37 TIME LEFT:1209590.85
 STEP:   8 TIME =     1.05 SECS, INTEGRAL =      7.41 TIME LEFT:1209589.80
 STEP:   9 TIME =     0.88 SECS, INTEGRAL =      8.30 TIME LEFT:1209588.92
 STEP:  10 TIME =     1.05 SECS, INTEGRAL =      9.34 TIME LEFT:1209587.88
 STEP:  11 TIME =     0.68 SECS, INTEGRAL =     10.02 TIME LEFT:1209587.20
 STEP:  12 TIME =     0.38 SECS, INTEGRAL =     10.40 TIME LEFT:1209586.82
 STEP:  13 TIME =     0.36 SECS, INTEGRAL =     10.76 TIME LEFT:1209586.46
 STEP:  14 TIME =     0.66 SECS, INTEGRAL =     11.42 TIME LEFT:1209585.80
 STEP:  15 TIME =     0.43 SECS, INTEGRAL =     11.85 TIME LEFT:1209585.37
 STEP:  16 TIME =     0.52 SECS, INTEGRAL =     12.38 TIME LEFT:1209584.84
 STEP:  17 TIME =     0.41 SECS, INTEGRAL =     12.78 TIME LEFT:1209584.44
 STEP:  18 TIME =     0.34 SECS, INTEGRAL =     13.12 TIME LEFT:1209584.10
 STEP:  19 TIME =     0.27 SECS, INTEGRAL =     13.38 TIME LEFT:1209583.84
 STEP:  20 TIME =     0.59 SECS, INTEGRAL =     13.98 TIME LEFT:1209583.24
 STEP:  21 TIME =     0.85 SECS, INTEGRAL =     14.83 TIME LEFT:1209582.39
 STEP:  22 TIME =     0.25 SECS, INTEGRAL =     15.08 TIME LEFT:1209582.14
 STEP:  23 TIME =     0.54 SECS, INTEGRAL =     15.62 TIME LEFT:1209581.60
 STEP:  24 TIME =     0.35 SECS, INTEGRAL =     15.97 TIME LEFT:1209581.25
 STEP:  25 TIME =     0.42 SECS, INTEGRAL =     16.39 TIME LEFT:1209580.83
 STEP:  26 TIME =     0.62 SECS, INTEGRAL =     17.02 TIME LEFT:1209580.20
 STEP:  27 TIME =     1.18 SECS, INTEGRAL =     18.20 TIME LEFT:1209579.02
 STEP:  28 TIME =     3.16 SECS, INTEGRAL =     21.36 TIME LEFT:1209575.86
 STEP:  29 TIME =     2.92 SECS, INTEGRAL =     24.28 TIME LEFT:1209572.94
 STEP:  30 TIME =     0.73 SECS, INTEGRAL =     25.02 TIME LEFT:1209572.20
 STEP:  31 TIME =     0.75 SECS, INTEGRAL =     25.77 TIME LEFT:1209571.45
 STEP:  32 TIME =     0.62 SECS, INTEGRAL =     26.39 TIME LEFT:1209570.83
 STEP:  33 TIME =     0.59 SECS, INTEGRAL =     26.98 TIME LEFT:1209570.24
 STEP:  34 TIME =     0.70 SECS, INTEGRAL =     27.68 TIME LEFT:1209569.54
 STEP:  35 TIME =     0.57 SECS, INTEGRAL =     28.25 TIME LEFT:1209568.97
 STEP:  36 TIME =     0.61 SECS, INTEGRAL =     28.86 TIME LEFT:1209568.36
 STEP:  37 TIME =     0.80 SECS, INTEGRAL =     29.66 TIME LEFT:1209567.55
 STEP:  38 TIME =     0.88 SECS, INTEGRAL =     30.54 TIME LEFT:1209566.68
 STEP:  39 TIME =     1.06 SECS, INTEGRAL =     31.60 TIME LEFT:1209565.62
 STEP:  40 TIME =     0.69 SECS, INTEGRAL =     32.29 TIME LEFT:1209564.93
 STEP:  41 TIME =     0.55 SECS, INTEGRAL =     32.84 TIME LEFT:1209564.38
 STEP:  42 TIME =     0.34 SECS, INTEGRAL =     33.18 TIME LEFT:1209564.04
 STEP:  43 TIME =     0.70 SECS, INTEGRAL =     33.88 TIME LEFT:1209563.34
 STEP:  44 TIME =     0.64 SECS, INTEGRAL =     34.52 TIME LEFT:1209562.70
 STEP:  45 TIME =     1.27 SECS, INTEGRAL =     35.78 TIME LEFT:1209561.44
 STEP:  46 TIME =     1.66 SECS, INTEGRAL =     37.45 TIME LEFT:1209559.77
 STEP:  47 TIME =     2.06 SECS, INTEGRAL =     39.51 TIME LEFT:1209557.71
 STEP:  48 TIME =     1.46 SECS, INTEGRAL =     40.97 TIME LEFT:1209556.25
 STEP:  49 TIME =     1.65 SECS, INTEGRAL =     42.62 TIME LEFT:1209554.60
 STEP:  50 TIME =     0.29 SECS, INTEGRAL =     42.91 TIME LEFT:1209554.31
 STEP:  51 TIME =     0.30 SECS, INTEGRAL =     43.21 TIME LEFT:1209554.01
 STEP:  52 TIME =     0.33 SECS, INTEGRAL =     43.54 TIME LEFT:1209553.68
 STEP:  53 TIME =     0.23 SECS, INTEGRAL =     43.77 TIME LEFT:1209553.45
 STEP:  54 TIME =     0.19 SECS, INTEGRAL =     43.95 TIME LEFT:1209553.27
 STEP:  55 TIME =     0.30 SECS, INTEGRAL =     44.25 TIME LEFT:1209552.97
 STEP:  56 TIME =     0.47 SECS, INTEGRAL =     44.72 TIME LEFT:1209552.50
 STEP:  57 TIME =     0.41 SECS, INTEGRAL =     45.12 TIME LEFT:1209552.09
 STEP:  58 TIME =     0.31 SECS, INTEGRAL =     45.44 TIME LEFT:1209551.78
 STEP:  59 TIME =     0.35 SECS, INTEGRAL =     45.79 TIME LEFT:1209551.43
 STEP:  60 TIME =     0.27 SECS, INTEGRAL =     46.05 TIME LEFT:1209551.16
 STEP:  61 TIME =     0.46 SECS, INTEGRAL =     46.52 TIME LEFT:1209550.70
 STEP:  62 TIME =     0.34 SECS, INTEGRAL =     46.86 TIME LEFT:1209550.36
 STEP:  63 TIME =     0.55 SECS, INTEGRAL =     47.41 TIME LEFT:1209549.80
 STEP:  64 TIME =     0.44 SECS, INTEGRAL =     47.85 TIME LEFT:1209549.37
 STEP:  65 TIME =     0.62 SECS, INTEGRAL =     48.48 TIME LEFT:1209548.74
 STEP:  66 TIME =     0.38 SECS, INTEGRAL =     48.86 TIME LEFT:1209548.36
 STEP:  67 TIME =     0.57 SECS, INTEGRAL =     49.43 TIME LEFT:1209547.79
 STEP:  68 TIME =     0.78 SECS, INTEGRAL =     50.21 TIME LEFT:1209547.01
 STEP:  69 TIME =     0.62 SECS, INTEGRAL =     50.84 TIME LEFT:1209546.38
 STEP:  70 TIME =     0.48 SECS, INTEGRAL =     51.32 TIME LEFT:1209545.90
 STEP:  71 TIME =     0.59 SECS, INTEGRAL =     51.91 TIME LEFT:1209545.31
 STEP:  72 TIME =     0.58 SECS, INTEGRAL =     52.48 TIME LEFT:1209544.73
 STEP:  73 TIME =     0.52 SECS, INTEGRAL =     53.00 TIME LEFT:1209544.22
 STEP:  74 TIME =     1.08 SECS, INTEGRAL =     54.08 TIME LEFT:1209543.14
 STEP:  75 TIME =     0.70 SECS, INTEGRAL =     54.78 TIME LEFT:1209542.44
 STEP:  76 TIME =     1.27 SECS, INTEGRAL =     56.05 TIME LEFT:1209541.17
 STEP:  77 TIME =     1.38 SECS, INTEGRAL =     57.42 TIME LEFT:1209539.80
 STEP:  78 TIME =     2.81 SECS, INTEGRAL =     60.23 TIME LEFT:1209536.98
 STEP:  79 TIME =     2.09 SECS, INTEGRAL =     62.32 TIME LEFT:1209534.90
 STEP:  80 TIME =     0.45 SECS, INTEGRAL =     62.77 TIME LEFT:1209534.45
 STEP:  81 TIME =     0.18 SECS, INTEGRAL =     62.95 TIME LEFT:1209534.27
 STEP:  82 TIME =     0.24 SECS, INTEGRAL =     63.19 TIME LEFT:1209534.03
 STEP:  83 TIME =     0.16 SECS, INTEGRAL =     63.35 TIME LEFT:1209533.87
 STEP:  84 TIME =     0.24 SECS, INTEGRAL =     63.59 TIME LEFT:1209533.62
 STEP:  85 TIME =     0.26 SECS, INTEGRAL =     63.85 TIME LEFT:1209533.37
 STEP:  86 TIME =     0.21 SECS, INTEGRAL =     64.06 TIME LEFT:1209533.16
 STEP:  87 TIME =     0.23 SECS, INTEGRAL =     64.30 TIME LEFT:1209532.92
 STEP:  88 TIME =     0.27 SECS, INTEGRAL =     64.56 TIME LEFT:1209532.66
 STEP:  89 TIME =     0.22 SECS, INTEGRAL =     64.78 TIME LEFT:1209532.44
 STEP:  90 TIME =     0.19 SECS, INTEGRAL =     64.97 TIME LEFT:1209532.25
 STEP:  91 TIME =     0.24 SECS, INTEGRAL =     65.21 TIME LEFT:1209532.01
 STEP:  92 TIME =     0.27 SECS, INTEGRAL =     65.48 TIME LEFT:1209531.74
 STEP:  93 TIME =     0.25 SECS, INTEGRAL =     65.73 TIME LEFT:1209531.49
 STEP:  94 TIME =     0.59 SECS, INTEGRAL =     66.31 TIME LEFT:1209530.91
 STEP:  95 TIME =     0.48 SECS, INTEGRAL =     66.80 TIME LEFT:1209530.42
 STEP:  96 TIME =     0.25 SECS, INTEGRAL =     67.05 TIME LEFT:1209530.17
 STEP:  97 TIME =     0.38 SECS, INTEGRAL =     67.43 TIME LEFT:1209529.79
 STEP:  98 TIME =     0.38 SECS, INTEGRAL =     67.80 TIME LEFT:1209529.41
 STEP:  99 TIME =     0.21 SECS, INTEGRAL =     68.02 TIME LEFT:1209529.20
 STEP: 100 TIME =     0.54 SECS, INTEGRAL =     68.55 TIME LEFT:1209528.66
 STEP: 101 TIME =     0.80 SECS, INTEGRAL =     69.35 TIME LEFT:1209527.87
 STEP: 102 TIME =     0.87 SECS, INTEGRAL =     70.22 TIME LEFT:1209527.00
 STEP: 103 TIME =     0.90 SECS, INTEGRAL =     71.12 TIME LEFT:1209526.10
 STEP: 104 TIME =     1.40 SECS, INTEGRAL =     72.52 TIME LEFT:1209524.70
 STEP: 105 TIME =     2.12 SECS, INTEGRAL =     74.64 TIME LEFT:1209522.58
 STEP: 106 TIME =     3.12 SECS, INTEGRAL =     77.76 TIME LEFT:1209519.46
 STEP: 107 TIME =     1.48 SECS, INTEGRAL =     79.24 TIME LEFT:1209517.98
 STEP: 108 TIME =     0.42 SECS, INTEGRAL =     79.66 TIME LEFT:1209517.55
 STEP: 109 TIME =     0.20 SECS, INTEGRAL =     79.87 TIME LEFT:1209517.35
 STEP: 110 TIME =     0.30 SECS, INTEGRAL =     80.17 TIME LEFT:1209517.05
 STEP: 111 TIME =     0.39 SECS, INTEGRAL =     80.56 TIME LEFT:1209516.66
 STEP: 112 TIME =     0.48 SECS, INTEGRAL =     81.04 TIME LEFT:1209516.18
 STEP: 113 TIME =     0.72 SECS, INTEGRAL =     81.76 TIME LEFT:1209515.46
 STEP: 114 TIME =     0.38 SECS, INTEGRAL =     82.14 TIME LEFT:1209515.08
 STEP: 115 TIME =     0.46 SECS, INTEGRAL =     82.60 TIME LEFT:1209514.62
 STEP: 116 TIME =     0.43 SECS, INTEGRAL =     83.03 TIME LEFT:1209514.19
 STEP: 117 TIME =     0.34 SECS, INTEGRAL =     83.37 TIME LEFT:1209513.85
 STEP: 118 TIME =     0.45 SECS, INTEGRAL =     83.81 TIME LEFT:1209513.41
 STEP: 119 TIME =     0.39 SECS, INTEGRAL =     84.20 TIME LEFT:1209513.02
 STEP: 120 TIME =     0.65 SECS, INTEGRAL =     84.85 TIME LEFT:1209512.37

(To convert to Hartree/Bohr^2, multiply by (10^(-21) x N x a0^2)/(4.184 x 627.51) =  0.0642)


           FORCE MATRIX IN MILLIDYNES/ANGSTROM


                  C  1       C  2       C  3       C  4       C  5       C  6
 ------------------------------------------------------------------------------
     C    1  15.141649
     C    2   5.985984  15.082376
     C    3   2.274154   5.929324  15.973889
     C    4   1.539979   2.211597   5.947611  15.250383
     C    5   2.365539   1.685445   2.372664   6.229868  14.514401
     C    6   6.102392   2.253530   1.594109   2.144415   6.118588  15.157461
     H    7   3.439335   0.735437   0.087335   0.013516   0.094326   0.741426
     H    8   0.742840   3.380240   0.743897   0.084191   0.011828   0.089219
     H    9   0.007542   0.084735   0.732518   3.377676   0.741076   0.081156
    Cl   10   0.098619   0.014620   0.083999   0.815595   2.507954   0.805778
     H   11   0.725172   0.086439   0.012647   0.076240   0.737481   3.382452
     C   12   0.090313   0.770247   3.335409   0.736800   0.095211   0.021614
     C   13   0.013950   0.029970   0.664282   0.057038   0.023409   0.007945
     H   14   0.001918   0.004648   0.044312   0.002979   0.002539   0.001221
     H   15   0.001144   0.003395   0.018728   0.018799   0.007758   0.002906
     H   16   0.001472   0.003860   0.020499   0.003602   0.007457   0.003660
     N   17   0.020763   0.048674   0.896628   0.032110   0.046485   0.022914
     O   18   0.005222   0.020384   0.088364   0.014833   0.026669   0.012619
     O   19   0.003694   0.016961   0.066980   0.027167   0.020079   0.008711
     N   20   0.003532   0.013934   0.003995   0.005165   0.006618   0.003387
     C   21   0.000887   0.001715   0.001179   0.001468   0.002320   0.000622
     C   22   0.000901   0.002384   0.000836   0.000815   0.001264   0.000723
     C   23   0.000916   0.001397   0.000286   0.000450   0.001049   0.000792
     C   24   0.000809   0.003911   0.000712   0.000827   0.001490   0.001285
     C   25   0.003814   0.010954   0.001240   0.001495   0.002308   0.001165
     H   26   0.005510   0.049821   0.667362   0.036092   0.010497   0.004646
     H   27   0.000317   0.000830   0.000452   0.000825   0.000981   0.000508
     H   28   0.000931   0.001344   0.000878   0.000620   0.000846   0.000650
     H   29   0.000430   0.000603   0.000453   0.000654   0.000973   0.000374
     H   30   0.000391   0.000800   0.000362   0.000367   0.000916   0.000574
     H   31   0.000260   0.000385   0.000192   0.000316   0.000978   0.000449
     H   32   0.000305   0.001001   0.000151   0.000209   0.000416   0.000338
     H   33   0.000511   0.001230   0.000461   0.000360   0.000921   0.000582
     H   34   0.000699   0.000548   0.000385   0.000391   0.000963   0.000723
     H   35   0.003822   0.003076   0.000806   0.000740   0.001104   0.001176
     H   36   0.001499   0.007602   0.001368   0.001238   0.001599   0.000664
     H   37   0.001483   0.002932   0.001536   0.001064   0.002041   0.001097
     H   38   0.007980   0.009585   0.004841   0.007069   0.009782   0.004055
     H   39   0.007760   0.012495   0.004853   0.007552   0.008500   0.003226
     O   40   0.016284   0.039718   0.008916   0.014265   0.017218   0.006754


                  H  7       H  8       H  9      Cl 10       H 11       C 12
 ------------------------------------------------------------------------------
     H    7   4.315405
     H    8   0.033751   4.278634
     H    9   0.011018   0.008313   4.271685
    Cl   10   0.014810   0.011924   0.046831   3.890855
     H   11   0.033360   0.009945   0.009777   0.043132   4.262684
     C   12   0.009339   0.040022   0.030743   0.013498   0.012759  12.124663
     C   13   0.004126   0.007209   0.019231   0.007685   0.006445   2.935115
     H   14   0.000585   0.001598   0.007934   0.001180   0.000610   0.686566
     H   15   0.001351   0.001138   0.026752   0.004795   0.002079   0.675197
     H   16   0.001969   0.002534   0.004666   0.003527   0.002602   0.693289
     N   17   0.011029   0.018466   0.054538   0.024543   0.013353   2.576116
     O   18   0.005569   0.009150   0.015715   0.009344   0.006932   1.015420
     O   19   0.003928   0.007328   0.025816   0.010898   0.006135   1.005083
     N   20   0.004226   0.014728   0.001569   0.004573   0.002498   0.004184
     C   21   0.001604   0.003680   0.000981   0.001874   0.000326   0.001730
     C   22   0.000954   0.003903   0.000744   0.001146   0.000631   0.002266
     C   23   0.001374   0.002020   0.000525   0.001026   0.000623   0.000969
     C   24   0.000898   0.006163   0.000627   0.001062   0.001306   0.002028
     C   25   0.007853   0.018783   0.000813   0.001684   0.001309   0.002132
     H   26   0.003053   0.028509   0.004476   0.001723   0.002830   2.987063
     H   27   0.000455   0.001461   0.000455   0.000709   0.000293   0.001295
     H   28   0.000813   0.003168   0.000290   0.000602   0.000580   0.001552
     H   29   0.000487   0.000703   0.000452   0.000759   0.000266   0.000564
     H   30   0.000368   0.001124   0.000222   0.000669   0.000404   0.000363
     H   31   0.000293   0.000352   0.000358   0.000857   0.000434   0.000482
     H   32   0.000508   0.001518   0.000147   0.000156   0.000212   0.000439
     H   33   0.000816   0.001833   0.000165   0.000508   0.000440   0.000631
     H   34   0.000871   0.000948   0.000228   0.000705   0.000393   0.000403
     H   35   0.011763   0.013076   0.000460   0.000670   0.001025   0.001225
     H   36   0.002411   0.018445   0.000400   0.001066   0.000767   0.001270
     H   37   0.002662   0.006158   0.000452   0.001520   0.000753   0.001245
     H   38   0.004196   0.030085   0.003096   0.006168   0.004035   0.015550
     H   39   0.004811   0.042296   0.002129   0.005531   0.002892   0.010024
     O   40   0.007120   0.024965   0.005511   0.009493   0.006004   0.043270


                  C 13       H 14       H 15       H 16       N 17       O 18
 ------------------------------------------------------------------------------
     C   13  11.029357
     H   14   3.357293   4.145230
     H   15   3.363962   0.450234   4.152825
     H   16   3.313454   0.450223   0.448750   4.122502
     N   17   0.753021   0.055076   0.073403   0.076161  18.916553
     O   18   0.112394   0.018407   0.025754   0.017276   9.645734  12.237985
     O   19   0.073356   0.014434   0.018489   0.014941   9.699206   2.647831
     N   20   0.008322   0.002365   0.001934   0.004711   0.011725   0.004140
     C   21   0.002297   0.001003   0.000678   0.001062   0.004249   0.002907
     C   22   0.000624   0.000631   0.000564   0.000589   0.002591   0.001355
     C   23   0.000921   0.000465   0.000509   0.000408   0.001864   0.001388
     C   24   0.001009   0.000462   0.000646   0.000636   0.003827   0.001874
     C   25   0.001775   0.000447   0.000729   0.000794   0.004788   0.002626
     H   26   0.650542   0.021299   0.041648   0.025199   0.833725   0.070222
     H   27   0.000876   0.000529   0.000294   0.000488   0.001214   0.001160
     H   28   0.001075   0.000367   0.000432   0.000622   0.003706   0.002775
     H   29   0.000852   0.000450   0.000194   0.000334   0.002947   0.001807
     H   30   0.000527   0.000207   0.000262   0.000314   0.002686   0.001428
     H   31   0.000617   0.000203   0.000350   0.000146   0.001814   0.000915
     H   32   0.000577   0.000220   0.000135   0.000407   0.002028   0.001225
     H   33   0.000963   0.000240   0.000346   0.000302   0.002904   0.001572
     H   34   0.000581   0.000220   0.000260   0.000300   0.003309   0.001814
     H   35   0.000783   0.000467   0.000208   0.000323   0.002493   0.001485
     H   36   0.001250   0.000274   0.000346   0.000631   0.003106   0.001831
     H   37   0.002282   0.000607   0.000562   0.000921   0.004868   0.003291
     H   38   0.020460   0.004133   0.003260   0.019303   0.012962   0.008621
     H   39   0.012437   0.003386   0.001951   0.009271   0.018518   0.010276
     O   40   0.046556   0.009486   0.006014   0.024469   0.041264   0.023894


                  O 19       N 20       C 21       C 22       C 23       C 24
 ------------------------------------------------------------------------------
     O   19  12.280649
     N   20   0.008941  11.843259
     C   21   0.002249   3.831774  12.113782
     C   22   0.001355   0.922311   2.705257  11.766012
     C   23   0.000857   0.042074   0.679163   2.932246  11.836146
     C   24   0.001847   0.934487   0.039544   0.681998   2.929387  11.750002
     C   25   0.002620   3.838993   0.870984   0.041592   0.678837   2.686904
     H   26   0.085097   0.009841   0.002217   0.002918   0.000902   0.002826
     H   27   0.000942   0.796749   3.243801   0.658272   0.046662   0.007962
     H   28   0.001867   0.810742   3.231163   0.676224   0.011071   0.005464
     H   29   0.001396   0.068563   0.660085   3.305191   0.668709   0.046071
     H   30   0.001134   0.017756   0.695678   3.306695   0.685266   0.010165
     H   31   0.000954   0.010084   0.045676   0.677996   3.310948   0.675981
     H   32   0.000871   0.006854   0.015241   0.685852   3.299285   0.686602
     H   33   0.001422   0.069986   0.006860   0.045548   0.667271   3.304101
     H   34   0.001395   0.017279   0.005278   0.010331   0.684704   3.307676
     H   35   0.001383   0.796095   0.078557   0.007937   0.046640   0.657047
     H   36   0.001612   0.806735   0.043614   0.004924   0.012124   0.681358
     H   37   0.001680   3.673218   0.878986   0.022827   0.004169   0.022264
     H   38   0.010642   0.052375   0.005887   0.004563   0.000832   0.004911
     H   39   0.010634   0.111887   0.086395   0.026313   0.005789   0.034406
     O   40   0.029918   0.262750   0.019678   0.015448   0.002755   0.017798


                  C 25       H 26       H 27       H 28       H 29       H 30
 ------------------------------------------------------------------------------
     C   25  12.120428
     H   26   0.002957   4.069077
     H   27   0.077842   0.001895   4.199790
     H   28   0.043037   0.002608   0.440504   4.199647
     H   29   0.006545   0.000793   0.016644   0.016361   4.224990
     H   30   0.004348   0.000665   0.016198   0.044270   0.453334   4.232978
     H   31   0.046335   0.000289   0.007086   0.002238   0.016157   0.017740
     H   32   0.014938   0.000757   0.002858   0.012284   0.017737   0.044207
     H   33   0.658391   0.000845   0.000734   0.002050   0.006702   0.002461
     H   34   0.687885   0.000678   0.001815   0.002554   0.002522   0.012303
     H   35   3.240104   0.001350   0.015158   0.003867   0.000724   0.001957
     H   36   3.231235   0.002303   0.003460   0.015821   0.001821   0.002344
     H   37   0.881657   0.002997   0.032189   0.079405   0.004446   0.017121
     H   38   0.006220   0.020728   0.003539   0.003287   0.000608   0.000967
     H   39   0.058682   0.035965   0.019955   0.019385   0.003685   0.005437
     O   40   0.026061   0.036490   0.011241   0.010611   0.001794   0.003135


                  H 31       H 32       H 33       H 34       H 35       H 36
 ------------------------------------------------------------------------------
     H   31   4.233486
     H   32   0.454006   4.228424
     H   33   0.016197   0.018974   4.225120
     H   34   0.018007   0.044632   0.454184   4.233487
     H   35   0.007278   0.003045   0.017179   0.016042   4.191031
     H   36   0.002299   0.012604   0.016851   0.044467   0.444807   4.197943
     H   37   0.003159   0.004621   0.004681   0.017070   0.031302   0.079045
     H   38   0.000466   0.000831   0.000634   0.000985   0.002790   0.003078
     H   39   0.001374   0.004949   0.003962   0.005775   0.013189   0.014410
     O   40   0.001500   0.003397   0.001708   0.003316   0.007555   0.008003


                  H 37       H 38       H 39       O 40
 ------------------------------------------------------
     H   37   4.452974
     H   38   0.005838   4.382741
     H   39   0.051912   0.772225   3.860843
     O   40   0.025250   3.961234   3.541190   6.158311


          HEAT OF FORMATION =    -102.266289 KCALS/MOLE


          TRIVIAL VIBRATIONS, SHOULD BE ZERO

   4.6218=TX  17.8447=TY  -9.2228=TZ  -3.9051=RX -18.2502=RY   8.9121=RZ


      MOLECULAR POINT GROUP   :   C1  


           EIGENVECTORS  


   Root No.       1         2         3         4         5         6         7         8

                 1 A       2 A       3 A       4 A       5 A       6 A       7 A       8 A   

                  -0.0      -0.0      -0.0       0.0       0.0       0.0       0.0       0.0
  
           1    0.0183    0.0814    0.0308   -0.1527   -0.0223   -0.0253   -0.0235   -0.0362
           2   -0.0028   -0.0888    0.0337    0.1337   -0.0276    0.1130    0.0674   -0.0093
           3    0.0432   -0.0628    0.1746   -0.0523   -0.0147   -0.0645   -0.1117    0.0670
           4    0.0194    0.0820    0.0291   -0.1538   -0.0217   -0.0263   -0.0233   -0.0369
           5   -0.0261   -0.0340    0.0627    0.0551   -0.0428    0.0952    0.0517   -0.0122
           6    0.0205   -0.1036    0.1461   -0.0748   -0.0269   -0.0746   -0.0727    0.0395
           7    0.0384    0.0339    0.0052   -0.0851   -0.0087   -0.0136   -0.0125   -0.0342
           8   -0.0385   -0.0070    0.0788    0.0166   -0.0512    0.0897    0.0455   -0.0129
           9    0.0148   -0.0113    0.0330    0.0007   -0.0115   -0.0734    0.0371    0.0055
          10    0.0585   -0.0133   -0.0185   -0.0172    0.0044   -0.0001   -0.0013   -0.0301
          11   -0.0263   -0.0344    0.0643    0.0526   -0.0434    0.0959    0.0514   -0.0109
          12    0.0366    0.1340   -0.0399    0.0897    0.0120   -0.0521    0.1071   -0.0311
          13    0.0589   -0.0111   -0.0193   -0.0204    0.0046   -0.0016   -0.0015   -0.0310
          14   -0.0033   -0.0888    0.0354    0.1300   -0.0284    0.1126    0.0654   -0.0084
          15    0.0591    0.1725   -0.0086    0.1074    0.0258   -0.0419    0.0801   -0.0087
          16    0.0389    0.0349    0.0054   -0.0865   -0.0089   -0.0133   -0.0125   -0.0334
          17    0.0079   -0.1173    0.0212    0.1736   -0.0206    0.1217    0.0736   -0.0067
          18    0.0605    0.0724    0.0913    0.0411    0.0129   -0.0491   -0.0277    0.0450
          19    0.0033    0.1169    0.0505   -0.2063   -0.0321   -0.0386   -0.0343   -0.0383
          20    0.0059   -0.1094    0.0227    0.1651   -0.0219    0.1204    0.0738   -0.0080
          21    0.0428   -0.1349    0.2479   -0.1025   -0.0262   -0.0640   -0.1975    0.1003
          22    0.0027    0.1198    0.0507   -0.2071   -0.0328   -0.0385   -0.0349   -0.0387
          23   -0.0358   -0.0131    0.0751    0.0261   -0.0493    0.0876    0.0449   -0.0131
          24    0.0059   -0.2086    0.2049   -0.1535   -0.0489   -0.0774   -0.1276    0.0401
          25    0.0750   -0.0486   -0.0392    0.0348    0.0152    0.0096    0.0077   -0.0278
          26   -0.0357   -0.0146    0.0771    0.0221   -0.0497    0.0904    0.0459   -0.0115
          27    0.0335    0.2079   -0.1210    0.1409    0.0179   -0.0410    0.1799   -0.0810
          28    0.0827   -0.0704   -0.0488    0.0656    0.0210    0.0170    0.0137   -0.0283
          29    0.0098   -0.1244    0.0201    0.1781   -0.0195    0.1230    0.0730   -0.0064
          30    0.0802    0.3353   -0.1034    0.2132    0.0584   -0.0152    0.1841   -0.0504
          31    0.0388    0.0349    0.0055   -0.0870   -0.0088   -0.0138   -0.0126   -0.0336
          32    0.0261   -0.1590   -0.0026    0.2337   -0.0080    0.1322    0.0839   -0.0042
          33    0.0704    0.0912    0.0989    0.0595    0.0220   -0.0382   -0.0430    0.0633
          34    0.0372    0.0340    0.0049   -0.0880   -0.0096   -0.0140   -0.0126   -0.0352
          35   -0.0616    0.0581    0.1038   -0.0639   -0.0667    0.0827    0.0377   -0.0208
          36   -0.0201   -0.0835   -0.0133   -0.0163   -0.0285   -0.0930    0.0684    0.0020
          37    0.0232   -0.0673   -0.0428   -0.0611   -0.0226   -0.0164   -0.0130   -0.0432
          38   -0.0647    0.1463    0.0566   -0.0816   -0.1220    0.1918   -0.1079   -0.0511
          39   -0.0300   -0.0690   -0.0735   -0.0162   -0.0778   -0.0111   -0.0441   -0.0257
          40    0.0214   -0.0642   -0.0433   -0.0636   -0.0240   -0.0178   -0.0088   -0.0610
          41   -0.0960    0.2524    0.0692   -0.1348   -0.1377    0.1637   -0.0249   -0.3962
          42   -0.0670   -0.0939   -0.1090   -0.0301   -0.0994   -0.0422    0.0238   -0.2936
          43    0.0554   -0.1693   -0.0531   -0.0124   -0.0113    0.0197   -0.1053    0.2980
          44   -0.0573    0.1159    0.0563   -0.0693   -0.1170    0.1945   -0.1211    0.0293
          45   -0.0075   -0.0308   -0.1164   -0.0042   -0.1200    0.1185   -0.2449    0.1869
          46   -0.0201   -0.0525   -0.0700   -0.0901   -0.0468   -0.0514    0.0713   -0.3883
          47   -0.0429    0.1453    0.0029   -0.0594   -0.1660    0.3194   -0.3066    0.1901
          48   -0.0227   -0.0735   -0.0438   -0.0148   -0.0537   -0.0456    0.0008    0.0074
          49    0.0745    0.0754    0.0401   -0.0418    0.0184   -0.0056   -0.0100   -0.0217
          50   -0.0756    0.0050    0.1763   -0.1053   -0.0128   -0.0511    0.2139    0.0066
          51   -0.0288   -0.0801   -0.0552   -0.0178   -0.0597   -0.0451   -0.0010   -0.0149
          52    0.0472    0.0820    0.1245   -0.0835    0.0362   -0.0584    0.1235    0.0150
          53   -0.0952   -0.0291    0.2322   -0.1454    0.0173   -0.1387    0.3437    0.0291
          54   -0.0295   -0.1212   -0.0583   -0.0294   -0.0411   -0.0990    0.0373   -0.0185
          55    0.1278    0.0993   -0.0122    0.0343    0.0243    0.0490   -0.1283   -0.0486
          56   -0.0667   -0.0031    0.1758   -0.0969   -0.0014   -0.0658    0.2201    0.0046
          57   -0.0341   -0.0351   -0.0830   -0.0075   -0.1016    0.0451   -0.0930   -0.0219
          58   -0.0540    0.0086    0.1160    0.1617    0.0658   -0.0416   -0.0781   -0.0177
          59   -0.0195   -0.0055   -0.0605   -0.0426    0.2118   -0.0483   -0.0632    0.0020
          60   -0.0392    0.0043   -0.0499   -0.0505    0.1453    0.1086    0.0083   -0.0096
          61   -0.0601   -0.0100    0.0796    0.1387    0.0490   -0.0279   -0.0610   -0.0159
          62    0.1583   -0.0295   -0.0833   -0.0631    0.1364   -0.0121   -0.0176    0.0035
          63    0.0626    0.0532    0.0549    0.0131    0.1651    0.0823   -0.0249   -0.0133
          64    0.0480   -0.0626    0.0051    0.0721   -0.0026    0.0373    0.0066   -0.0107
          65    0.1864   -0.0216   -0.0960   -0.0406    0.0330   -0.0476   -0.0129    0.0072
          66    0.0832    0.0825    0.0522    0.0732   -0.0075   -0.0016   -0.0372   -0.0087
          67   -0.0124   -0.1032   -0.0842    0.0215   -0.0415    0.0584    0.0419   -0.0078
          68    0.0921    0.0188   -0.0934    0.0309   -0.1068   -0.1554   -0.0483    0.0101
          69    0.0273    0.0534   -0.0189    0.0386   -0.0491    0.0066   -0.0123   -0.0062
          70   -0.0100   -0.0843   -0.0483    0.0452   -0.0239    0.0439    0.0232   -0.0092
          71   -0.0765    0.0452   -0.0758    0.0509   -0.0003   -0.1787   -0.1027    0.0057
          72   -0.0595    0.0048   -0.1259   -0.0280   -0.0579    0.0418    0.0230   -0.0039
          73   -0.1240   -0.0307    0.0183    0.1096    0.0397   -0.0196   -0.0504   -0.0136
          74   -0.1104    0.0344   -0.0709    0.0236    0.1047   -0.1398   -0.1065    0.0039
          75   -0.1013   -0.0236   -0.1282   -0.0869    0.1171    0.1193    0.0270   -0.0064
          76    0.0181    0.0754    0.0176   -0.1435   -0.0190   -0.0221   -0.0101   -0.0397
          77   -0.0664    0.0804    0.1032   -0.0818   -0.0736    0.0907    0.0233   -0.0265
          78   -0.0340   -0.1614    0.0264   -0.0310    0.0151   -0.2020    0.2117    0.0263
          79   -0.0043    0.0203    0.1493    0.1765    0.0798   -0.0395   -0.0843   -0.0192
          80    0.2325   -0.0589   -0.0786   -0.1161    0.2465    0.0728    0.0117    0.0010
          81    0.1083    0.0733    0.1057    0.0370    0.1953    0.0798   -0.0400   -0.0158
          82   -0.2110   -0.0129    0.0390    0.1358    0.0413   -0.0598   -0.0776   -0.0147
          83    0.1953   -0.0245   -0.0957   -0.0452    0.0426   -0.0400   -0.0106    0.0067
          84    0.0792    0.0482    0.0883   -0.0087    0.2886    0.1319   -0.0262   -0.0175
          85    0.0383   -0.0753   -0.0205    0.0565   -0.0151    0.0458    0.0189   -0.0097
          86    0.3065   -0.0385   -0.1191   -0.0570   -0.0363   -0.0263    0.0226    0.0117
          87    0.1452    0.1183    0.1267    0.1186    0.0123   -0.0229   -0.0665   -0.0107
          88    0.1803   -0.0581    0.0401    0.0767   -0.0016    0.0605    0.0172   -0.0100
          89    0.1631   -0.0298   -0.0848   -0.0627    0.1311   -0.0128   -0.0165    0.0040
          90    0.0790    0.0914    0.0295    0.0989   -0.1273   -0.0499   -0.0356   -0.0049
          91    0.0682   -0.1421   -0.1318   -0.0241   -0.0846    0.1013    0.0917   -0.0048
          92    0.1092    0.0235   -0.0979    0.0467   -0.1788   -0.1825   -0.0441    0.0123
          93    0.0438    0.0712   -0.0171    0.0802   -0.1826   -0.0557   -0.0145   -0.0026
          94   -0.1425   -0.1099   -0.1330    0.0104   -0.0404    0.0434    0.0330   -0.0076
          95    0.1307    0.0239   -0.1012    0.0529   -0.2215   -0.1935   -0.0377    0.0139
          96    0.0351    0.0507    0.0060    0.0207    0.0642    0.0493   -0.0197   -0.0099
          97   -0.0548   -0.1107   -0.1122    0.0101   -0.0462    0.0582    0.0447   -0.0075
          98   -0.1300    0.0776   -0.0740    0.1041   -0.0963   -0.2574   -0.1325    0.0058
          99   -0.0952   -0.0153   -0.1759   -0.0545   -0.0773    0.0515    0.0393   -0.0027
         100    0.1176   -0.0843   -0.0085    0.0493   -0.0344    0.0647    0.0410   -0.0082
         101   -0.1287    0.0407   -0.0697    0.0330    0.0973   -0.1530   -0.1148    0.0037
         102   -0.0554    0.0107   -0.1537   -0.0070   -0.1786   -0.0026    0.0293   -0.0018
         103   -0.1158   -0.0155    0.0488    0.1289    0.0523   -0.0307   -0.0639   -0.0153
         104   -0.2526    0.0498   -0.0676    0.0315    0.1952   -0.1592   -0.1547    0.0023
         105   -0.1803   -0.0600   -0.2167   -0.1381    0.1182    0.1453    0.0483   -0.0030
         106   -0.2850   -0.0353   -0.0406    0.1002    0.0627   -0.0422   -0.0778   -0.0120
         107   -0.0656    0.0420   -0.0756    0.0462    0.0056   -0.1656   -0.0950    0.0055
         108   -0.1049   -0.0313   -0.1038   -0.1113    0.2312    0.1566    0.0209   -0.0089
         109    0.0832    0.0148    0.1635    0.1717    0.0702   -0.0218   -0.0684   -0.0197
         110   -0.0686   -0.0121   -0.0395   -0.0568    0.2816   -0.0300   -0.0654    0.0007
         111   -0.0406    0.0089   -0.0875   -0.0387    0.0684    0.0821    0.0075   -0.0070
         112   -0.0754    0.2128   -0.0948   -0.0464   -0.0568    0.0381    0.2459    0.4366
         113    0.0532   -0.0203   -0.0880   -0.1774   -0.0130   -0.0822    0.0484    0.2127
         114   -0.0322   -0.1297    0.1544   -0.0432   -0.0869   -0.0279   -0.0426   -0.0038
         115   -0.1248    0.1200    0.0572    0.0920    0.0518   -0.0250    0.0512    0.1180
         116   -0.0111   -0.0365   -0.0198   -0.0638    0.1331   -0.0638   -0.0107    0.0152
         117   -0.0757   -0.0676    0.1101   -0.0067    0.0180    0.0559    0.0462    0.0173
         118   -0.0811    0.1850   -0.0603   -0.0207   -0.0208    0.0179    0.1745    0.3421
         119   -0.0191   -0.0588    0.0266   -0.0428    0.0764   -0.0935   -0.0045    0.0105
         120   -0.0732   -0.0870    0.1523   -0.0089   -0.1104    0.0155    0.1027    0.0820


   Root No.       9        10        11        12        13        14        15        16

                 9 A      10 A      11 A      12 A      13 A      14 A      15 A      16 A   

                   0.0       0.0       0.0       0.0       0.0       0.1       0.1       0.1
  
           1   -0.0628   -0.0404   -0.0266    0.0067    0.0048    0.0014    0.0059    0.0004
           2    0.0226    0.0138    0.0009   -0.0014   -0.0150   -0.0257   -0.0152   -0.0154
           3    0.1723    0.0487   -0.0885   -0.0166   -0.0539   -0.0444   -0.0231   -0.0297
           4   -0.0634   -0.0405   -0.0251    0.0061    0.0040    0.0018    0.0053    0.0004
           5   -0.0064   -0.0077   -0.0258    0.0051   -0.0050   -0.0249   -0.0047   -0.0106
           6    0.0656   -0.0078    0.0392   -0.0772   -0.1375   -0.0754   -0.0283   -0.0317
           7   -0.0386   -0.0205   -0.0028    0.0014   -0.0017    0.0051    0.0020    0.0021
           8   -0.0196   -0.0184   -0.0403    0.0086   -0.0005   -0.0265   -0.0023   -0.0108
           9   -0.0427   -0.0434    0.0678   -0.0816   -0.1384   -0.0837   -0.0328   -0.0442
          10   -0.0150   -0.0039    0.0160   -0.0033   -0.0093    0.0036   -0.0053   -0.0021
          11   -0.0068   -0.0093   -0.0282    0.0052   -0.0059   -0.0271   -0.0068   -0.0130
          12   -0.0909   -0.0605    0.0788   -0.0558   -0.0954   -0.0613   -0.0237   -0.0427
          13   -0.0166   -0.0048    0.0164   -0.0038   -0.0098    0.0041   -0.0054   -0.0017
          14    0.0232    0.0127   -0.0005   -0.0014   -0.0155   -0.0278   -0.0164   -0.0178
          15   -0.0148   -0.0150   -0.0468    0.0392    0.0470    0.0188    0.0083    0.0057
          16   -0.0399   -0.0232   -0.0051    0.0014   -0.0029    0.0018   -0.0005   -0.0018
          17    0.0379    0.0245    0.0126   -0.0043   -0.0195   -0.0266   -0.0194   -0.0177
          18    0.1282    0.0486   -0.1536    0.0603    0.0685    0.0213    0.0028    0.0029
          19   -0.0826   -0.0556   -0.0439    0.0095    0.0088    0.0018    0.0128    0.0041
          20    0.0340    0.0226    0.0105   -0.0036   -0.0183   -0.0259   -0.0191   -0.0170
          21    0.2798    0.0931   -0.1425   -0.0173   -0.0632   -0.0610   -0.0342   -0.0491
          22   -0.0832   -0.0568   -0.0482    0.0083    0.0058   -0.0028    0.0108    0.0016
          23   -0.0172   -0.0165   -0.0384    0.0060   -0.0046   -0.0280   -0.0010   -0.0100
          24    0.0678   -0.0212    0.1207   -0.1033   -0.1725   -0.0839   -0.0279   -0.0278
          25    0.0023    0.0098    0.0336   -0.0077   -0.0154    0.0047   -0.0109   -0.0043
          26   -0.0158   -0.0170   -0.0392    0.0085   -0.0014   -0.0280   -0.0040   -0.0126
          27   -0.1809   -0.0989    0.1730   -0.0959   -0.1508   -0.0961   -0.0372   -0.0759
          28    0.0181    0.0215    0.0461   -0.0102   -0.0190    0.0052   -0.0160   -0.0062
          29    0.0433    0.0282    0.0160   -0.0071   -0.0240   -0.0281   -0.0226   -0.0199
          30   -0.0977   -0.0300   -0.0935    0.1606    0.2453    0.1427    0.0679    0.0890
          31   -0.0405   -0.0233   -0.0048    0.0006   -0.0040    0.0019   -0.0003   -0.0013
          32    0.0599    0.0415    0.0344   -0.0101   -0.0279   -0.0267   -0.0263   -0.0201
          33    0.1941    0.0933   -0.2724    0.1345    0.1792    0.0753    0.0201    0.0273
          34   -0.0389   -0.0228   -0.0047    0.0028    0.0005    0.0059    0.0022    0.0025
          35   -0.0406   -0.0385   -0.0483    0.0143    0.0094   -0.0202   -0.0037   -0.0114
          36   -0.0629   -0.0235   -0.0138   -0.0389   -0.0723   -0.0693   -0.0285   -0.0439
          37   -0.0133    0.0328   -0.1196    0.0700    0.1042    0.0468    0.0265    0.0243
          38   -0.0098    0.0035   -0.0056   -0.0016   -0.0026   -0.0027   -0.0036   -0.0022
          39   -0.0239    0.0339   -0.0457   -0.0144   -0.0252   -0.0343   -0.0152   -0.0260
          40    0.0008    0.0377   -0.1182    0.0711    0.1059    0.0471    0.0270    0.0252
          41    0.2445    0.0559    0.1091   -0.0486   -0.0718   -0.0253   -0.0168    0.0019
          42    0.1968    0.1271   -0.0857    0.0263    0.0395   -0.0066    0.0030   -0.0011
          43   -0.2573   -0.0207   -0.2297    0.1171    0.1726    0.0659    0.0376    0.0187
          44   -0.0669   -0.0102   -0.0348    0.0115    0.0156    0.0002   -0.0013   -0.0046
          45   -0.1740    0.0221   -0.0500   -0.0154   -0.0183   -0.0203   -0.0166   -0.0322
          46    0.2620    0.1347   -0.1166    0.0938    0.1458    0.0705    0.0417    0.0479
          47   -0.1730   -0.0004   -0.0489    0.0256    0.0462    0.0205    0.0013   -0.0080
          48   -0.0591   -0.0004   -0.0303   -0.0320   -0.0573   -0.0527   -0.0225   -0.0317
          49   -0.0512   -0.0065    0.1250   -0.0729   -0.1130   -0.0277   -0.0050    0.0029
          50   -0.1038   -0.0766   -0.0988    0.0394    0.0311   -0.0490   -0.0216   -0.0437
          51   -0.0324   -0.0136   -0.0498   -0.0165   -0.0329   -0.0442   -0.0194   -0.0324
          52   -0.2621    0.5781    0.2255   -0.1087   -0.1558   -0.0350   -0.0068    0.0017
          53   -0.1923    0.0505   -0.1242    0.0570    0.0504   -0.0635   -0.0327   -0.0651
          54    0.0314   -0.3175   -0.1507    0.0275    0.0178   -0.0535   -0.0290   -0.0522
          55    0.1365   -0.5434    0.1458   -0.1084   -0.1752   -0.0484   -0.0074    0.0111
          56   -0.0681   -0.2249   -0.1141    0.0414    0.0279   -0.0594   -0.0266   -0.0506
          57   -0.0709    0.2769    0.0196   -0.0439   -0.0544   -0.0120   -0.0001    0.0016
          58   -0.0091    0.0019    0.0099   -0.0353    0.0517   -0.0237   -0.0596    0.0327
          59    0.0134    0.0110    0.0028   -0.0300   -0.0193    0.1133   -0.0547   -0.0415
          60   -0.0057    0.0038    0.0013    0.0070   -0.0055    0.0566   -0.0817   -0.0143
          61   -0.0083   -0.0001    0.0115   -0.0148    0.0320   -0.0160   -0.0495    0.0251
          62    0.0186    0.0159   -0.0058   -0.0551    0.0097    0.0058    0.0836   -0.0500
          63   -0.0044    0.0129   -0.0053   -0.0692    0.0731   -0.0180   -0.0538    0.0001
          64   -0.0009   -0.0012    0.0093    0.0416   -0.0133   -0.0443    0.0342    0.0253
          65    0.0150    0.0170    0.0010    0.0417   -0.0533   -0.0001    0.1144   -0.0297
          66   -0.0138    0.0153    0.0087    0.1012   -0.0324   -0.0223   -0.0351    0.0443
          67   -0.0016   -0.0092    0.0023   -0.0548    0.0253    0.0071   -0.0243   -0.0006
          68    0.0022    0.0141    0.0005   -0.0264   -0.0284    0.1050   -0.0363   -0.0569
          69   -0.0155    0.0088    0.0033    0.0211   -0.0006    0.0251   -0.0913    0.0204
          70   -0.0024   -0.0069    0.0054   -0.0273    0.0145    0.0090   -0.0373    0.0038
          71   -0.0012    0.0150    0.0038   -0.0604    0.0309   -0.0478    0.0942    0.0001
          72   -0.0149    0.0015   -0.0043   -0.0786    0.0580   -0.0462    0.0033    0.0372
          73   -0.0089   -0.0026    0.0176    0.0435   -0.0033   -0.0432   -0.0168    0.0225
          74    0.0032    0.0149    0.0113    0.0281   -0.0280   -0.0076    0.0662   -0.0329
          75   -0.0065    0.0005    0.0083    0.0743   -0.0488    0.0326   -0.0414   -0.0235
          76   -0.0500   -0.0341   -0.0085    0.0113    0.0156    0.0144   -0.0013   -0.0003
          77   -0.0425   -0.0380   -0.0448    0.0136    0.0098   -0.0177   -0.0070   -0.0142
          78   -0.0957   -0.0625   -0.0803   -0.0049   -0.0305   -0.0737   -0.0323   -0.0515
          79   -0.0072    0.0053    0.0060   -0.0858    0.0978   -0.0655   -0.0384    0.0303
          80    0.0297    0.0169   -0.0219   -0.2174    0.1185   -0.0422    0.1286   -0.0922
          81   -0.0029    0.0170   -0.0105   -0.1348    0.1310   -0.0592   -0.0442    0.0009
          82   -0.0153   -0.0067    0.0236    0.0768   -0.0467    0.0793   -0.1385    0.0341
          83    0.0158    0.0171   -0.0004    0.0308   -0.0444   -0.0108    0.1237   -0.0321
          84    0.0024    0.0140   -0.0174   -0.2197    0.1763   -0.0363   -0.0651   -0.0288
          85   -0.0006   -0.0033    0.0074    0.0200   -0.0064   -0.0305    0.0227    0.0173
          86    0.0192    0.0210    0.0100    0.2299   -0.1667   -0.0682    0.2556    0.0149
          87   -0.0136    0.0233    0.0186    0.2346   -0.0925   -0.0923    0.0521    0.0894
          88    0.0045    0.0067    0.0204    0.2458   -0.1194   -0.1523    0.2049    0.0856
          89    0.0190    0.0162   -0.0056   -0.0475    0.0042    0.0001    0.1004   -0.0517
          90   -0.0200    0.0145    0.0140    0.1620   -0.0780    0.0034   -0.0586    0.0576
          91    0.0027   -0.0123   -0.0020   -0.0557    0.0010    0.0810   -0.0742   -0.0360
          92   -0.0007    0.0127   -0.0006   -0.0409   -0.0389    0.1996   -0.1415   -0.0928
          93   -0.0222    0.0068    0.0021   -0.0058   -0.0147    0.1855   -0.2792   -0.0354
          94   -0.0057   -0.0140   -0.0012   -0.1469    0.0887   -0.0450    0.0119    0.0177
          95   -0.0016    0.0121   -0.0016   -0.0442   -0.0497    0.2547   -0.1960   -0.1142
          96   -0.0102    0.0125    0.0067    0.0712   -0.0025   -0.1025    0.0526    0.0693
          97   -0.0025   -0.0110   -0.0018   -0.1163    0.0717   -0.0593    0.0425    0.0303
          98   -0.0102    0.0156   -0.0038   -0.2085    0.1486   -0.1893    0.2013    0.0848
          99   -0.0151   -0.0018   -0.0102   -0.1552    0.1082   -0.1066    0.0723    0.0629
         100    0.0018   -0.0044    0.0092    0.0760   -0.0734    0.1590   -0.1815   -0.0589
         101    0.0016    0.0151    0.0109    0.0112   -0.0116   -0.0390    0.0967   -0.0208
         102   -0.0205    0.0001   -0.0154   -0.2245    0.1579   -0.1339    0.0733    0.0972
         103   -0.0102   -0.0012    0.0173    0.0334    0.0072   -0.0432   -0.0261    0.0265
         104    0.0013    0.0164    0.0317    0.2102   -0.1267   -0.0382    0.1027   -0.0590
         105   -0.0056   -0.0033    0.0192    0.1858   -0.1222    0.0185   -0.0023   -0.0472
         106   -0.0127   -0.0034    0.0400    0.2297   -0.1052   -0.1048    0.0562    0.0044
         107   -0.0005    0.0149    0.0011   -0.0648    0.0322   -0.0408    0.0918   -0.0059
         108   -0.0012    0.0008    0.0145    0.1296   -0.0908    0.0928   -0.0951   -0.0505
         109   -0.0046    0.0071    0.0007   -0.1051    0.1083   -0.0672   -0.0360    0.0406
         110    0.0138    0.0052    0.0029   -0.0478   -0.0378    0.2441   -0.1695   -0.0406
         111   -0.0077    0.0076    0.0045    0.0512   -0.0083   -0.0597    0.0261   -0.0156
         112    0.3575    0.0634   -0.0067   -0.0549   -0.1120   -0.0591    0.0284    0.0897
         113    0.1680   -0.0016    0.4051    0.2214    0.3234   -0.2235   -0.3355    0.2390
         114   -0.0042   -0.0687    0.5388    0.1888    0.4312    0.1783    0.1895   -0.3922
         115    0.1209    0.0201   -0.0560   -0.1210   -0.0521    0.2504    0.1382   -0.3565
         116    0.0050   -0.0137    0.0064   -0.0484   -0.0380    0.1364   -0.1695    0.3422
         117   -0.0150   -0.0467    0.0531   -0.1087   -0.1035    0.3711    0.2944    0.1959
         118    0.2982    0.0539    0.0325   -0.0340   -0.0282    0.0000    0.0305   -0.1592
         119   -0.0141   -0.0315    0.0604   -0.0401   -0.0026    0.1611   -0.1064    0.4020
         120    0.0066   -0.0683    0.1746   -0.0647   -0.0309    0.3274    0.3529    0.3779


   Root No.      17        18        19        20        21        22        23        24

                17 A      18 A      19 A      20 A      21 A      22 A      23 A      24 A   

                   0.1       0.1       0.1       0.1       0.2       0.2       0.3       0.3
  
           1   -0.0126    0.0049   -0.0062    0.0016    0.0228    0.1337    0.0119    0.0008
           2   -0.0064    0.0172    0.0050   -0.0007   -0.0022    0.0435    0.0085    0.0042
           3    0.0080    0.0064   -0.0328    0.0078    0.1298   -0.0319    0.0720   -0.0004
           4   -0.0062   -0.0050   -0.0045    0.0011    0.0212    0.1255    0.0098    0.0005
           5   -0.0773    0.1234   -0.0192    0.0022   -0.0055    0.1012    0.0223    0.0083
           6   -0.0364    0.0446    0.1955   -0.0238    0.0246   -0.0109   -0.1401   -0.0428
           7    0.0326   -0.0628    0.0037   -0.0004    0.0137    0.0554    0.0060    0.0011
           8   -0.1072    0.1701   -0.0263    0.0030   -0.0027    0.1337    0.0244    0.0086
           9   -0.0131    0.0304   -0.0059    0.0002   -0.0570    0.0105   -0.0533   -0.0140
          10    0.0810   -0.1375    0.0217   -0.0016    0.0245    0.0389   -0.0025   -0.0042
          11   -0.0755    0.1211   -0.0146    0.0018   -0.0012    0.1238    0.0214    0.0060
          12   -0.0171    0.0375   -0.1200    0.0311    0.1603   -0.0348   -0.1153   -0.0196
          13    0.0870   -0.1477    0.0237   -0.0022    0.0246    0.0394   -0.0036   -0.0056
          14   -0.0058    0.0156    0.0068   -0.0002    0.0027    0.0599    0.0083    0.0033
          15   -0.0189    0.0133    0.0233   -0.0011    0.0122   -0.0031   -0.0912   -0.0188
          16    0.0387   -0.0745    0.0106   -0.0002    0.0269    0.0974    0.0040   -0.0029
          17    0.0211   -0.0248    0.0157   -0.0015    0.0030    0.0222    0.0042    0.0019
          18    0.0261   -0.0258   -0.1341    0.0103   -0.0962    0.0328   -0.1315   -0.0187
          19   -0.0596    0.0752   -0.0215    0.0029    0.0260    0.1880    0.0275    0.0036
          20    0.0199   -0.0225    0.0145   -0.0019   -0.0043    0.0166   -0.0011    0.0012
          21    0.0255   -0.0023   -0.0981    0.0284    0.4213   -0.1064    0.5155    0.0750
          22   -0.0559    0.0656   -0.0123    0.0004    0.0270    0.2090    0.0184   -0.0147
          23   -0.1061    0.1622   -0.0225    0.0019   -0.0024    0.1477    0.0255    0.0048
          24   -0.0920    0.0817    0.5572   -0.0576    0.0450   -0.0127   -0.4621   -0.0839
          25    0.1355   -0.2226    0.0391   -0.0038    0.0377    0.0038   -0.0198   -0.0122
          26   -0.1056    0.1677   -0.0223    0.0029   -0.0119    0.1468    0.0323    0.0116
          27   -0.0223    0.0583   -0.3018    0.0842    0.5195   -0.1020   -0.2321   -0.0270
          28    0.1818   -0.2953    0.0574   -0.0062    0.0373   -0.0459   -0.0295   -0.0164
          29    0.0464   -0.0641    0.0186   -0.0022    0.0085    0.0123   -0.0092   -0.0051
          30   -0.0933    0.0277    0.5835   -0.0798    0.0241   -0.0302    0.2973    0.0334
          31    0.0394   -0.0759    0.0113   -0.0005    0.0290    0.0998    0.0057   -0.0040
          32    0.0744   -0.1065    0.0348   -0.0039    0.0048   -0.0287   -0.0047   -0.0022
          33    0.0700   -0.0790   -0.3108    0.0204   -0.3439    0.1120   -0.3629   -0.0323
          34    0.0344   -0.0651    0.0024   -0.0003    0.0115    0.0491    0.0077    0.0030
          35   -0.0431    0.0668   -0.0146    0.0008    0.0170    0.0717   -0.0066    0.0079
          36    0.0077   -0.0074   -0.0240   -0.0009   -0.1402    0.0511    0.0898    0.0214
          37   -0.0715    0.0975   -0.0147    0.0083    0.0728   -0.0730   -0.0437   -0.0070
          38    0.0305   -0.0516    0.0081   -0.0019    0.0106   -0.0442   -0.0200   -0.0047
          39    0.0057   -0.0077   -0.0156    0.0011   -0.1136   -0.0827    0.0617    0.0083
          40   -0.0760    0.1015   -0.0145    0.0094    0.0763   -0.0863   -0.0509   -0.0077
          41    0.0996   -0.1891    0.0343   -0.0075   -0.0600   -0.0192    0.0346   -0.0005
          42   -0.0805    0.1038   -0.0191    0.0103   -0.0851   -0.2796   -0.0023   -0.0070
          43   -0.1341    0.2148   -0.0299    0.0142    0.1282   -0.1227   -0.1005   -0.0098
          44    0.0114   -0.0189    0.0043    0.0002    0.0226   -0.0524   -0.0329   -0.0043
          45    0.0725   -0.1065   -0.0038    0.0021   -0.1444   -0.2633    0.0716   -0.0017
          46   -0.1331    0.1726   -0.0115    0.0155    0.1117   -0.2314   -0.1177   -0.0223
          47    0.0557   -0.0920    0.0163    0.0067    0.0312   -0.2590   -0.0670   -0.0190
          48    0.0148   -0.0202   -0.0203   -0.0034   -0.1395    0.0339    0.1048    0.0178
          49   -0.0488    0.0958   -0.0428   -0.0052   -0.1572   -0.0859    0.0651    0.0159
          50    0.0194   -0.0512   -0.0040    0.0090   -0.0113   -0.0974   -0.0047    0.0021
          51    0.0206   -0.0303   -0.0090   -0.0022   -0.0655    0.1549    0.0700    0.0213
          52   -0.0626    0.1249   -0.0585   -0.0065   -0.2458   -0.2013    0.1104    0.0230
          53    0.0695   -0.1505    0.0092    0.0167   -0.0200   -0.2434   -0.0141   -0.0126
          54    0.0829   -0.1539    0.0153    0.0057   -0.0117    0.0951    0.0311    0.0008
          55   -0.1251    0.2463   -0.0949   -0.0120   -0.3348   -0.2288    0.1543    0.0365
          56    0.0208   -0.0548   -0.0097    0.0110   -0.0486   -0.1834    0.0057    0.0006
          57   -0.0236    0.0594   -0.0139   -0.0143   -0.0108    0.4044    0.0733    0.0305
          58   -0.0341   -0.0227    0.0036    0.0534   -0.0044    0.0011    0.0019   -0.0085
          59   -0.0081    0.0012    0.0245    0.2067   -0.0139    0.0066    0.0169   -0.0468
          60    0.0055    0.0140    0.0101    0.1094   -0.0074    0.0057    0.0156   -0.0365
          61   -0.0336   -0.0217    0.0036    0.0539   -0.0042    0.0013    0.0032   -0.0198
          62   -0.0367   -0.0246   -0.0018   -0.0122   -0.0010   -0.0000    0.0032   -0.0679
          63   -0.0266   -0.0109   -0.0077   -0.0242   -0.0009    0.0017    0.0045   -0.0163
          64    0.0113    0.0056    0.0035    0.0291   -0.0009    0.0016    0.0006    0.0404
          65    0.0049   -0.0016    0.0049    0.0168   -0.0016    0.0002    0.0030   -0.0852
          66    0.0371    0.0238    0.0035    0.0288   -0.0023    0.0019    0.0044   -0.0640
          67   -0.0066    0.0009    0.0002    0.0051    0.0009    0.0021    0.0057   -0.0371
          68   -0.0583   -0.0346   -0.0043   -0.0320    0.0005   -0.0006    0.0004   -0.0237
          69    0.0148    0.0153   -0.0010   -0.0033   -0.0001    0.0018    0.0074   -0.1182
          70   -0.0106   -0.0016   -0.0004    0.0101   -0.0001    0.0025    0.0084   -0.0740
          71   -0.0164   -0.0185    0.0055    0.0287   -0.0022    0.0005    0.0090   -0.0769
          72    0.0563    0.0368    0.0086    0.0305    0.0003    0.0014    0.0028   -0.0305
          73   -0.0346   -0.0234   -0.0067   -0.0463    0.0025   -0.0019   -0.0061    0.0084
          74   -0.0485   -0.0334   -0.0019    0.0024   -0.0022    0.0012    0.0115   -0.0685
          75    0.0009    0.0103   -0.0025    0.0001   -0.0002    0.0028    0.0092   -0.0288
          76    0.1269   -0.2118    0.0239   -0.0028    0.0402    0.0356   -0.0086    0.0140
          77   -0.0027    0.0069   -0.0030    0.0004    0.0298    0.0593   -0.0213    0.0147
          78    0.0253   -0.0347   -0.0331   -0.0015   -0.1676    0.0392    0.1532    0.0384
          79   -0.0681   -0.0461   -0.0116   -0.0585    0.0016   -0.0021   -0.0088    0.0348
          80   -0.1114   -0.0704   -0.0291   -0.2040    0.0092   -0.0044   -0.0134    0.1057
          81   -0.0605   -0.0340   -0.0224   -0.1317    0.0049   -0.0013   -0.0064    0.0453
          82    0.0088    0.0100    0.0341    0.2966   -0.0184    0.0084    0.0252   -0.1242
          83   -0.0037   -0.0078    0.0022   -0.0038   -0.0007   -0.0006    0.0040   -0.1470
          84   -0.0884   -0.0470   -0.0265   -0.1423    0.0050   -0.0009   -0.0066    0.1441
          85    0.0080    0.0053    0.0025    0.0217   -0.0003    0.0019    0.0024    0.0171
          86    0.1122    0.0576    0.0204    0.0863   -0.0028    0.0013   -0.0055    0.0745
          87    0.0898    0.0480    0.0144    0.0940   -0.0055    0.0018   -0.0045    0.0905
          88    0.1176    0.0607    0.0203    0.1171   -0.0038    0.0027   -0.0115    0.2899
          89   -0.0342   -0.0241   -0.0009   -0.0085   -0.0015   -0.0002    0.0060   -0.1386
          90    0.0611    0.0390    0.0070    0.0414   -0.0018    0.0022    0.0030   -0.0416
          91   -0.0212   -0.0023   -0.0047   -0.0338    0.0036    0.0013   -0.0029    0.0309
          92   -0.1059   -0.0582   -0.0138   -0.0913    0.0036   -0.0022   -0.0095    0.1009
          93   -0.0664   -0.0249   -0.0169   -0.0989    0.0047   -0.0005   -0.0080    0.0843
          94    0.0066    0.0068    0.0048    0.0295    0.0005    0.0031    0.0132   -0.0849
          95   -0.1307   -0.0705   -0.0185   -0.1209    0.0052   -0.0031   -0.0165    0.1994
          96    0.0801    0.0476    0.0112    0.0734   -0.0044    0.0038    0.0200   -0.3034
          97    0.0358    0.0223    0.0108    0.0561   -0.0002    0.0022    0.0017    0.0422
          98    0.0581    0.0122    0.0253    0.0935   -0.0024   -0.0037   -0.0137    0.0800
          99    0.0992    0.0586    0.0192    0.0754   -0.0000    0.0010   -0.0043    0.0775
         100   -0.0782   -0.0305   -0.0174   -0.0537    0.0007    0.0052    0.0258   -0.2734
         101   -0.0425   -0.0329   -0.0000    0.0131   -0.0028    0.0013    0.0165   -0.1093
         102    0.1261    0.0708    0.0251    0.0850    0.0009   -0.0013   -0.0176    0.1305
         103   -0.0410   -0.0278   -0.0052   -0.0302    0.0002   -0.0013   -0.0073    0.0157
         104   -0.1207   -0.0820   -0.0292   -0.2051    0.0109   -0.0062   -0.0137    0.1042
         105   -0.0169   -0.0001   -0.0215   -0.1631    0.0099   -0.0021   -0.0058    0.0425
         106   -0.0928   -0.0668   -0.0381   -0.3243    0.0200   -0.0137   -0.0428    0.1791
         107   -0.0187   -0.0166    0.0028    0.0425   -0.0041    0.0038    0.0230   -0.1556
         108   -0.0191    0.0012    0.0019    0.0354   -0.0036    0.0024    0.0041    0.0366
         109   -0.0509   -0.0360   -0.0054   -0.0168   -0.0002   -0.0014   -0.0050   -0.0217
         110    0.0272    0.0302    0.0604    0.4990   -0.0315    0.0144    0.0262    0.0344
         111   -0.0230   -0.0100   -0.0223   -0.1550    0.0088   -0.0011    0.0093   -0.1068
         112   -0.1915   -0.0943    0.0297    0.0552    0.0006   -0.0029   -0.0086   -0.0334
         113   -0.0314    0.0027   -0.0385    0.0114    0.0045    0.0102    0.0011    0.0485
         114    0.0751    0.0512   -0.0639    0.0521   -0.0119    0.0181    0.0189    0.0443
         115    0.4840    0.3181    0.0436   -0.2052    0.0104   -0.0082   -0.0084   -0.0337
         116    0.2830    0.1541    0.0127   -0.0835    0.0356   -0.0197   -0.0802    0.2746
         117   -0.1608   -0.1502   -0.0173    0.2010    0.0205   -0.0157   -0.0916    0.3969
         118    0.0193    0.0426    0.0505    0.0294   -0.0020   -0.0023   -0.0309    0.0607
         119    0.3428    0.1923   -0.0520   -0.2761    0.0371   -0.0097    0.0264   -0.1293
         120   -0.1462   -0.1344   -0.1313   -0.1251    0.0217    0.0021    0.0959   -0.3270


   Root No.      25        26        27        28        29        30        31        32

                25 A      26 A      27 A      28 A      29 A      30 A      31 A      32 A   

                   0.3       0.3       0.3       0.4       0.6       0.6       0.7       0.7
  
           1   -0.0024   -0.0014   -0.0016    0.1084    0.0236    0.0295    0.0496    0.0012
           2    0.0015   -0.0021   -0.0002    0.0337   -0.0196   -0.0446   -0.0643   -0.0020
           3   -0.0055   -0.0013   -0.0031   -0.0185    0.2261   -0.0581   -0.0505   -0.0009
           4   -0.0023   -0.0016   -0.0016    0.0869    0.0172    0.0145    0.0415    0.0008
           5    0.0050   -0.0010    0.0001    0.0915   -0.0108    0.0012   -0.0921   -0.0016
           6   -0.0347    0.0026   -0.0024   -0.0248    0.2123   -0.0550   -0.0360   -0.0004
           7    0.0013    0.0005   -0.0003    0.0106   -0.0210   -0.0493   -0.0843   -0.0016
           8    0.0035   -0.0027   -0.0006    0.1199    0.0069    0.0374   -0.0342   -0.0007
           9   -0.0120    0.0005   -0.0015   -0.0477    0.2507   -0.0556   -0.0082   -0.0004
          10   -0.0045    0.0007   -0.0010    0.0526    0.0015   -0.0853    0.0787    0.0021
          11    0.0006   -0.0029   -0.0010    0.1443    0.0069   -0.0304    0.0474    0.0010
          12   -0.0142    0.0009   -0.0010   -0.0212    0.2615   -0.0659   -0.0476   -0.0015
          13   -0.0060    0.0005   -0.0012    0.0496    0.0038   -0.0915    0.1029    0.0026
          14   -0.0004   -0.0025   -0.0007    0.0749   -0.0020   -0.0515    0.0556    0.0007
          15   -0.0152    0.0009   -0.0015   -0.0239    0.4066   -0.1037   -0.0966   -0.0029
          16   -0.0054   -0.0008   -0.0017    0.1103    0.0214   -0.0683    0.1683    0.0039
          17   -0.0006   -0.0018   -0.0003    0.0339   -0.0134   -0.0637    0.0003   -0.0006
          18   -0.0131    0.0010   -0.0013   -0.0120    0.2496   -0.0651   -0.0631   -0.0017
          19   -0.0013   -0.0017   -0.0023    0.1861    0.0595    0.1740   -0.0194    0.0017
          20   -0.0008   -0.0022   -0.0001   -0.0005   -0.0382   -0.1347   -0.0269   -0.0023
          21    0.0461   -0.0069   -0.0028    0.0065   -0.1845    0.0455    0.0436    0.0015
          22   -0.0228   -0.0020   -0.0037    0.2375    0.0665    0.1365    0.1639    0.0027
          23    0.0004    0.0005    0.0000    0.1775    0.0146    0.0679   -0.0371   -0.0003
          24   -0.0509    0.0119    0.0038    0.0336   -0.2735    0.0475    0.0115    0.0021
          25   -0.0113    0.0012   -0.0013    0.0138    0.0178   -0.2068    0.4049    0.0098
          26    0.0052   -0.0032   -0.0009    0.1779    0.0073    0.0345   -0.1315   -0.0031
          27   -0.0127    0.0026    0.0019    0.0552   -0.3567    0.0787    0.0330    0.0014
          28   -0.0136    0.0025   -0.0009   -0.1206    0.1417    0.6892   -0.1277   -0.0018
          29   -0.0073   -0.0018   -0.0008   -0.0195    0.0803    0.3888   -0.0923   -0.0025
          30    0.0178   -0.0024   -0.0005    0.0019   -0.1559    0.0437    0.0380    0.0011
          31   -0.0068   -0.0010   -0.0020    0.1184    0.0292   -0.0711    0.1870    0.0043
          32   -0.0035   -0.0015   -0.0002    0.0043   -0.0414   -0.2643    0.0740    0.0008
          33   -0.0123    0.0044    0.0031    0.0387   -0.3866    0.0914    0.0749    0.0021
          34    0.0037    0.0007    0.0001   -0.0159   -0.0464   -0.0851   -0.1647   -0.0037
          35    0.0094   -0.0034    0.0010   -0.2249    0.0044    0.0441    0.0837    0.0011
          36    0.0166   -0.0009    0.0005   -0.0500   -0.0202    0.0086    0.0197    0.0002
          37   -0.0040    0.0001   -0.0003   -0.0415   -0.0401   -0.0494   -0.1439   -0.0036
          38   -0.0028   -0.0018    0.0003   -0.1283    0.0054    0.0080    0.0541    0.0004
          39    0.0042   -0.0001   -0.0004    0.0382   -0.0131    0.0151    0.0306    0.0006
          40   -0.0040    0.0003   -0.0001   -0.0483   -0.0363   -0.0538   -0.1528   -0.0039
          41   -0.0021   -0.0007    0.0000    0.0168   -0.0791   -0.0813   -0.2413   -0.0071
          42   -0.0081    0.0006   -0.0006    0.0572    0.1106    0.1349    0.4767    0.0119
          43   -0.0022   -0.0008    0.0004   -0.2588    0.0221   -0.0261   -0.0057   -0.0018
          44   -0.0012   -0.0021    0.0005   -0.1997    0.0234    0.0206    0.1165    0.0014
          45   -0.0081    0.0031   -0.0012    0.3952   -0.0593   -0.0368   -0.2777   -0.0058
          46   -0.0144    0.0013    0.0000   -0.0146    0.0243   -0.0489   -0.1962   -0.0042
          47   -0.0146    0.0013    0.0003    0.0702    0.0437    0.0227    0.1056    0.0039
          48    0.0109   -0.0017   -0.0006   -0.0372   -0.0482    0.0104    0.0319   -0.0005
          49    0.0130   -0.0003    0.0004   -0.0384   -0.0236   -0.0357   -0.0755   -0.0017
          50    0.0036   -0.0010    0.0001   -0.1105   -0.0041    0.0271    0.0591    0.0011
          51    0.0185   -0.0012    0.0012   -0.1067   -0.0347   -0.0132   -0.0220   -0.0007
          52    0.0176   -0.0004    0.0003   -0.0121   -0.0516   -0.0064   -0.0215   -0.0005
          53   -0.0130    0.0008   -0.0020    0.0834    0.0200   -0.0155   -0.0079   -0.0006
          54   -0.0024    0.0006   -0.0014    0.0626    0.0035   -0.0804   -0.1373   -0.0033
          55    0.0290   -0.0021    0.0014   -0.1819   -0.0958    0.0389    0.0477    0.0009
          56    0.0007   -0.0006   -0.0002   -0.0600   -0.0040    0.0282    0.0633    0.0010
          57    0.0288   -0.0048    0.0019   -0.3635   -0.0642    0.0190    0.0293    0.0004
          58   -0.0101   -0.0734    0.0410   -0.0009   -0.0016   -0.0001    0.0004   -0.0100
          59   -0.0699   -0.0080   -0.0320   -0.0053   -0.0025   -0.0004   -0.0001   -0.0257
          60   -0.0683   -0.0176    0.1643   -0.0039   -0.0007   -0.0007   -0.0003   -0.0306
          61   -0.0032   -0.1051    0.1012   -0.0008   -0.0006   -0.0002    0.0001   -0.0015
          62    0.0495   -0.1438    0.0267    0.0002   -0.0006    0.0001   -0.0005    0.0077
          63   -0.0182    0.0168    0.0419   -0.0012   -0.0016    0.0001   -0.0008    0.0388
          64   -0.0511    0.0561    0.0675   -0.0007    0.0002   -0.0002    0.0001   -0.0043
          65    0.0803   -0.1432   -0.0227    0.0010   -0.0006    0.0004   -0.0003   -0.0006
          66    0.0544   -0.0122   -0.0510    0.0001   -0.0018    0.0005   -0.0005    0.0377
          67    0.0234    0.0794   -0.0266   -0.0002    0.0019   -0.0004    0.0001   -0.0083
          68    0.0200   -0.0007    0.0146   -0.0006   -0.0009    0.0003    0.0016   -0.0611
          69    0.1108    0.0110   -0.1207    0.0005   -0.0004    0.0003    0.0006   -0.0207
          70    0.0552    0.1057   -0.0626   -0.0004    0.0012   -0.0004   -0.0004    0.0265
          71    0.0369    0.1534    0.0281   -0.0027   -0.0012   -0.0003    0.0007   -0.0004
          72    0.0176   -0.0202   -0.0100   -0.0005    0.0019   -0.0005   -0.0014    0.0255
          73    0.0260   -0.0592   -0.0729    0.0006    0.0010   -0.0005   -0.0008    0.0239
          74    0.0070    0.1440    0.0777   -0.0029   -0.0012   -0.0003   -0.0003    0.0091
          75   -0.0296    0.0045    0.1007   -0.0021    0.0020   -0.0010   -0.0018    0.0296
          76    0.0232    0.0040    0.0045   -0.2532   -0.1148   -0.2017   -0.2559   -0.0048
          77    0.0206   -0.0013    0.0033   -0.3094   -0.0027   -0.0000    0.0621    0.0010
          78    0.0311   -0.0010    0.0026   -0.0210   -0.1608    0.0354   -0.0581   -0.0003
          79    0.0114   -0.0760   -0.0695    0.0005   -0.0013    0.0004   -0.0023    0.1734
          80   -0.0667    0.0223   -0.0260   -0.0004   -0.0009   -0.0002    0.0039   -0.2435
          81   -0.0211    0.0677   -0.1008   -0.0004   -0.0021    0.0004   -0.0025    0.1549
          82   -0.0325   -0.2244    0.3289   -0.0050   -0.0013   -0.0012    0.0024   -0.1911
          83    0.1498   -0.2671    0.0005    0.0019   -0.0002    0.0002   -0.0041    0.2034
          84   -0.1489    0.2441   -0.0475   -0.0021   -0.0019    0.0003    0.0027   -0.1377
          85   -0.0284    0.0876    0.0328   -0.0005    0.0008   -0.0001    0.0021   -0.0992
          86   -0.0594    0.0460   -0.1111    0.0002   -0.0009    0.0007    0.0048   -0.2165
          87   -0.0977   -0.0198    0.0482   -0.0017   -0.0036    0.0002   -0.0054    0.2775
          88   -0.2967    0.2315    0.1522   -0.0032   -0.0005   -0.0006   -0.0005    0.0517
          89    0.1176   -0.2822    0.0390    0.0010   -0.0007   -0.0000   -0.0049    0.2168
          90    0.0491    0.1306   -0.1474    0.0003   -0.0016    0.0010    0.0055   -0.2501
          91   -0.0110   -0.1143   -0.0382    0.0026    0.0036    0.0002   -0.0041    0.0419
          92   -0.0812   -0.0122    0.0528   -0.0009   -0.0009    0.0003    0.0002    0.0033
          93   -0.0561    0.0370   -0.0637   -0.0006   -0.0007    0.0001   -0.0013    0.0974
          94    0.0390    0.2787   -0.0231   -0.0030    0.0023   -0.0016    0.0034   -0.0385
          95   -0.1696   -0.0535    0.1259   -0.0015   -0.0006    0.0000   -0.0016    0.0458
          96    0.2760   -0.0113   -0.2235    0.0021   -0.0008    0.0009    0.0021   -0.0946
          97   -0.0599    0.0640    0.0103   -0.0012    0.0017   -0.0007   -0.0056    0.2340
          98   -0.0331   -0.0306   -0.1202   -0.0019   -0.0015    0.0003    0.0074   -0.2342
          99   -0.0852   -0.0766    0.0448   -0.0012    0.0024   -0.0009   -0.0054    0.1835
         100    0.2236    0.2663   -0.1516    0.0004   -0.0001    0.0000    0.0059   -0.1819
         101    0.0217    0.2530    0.1376   -0.0057   -0.0017   -0.0014   -0.0050    0.2453
         102   -0.0625   -0.2509   -0.1122    0.0028    0.0030    0.0008    0.0030   -0.1960
         103    0.0128   -0.0982   -0.0275    0.0006    0.0009   -0.0003    0.0014   -0.0744
         104   -0.0511   -0.0103   -0.0195    0.0018   -0.0010    0.0019    0.0060   -0.2327
         105   -0.0169    0.0200   -0.1136    0.0007    0.0045   -0.0008   -0.0067    0.2272
         106    0.0447   -0.1881   -0.3550    0.0050    0.0041   -0.0010   -0.0026    0.0887
         107    0.0674    0.2997    0.1162   -0.0031    0.0002   -0.0007   -0.0061    0.1965
         108   -0.1173   -0.1568    0.1175   -0.0041   -0.0009   -0.0006    0.0061   -0.2278
         109    0.0545   -0.2167    0.1002    0.0029   -0.0009    0.0006    0.0011   -0.0320
         110   -0.2525    0.0148   -0.3945   -0.0152   -0.0084   -0.0018   -0.0050    0.0905
         111    0.0776    0.0148    0.4780    0.0036    0.0040    0.0002    0.0033   -0.1176
         112   -0.0379   -0.0079   -0.0114   -0.0025   -0.0073    0.0001   -0.0004   -0.0010
         113    0.0422    0.0132    0.0231    0.0091    0.0130    0.0019    0.0032    0.0022
         114    0.0520   -0.0005   -0.0051    0.0078    0.0147    0.0013    0.0026   -0.0000
         115   -0.0220   -0.0097    0.0089    0.0116   -0.0022    0.0010    0.0016   -0.0008
         116    0.3266    0.0465    0.0750    0.0385    0.0195    0.0050    0.0056    0.0048
[...]
 FREQUENCY          1369.79         C  2 -- H  8         +10.2% ( 41.5%)      0.5%
 TRANSITION DIPOLE   0.3750         C  1 -- C  6          +9.6% ( 40.3%)     93.2%
 TRAVEL (Ang.)       0.2779         C  2 -- C  3          +9.1% ( 39.1%)     99.4%
 REDUCED MASS        0.6372         C  4 -- C  5          +9.0% ( 39.0%)     99.3%
 EFFECTIVE MASS      5.3852
 FORCE CONSTANT      0.7044

 VIBRATION         83   83A           ATOM PAIR      ENERGY CONTRIBUTION    RADIAL
 FREQUENCY          1372.69         C 13 -- H 14         +19.4% ( 47.1%)      0.6%
 TRANSITION DIPOLE   0.9515         C 13 -- H 15         +17.5% ( 44.7%)      1.1%
 TRAVEL (Ang.)       0.4180         C 13 -- H 16         +15.6% ( 42.2%)      0.6%
 REDUCED MASS        0.2811         C  3 -- C 12          +7.2% ( 28.6%)     84.5%
 EFFECTIVE MASS      3.2251
 FORCE CONSTANT      0.3121

 VIBRATION         84   84A           ATOM PAIR      ENERGY CONTRIBUTION    RADIAL
 FREQUENCY          1385.30         C 25 -- H 35         +14.9% ( 43.2%)      0.4%
 TRANSITION DIPOLE   0.4435         C 25 -- H 36         +13.4% ( 40.9%)      0.0%
 TRAVEL (Ang.)       0.4192         C 21 -- H 27         +11.0% ( 37.2%)      0.3%
 REDUCED MASS        0.2770         C 21 -- H 28         +10.4% ( 36.0%)      0.0%
 EFFECTIVE MASS      3.2375
 FORCE CONSTANT      0.3132

 VIBRATION         85   85A           ATOM PAIR      ENERGY CONTRIBUTION    RADIAL
 FREQUENCY          1386.41         C 23 -- H 31         +18.4% ( 47.0%)      0.0%
 TRANSITION DIPOLE   0.4144         C 22 -- H 29         +13.2% ( 39.8%)      0.2%
 TRAVEL (Ang.)       0.3973         C 23 -- H 32         +12.0% ( 38.1%)      0.0%
 REDUCED MASS        0.3081         C 22 -- H 30          +9.5% ( 33.8%)      0.0%
 EFFECTIVE MASS      2.8276
 FORCE CONSTANT      0.3489

 VIBRATION         86   86A           ATOM PAIR      ENERGY CONTRIBUTION    RADIAL
 FREQUENCY          1396.68         H 39 -- O 40         +58.2% ( 61.5%)      7.8%
 TRANSITION DIPOLE   0.9332         H 38 -- O 40         +39.6% ( 50.8%)      9.0%
 TRAVEL (Ang.)       0.3025         C 21 -- H 27          +0.4% (  4.8%)      0.3%
 REDUCED MASS        0.5275         C 21 -- H 28          +0.3% (  4.3%)      1.0%
 EFFECTIVE MASS      1.6635
 FORCE CONSTANT      0.6062

 VIBRATION         87   87A           ATOM PAIR      ENERGY CONTRIBUTION    RADIAL
 FREQUENCY          1493.74         N 20 -- H 37         +82.5% ( 92.8%)      0.0%
 TRANSITION DIPOLE   0.3948         N 20 -- C 25          +4.3% ( 21.1%)     33.8%
 TRAVEL (Ang.)       0.2389         N 20 -- C 21          +4.2% ( 21.0%)     35.4%
 REDUCED MASS        0.7909         C 25 -- H 36          +1.7% ( 13.2%)     42.3%
 EFFECTIVE MASS      2.0683
 FORCE CONSTANT      1.0398

 VIBRATION         88   88A           ATOM PAIR      ENERGY CONTRIBUTION    RADIAL
 FREQUENCY          1498.44         N 17 -- O 18         +32.2% ( 76.7%)     69.6%
 TRANSITION DIPOLE   3.8178         N 17 -- O 19         +30.0% ( 74.0%)     65.5%
 TRAVEL (Ang.)       0.0970         O 18 -- O 19         +20.0% ( 60.5%)    100.0%
 REDUCED MASS        4.7853         C 12 -- N 17         +13.6% ( 49.9%)     99.9%
 EFFECTIVE MASS     14.8613
 FORCE CONSTANT      6.3305

 VIBRATION         89   89A           ATOM PAIR      ENERGY CONTRIBUTION    RADIAL
 FREQUENCY          1520.04         C  4 -- C  5         +12.2% ( 48.8%)     98.9%
 TRANSITION DIPOLE   1.8817         C  5 -- C  6         +12.1% ( 48.6%)     28.3%
 TRAVEL (Ang.)       0.1772         C  1 -- C  6         +12.0% ( 48.4%)     28.3%
 REDUCED MASS        1.4130         C  6 -- H 11         +11.6% ( 47.5%)      0.0%
 EFFECTIVE MASS      9.8365         C  1 -- C  2         +10.5% ( 45.1%)     99.5%
 FORCE CONSTANT      1.9235

 VIBRATION         90   90A           ATOM PAIR      ENERGY CONTRIBUTION    RADIAL
 FREQUENCY          1556.45         C  2 -- C  3         +16.4% ( 56.5%)     65.4%
 TRANSITION DIPOLE   1.0255         C  3 -- C  4         +13.8% ( 51.9%)     63.1%
 TRAVEL (Ang.)       0.1723         C  3 -- C 12          +8.8% ( 41.4%)     99.9%
 REDUCED MASS        1.4601         C  1 -- C  2          +8.7% ( 41.3%)      0.2%
 EFFECTIVE MASS     10.0486
 FORCE CONSTANT      2.0840

 VIBRATION         91   91A           ATOM PAIR      ENERGY CONTRIBUTION    RADIAL
 FREQUENCY          1679.04         N 17 -- O 19         +33.6% ( 82.2%)     89.9%
 TRANSITION DIPOLE  10.1341         N 17 -- O 18         +32.8% ( 81.2%)     88.5%
 TRAVEL (Ang.)       0.0830         C 12 -- N 17         +19.9% ( 63.2%)      0.1%
 REDUCED MASS        5.8346         O 18 -- O 19          +5.9% ( 34.4%)      0.1%
 EFFECTIVE MASS     14.3703
 FORCE CONSTANT      9.6913

 VIBRATION         92   92A           ATOM PAIR      ENERGY CONTRIBUTION    RADIAL
 FREQUENCY          1685.63         C  3 -- C  4         +17.7% ( 59.1%)     99.6%
 TRANSITION DIPOLE   4.2980         C  1 -- C  6         +15.9% ( 56.1%)    100.0%
 TRAVEL (Ang.)       0.1331         C  2 -- C  3         +10.9% ( 46.5%)     50.7%
 REDUCED MASS        2.2591         C  1 -- C  2          +8.4% ( 40.6%)     36.6%
 EFFECTIVE MASS     12.1580
 FORCE CONSTANT      3.7819

 VIBRATION         93   93A           ATOM PAIR      ENERGY CONTRIBUTION    RADIAL
 FREQUENCY          1717.15         C  4 -- C  5         +18.4% ( 60.0%)     91.7%
 TRANSITION DIPOLE   0.6378         C  5 -- C  6         +16.4% ( 56.5%)     83.7%
 TRAVEL (Ang.)       0.1241         C  1 -- C  2         +13.1% ( 50.7%)     93.4%
 REDUCED MASS        2.5499         C  2 -- C  3         +11.9% ( 48.3%)     83.7%
 EFFECTIVE MASS     11.9852
 FORCE CONSTANT      4.4299

 VIBRATION         94   94A           ATOM PAIR      ENERGY CONTRIBUTION    RADIAL
 FREQUENCY          1913.23         C 12 -- H 26         +89.6% ( 99.2%)    100.0%
 TRANSITION DIPOLE   1.0142         C 12 -- N 17          +3.2% ( 18.7%)      0.8%
 TRAVEL (Ang.)       0.1443         C 12 -- C 13          +3.1% ( 18.5%)      7.9%
 REDUCED MASS        1.6919         C  3 -- C 12          +3.1% ( 18.4%)      7.6%
 EFFECTIVE MASS      2.9530
 FORCE CONSTANT      3.6489

 VIBRATION         95   95A           ATOM PAIR      ENERGY CONTRIBUTION    RADIAL
 FREQUENCY          2575.65         H 39 -- O 40         +86.1% ( 94.6%)     98.0%
 TRANSITION DIPOLE   2.6591         H 38 -- O 40         +12.9% ( 36.6%)     90.0%
 TRAVEL (Ang.)       0.1849         N 20 -- H 37          +0.6% (  8.2%)     99.0%
 REDUCED MASS        0.7657
 EFFECTIVE MASS      1.4684
 FORCE CONSTANT      2.9927

 VIBRATION         96   96A           ATOM PAIR      ENERGY CONTRIBUTION    RADIAL
 FREQUENCY          2641.53         C 25 -- H 36         +43.3% ( 68.2%)     98.4%
 TRANSITION DIPOLE   0.3622         C 25 -- H 35         +37.7% ( 63.7%)     98.2%
 TRAVEL (Ang.)       0.2698         C 24 -- H 34          +8.0% ( 29.3%)     98.7%
 REDUCED MASS        0.3507         C 24 -- H 33          +4.2% ( 21.4%)     97.9%
 EFFECTIVE MASS      1.4280
 FORCE CONSTANT      1.4418

 VIBRATION         97   97A           ATOM PAIR      ENERGY CONTRIBUTION    RADIAL
 FREQUENCY          2642.92         C 13 -- H 16         +67.1% ( 84.6%)     99.7%
 TRANSITION DIPOLE   1.0100         C 13 -- H 14         +16.1% ( 41.5%)     85.9%
 TRAVEL (Ang.)       0.2230         C 13 -- H 15         +14.5% ( 39.3%)     84.4%
 REDUCED MASS        0.5131         C 12 -- C 13          +0.9% (  9.7%)      0.1%
 EFFECTIVE MASS      1.4463
 FORCE CONSTANT      2.1116

 VIBRATION         98   98A           ATOM PAIR      ENERGY CONTRIBUTION    RADIAL
 FREQUENCY          2643.32         C 21 -- H 28         +42.1% ( 67.3%)     98.5%
 TRANSITION DIPOLE   0.5009         C 21 -- H 27         +35.6% ( 61.9%)     98.0%
 TRAVEL (Ang.)       0.2789         C 22 -- H 30          +9.5% ( 32.0%)     98.7%
 REDUCED MASS        0.3279         C 22 -- H 29          +5.3% ( 23.9%)     97.8%
 EFFECTIVE MASS      1.4240
 FORCE CONSTANT      1.3497

 VIBRATION         99   99A           ATOM PAIR      ENERGY CONTRIBUTION    RADIAL
 FREQUENCY          2651.75         C 13 -- H 15         +50.6% ( 73.5%)     98.2%
 TRANSITION DIPOLE   0.9801         C 13 -- H 14         +46.9% ( 70.7%)     97.7%
 TRAVEL (Ang.)       0.2272         C 12 -- C 13          +0.9% (  9.8%)      0.1%
 REDUCED MASS        0.4926         C 13 -- H 16          +0.9% (  9.6%)      0.2%
 EFFECTIVE MASS      1.4530
 FORCE CONSTANT      2.0407

 VIBRATION        100  100A           ATOM PAIR      ENERGY CONTRIBUTION    RADIAL
 FREQUENCY          2652.28         C 23 -- H 32         +30.1% ( 56.9%)     98.6%
 TRANSITION DIPOLE   0.5507         C 23 -- H 31         +20.9% ( 47.4%)     97.6%
 TRAVEL (Ang.)       0.3875         C 24 -- H 34          +9.7% ( 32.3%)     98.3%
 REDUCED MASS        0.1693         C 24 -- H 33          +7.7% ( 28.7%)     98.1%
 EFFECTIVE MASS      1.4234
 FORCE CONSTANT      0.7016

 VIBRATION        101  101A           ATOM PAIR      ENERGY CONTRIBUTION    RADIAL
 FREQUENCY          2662.63         C 24 -- H 33         +24.2% ( 50.9%)     98.2%
 TRANSITION DIPOLE   0.2644         C 24 -- H 34         +21.7% ( 48.2%)     98.0%
 TRAVEL (Ang.)       0.3593         C 22 -- H 29         +20.6% ( 46.9%)     98.2%
 REDUCED MASS        0.1962         C 22 -- H 30         +19.2% ( 45.3%)     98.1%
 EFFECTIVE MASS      1.4423
 FORCE CONSTANT      0.8194

 VIBRATION        102  102A           ATOM PAIR      ENERGY CONTRIBUTION    RADIAL
 FREQUENCY          2670.41         C 23 -- H 31         +25.4% ( 51.9%)     98.4%
 TRANSITION DIPOLE   0.9897         C 22 -- H 29         +18.0% ( 43.7%)     98.6%
 TRAVEL (Ang.)       0.3812         C 23 -- H 32         +17.5% ( 43.1%)     97.6%
 REDUCED MASS        0.1737         C 24 -- H 33         +13.6% ( 38.0%)     98.6%
 EFFECTIVE MASS      1.4612         C 22 -- H 30         +11.6% ( 35.1%)     97.3%
 FORCE CONSTANT      0.7299

 VIBRATION        103  103A           ATOM PAIR      ENERGY CONTRIBUTION    RADIAL
 FREQUENCY          2715.70         C  6 -- H 11         +81.1% ( 91.0%)    100.0%
 TRANSITION DIPOLE   1.5798         C  4 -- H  9          +7.3% ( 27.3%)    100.0%
 TRAVEL (Ang.)       0.1960         C  2 -- H  8          +4.5% ( 21.3%)     99.9%
 REDUCED MASS        0.6463         C 25 -- H 35          +1.8% ( 13.5%)     97.1%
 EFFECTIVE MASS      1.3716
 FORCE CONSTANT      2.8082

 VIBRATION        104  104A           ATOM PAIR      ENERGY CONTRIBUTION    RADIAL
 FREQUENCY          2717.27         C  2 -- H  8         +34.9% ( 59.0%)    100.0%
 TRANSITION DIPOLE   0.5390         C 25 -- H 35         +25.3% ( 50.2%)     97.1%
 TRAVEL (Ang.)       0.3270         C 25 -- H 36         +21.5% ( 46.3%)     95.8%
 REDUCED MASS        0.2321         C  6 -- H 11          +4.3% ( 20.8%)     99.9%
 EFFECTIVE MASS      1.2954
 FORCE CONSTANT      1.0098

 VIBRATION        105  105A           ATOM PAIR      ENERGY CONTRIBUTION    RADIAL
 FREQUENCY          2723.18         C  4 -- H  9         +77.8% ( 89.0%)    100.0%
 TRANSITION DIPOLE   1.3804         C  6 -- H 11          +6.5% ( 25.8%)    100.0%
 TRAVEL (Ang.)       0.2044         C  1 -- H  7          +3.9% ( 19.9%)     99.9%
 REDUCED MASS        0.5929         C 25 -- H 36          +3.1% ( 17.8%)     96.7%
 EFFECTIVE MASS      1.3837
 FORCE CONSTANT      2.5903

 VIBRATION        106  106A           ATOM PAIR      ENERGY CONTRIBUTION    RADIAL
 FREQUENCY          2725.53         C 21 -- H 27         +42.8% ( 64.5%)     97.1%
 TRANSITION DIPOLE   0.7954         C 21 -- H 28         +37.4% ( 60.2%)     96.2%
 TRAVEL (Ang.)       0.2755         C 25 -- H 36          +4.0% ( 19.8%)     97.3%
 REDUCED MASS        0.3259         C 25 -- H 35          +3.3% ( 17.9%)     95.2%
 EFFECTIVE MASS      1.2355
 FORCE CONSTANT      1.4262

 VIBRATION        107  107A           ATOM PAIR      ENERGY CONTRIBUTION    RADIAL
 FREQUENCY          2726.32         C  2 -- H  8         +44.6% ( 66.7%)    100.0%
 TRANSITION DIPOLE   0.9772         C 25 -- H 35         +14.4% ( 37.9%)     97.1%
 TRAVEL (Ang.)       0.3201         C 25 -- H 36         +13.0% ( 36.0%)     96.2%
 REDUCED MASS        0.2414         C  1 -- H  7          +9.9% ( 31.5%)     99.8%
 EFFECTIVE MASS      1.3154
 FORCE CONSTANT      1.0570

 VIBRATION        108  108A           ATOM PAIR      ENERGY CONTRIBUTION    RADIAL
 FREQUENCY          2740.78         C 23 -- H 31         +27.4% ( 51.6%)     98.1%
 TRANSITION DIPOLE   0.7331         C 23 -- H 32         +19.0% ( 43.0%)     95.6%
 TRAVEL (Ang.)       0.3892         N 20 -- H 37         +14.2% ( 37.2%)     99.6%
 REDUCED MASS        0.1625         C 24 -- H 33         +13.0% ( 35.6%)     98.2%
 EFFECTIVE MASS      1.2289
 FORCE CONSTANT      0.7190

 VIBRATION        109  109A           ATOM PAIR      ENERGY CONTRIBUTION    RADIAL
 FREQUENCY          2742.43         C  1 -- H  7         +76.6% ( 88.3%)    100.0%
 TRANSITION DIPOLE   1.2870         C  2 -- H  8         +10.1% ( 32.0%)     99.8%
 TRAVEL (Ang.)       0.2051         C  6 -- H 11          +5.4% ( 23.5%)     99.7%
 REDUCED MASS        0.5843         C  4 -- H  9          +3.5% ( 18.9%)    100.0%
 EFFECTIVE MASS      1.4221
 FORCE CONSTANT      2.5893

 VIBRATION        110  110A           ATOM PAIR      ENERGY CONTRIBUTION    RADIAL
 FREQUENCY          2743.76         C 24 -- H 34         +26.1% ( 50.3%)     97.0%
 TRANSITION DIPOLE   0.5525         C 24 -- H 33         +22.1% ( 46.3%)     95.7%
 TRAVEL (Ang.)       0.3842         C 22 -- H 29         +14.1% ( 37.0%)     97.0%
 REDUCED MASS        0.1665         C 22 -- H 30         +13.1% ( 35.6%)     96.4%
 EFFECTIVE MASS      1.2546
 FORCE CONSTANT      0.7385

 VIBRATION        111  111A           ATOM PAIR      ENERGY CONTRIBUTION    RADIAL
 FREQUENCY          2744.02         N 20 -- H 37         +34.7% ( 58.4%)     99.5%
 TRANSITION DIPOLE   0.5075         C 23 -- H 32         +16.6% ( 40.3%)     96.6%
 TRAVEL (Ang.)       0.3482         C 22 -- H 30         +16.1% ( 39.7%)     96.9%
 REDUCED MASS        0.2026         C 23 -- H 31         +14.3% ( 37.4%)     95.6%
 EFFECTIVE MASS      1.2936         C 22 -- H 29         +13.0% ( 35.7%)     95.3%
 FORCE CONSTANT      0.8989

 VIBRATION        112  112A           ATOM PAIR      ENERGY CONTRIBUTION    RADIAL
 FREQUENCY          2748.65         N 20 -- H 37         +34.0% ( 57.7%)     99.3%
 TRANSITION DIPOLE   1.1622         C 22 -- H 30         +15.6% ( 39.1%)     97.0%
 TRAVEL (Ang.)       0.3686         C 24 -- H 34         +14.9% ( 38.2%)     97.0%
 REDUCED MASS        0.1806         C 22 -- H 29         +11.0% ( 32.8%)     94.8%
 EFFECTIVE MASS      1.3219         C 24 -- H 33         +10.3% ( 31.7%)     94.6%
 FORCE CONSTANT      0.8039

 VIBRATION        113  113A           ATOM PAIR      ENERGY CONTRIBUTION    RADIAL
 FREQUENCY          2769.44         C 13 -- H 14         +36.0% ( 57.4%)     96.0%
 TRANSITION DIPOLE   0.6661         C 13 -- H 15         +33.7% ( 55.6%)     95.5%
 TRAVEL (Ang.)       0.2729         C 13 -- H 16         +29.8% ( 52.3%)     94.5%
 REDUCED MASS        0.3269         C 12 -- C 13          +0.3% (  4.8%)     99.6%
 EFFECTIVE MASS      1.1389
 FORCE CONSTANT      1.4772

 VIBRATION        114  114A           ATOM PAIR      ENERGY CONTRIBUTION    RADIAL
 FREQUENCY          2805.01         H 38 -- O 40         +90.2% ( 92.4%)     99.5%
 TRANSITION DIPOLE   0.8994         H 39 -- O 40          +9.5% ( 29.9%)     95.5%
 TRAVEL (Ang.)       0.1787
 REDUCED MASS        0.7530
 EFFECTIVE MASS      1.2329
 FORCE CONSTANT      3.4908

      SYMMETRY NUMBER FOR POINT-GROUP C1  =  1


          SYSTEM IS A GROUND STATE



 Title: ASE calculation


          MOLECULE IS NOT LINEAR

          THERE ARE  114 GENUINE VIBRATIONS IN THIS SYSTEM
          THIS THERMODYNAMICS CALCULATION IS LIMITED TO
          MOLECULES WHICH HAVE NO INTERNAL ROTATIONS




                    CALCULATED THERMODYNAMIC PROPERTIES
                                          *
   TEMP. (K)   PARTITION FUNCTION   H.O.F.    ENTHALPY  HEAT CAPACITY ENTROPY
                                   KCAL/MOL   CAL/MOLE    CAL/K/MOL  CAL/K/MOL


 298.00  VIB.     0.1874D+12                 12436.7390    73.2131    93.3147
         ROT.     0.8840D+07                   888.2803     2.9808    34.7658
         INT.     0.1657D+19                 13325.0193    76.1939   128.0805
         TRA.     0.4769D+28                  1480.4672     4.9680    42.8872
         TOT.                     -102.266   14805.4865    81.1619   170.9677

   *: NOTE: HEATS OF FORMATION ARE RELATIVE TO THE
            ELEMENTS IN THEIR STANDARD STATE AT 298K
              (=  Standard Enthalpy of Formation).

            Hvib:  Zero-point energy is not included.
                   frequencies of less than zero cm-1 are not included.
            Hrot = (3/2)RT
            Htra = (3/2)RT + pV = (5/2)RT

            Heat capacity is Cp, not Cv

          For more information, see: HTTP://OpenMOPAC.net/Manual/thermochemistry.html


           FORCE CONSTANT IN CARTESIAN COORDINATES (Millidynes/A)

    ATOM   CHEMICAL       X               Y               Z
   NUMBER   SYMBOL  FORCE CONSTANT  FORCE CONSTANT  FORCE CONSTANT

      1       C       10.908582       10.189426        2.362287
      2       C       10.968823       10.082734        2.373274
      3       C       10.598986       11.547900        2.770137
      4       C       11.182879       10.100536        2.330061
      5       C       10.987809        9.048282        1.877131
      6       C        9.934493       11.229164        2.303161
      7       H        1.748744        3.367602        0.381917
      8       H        1.713852        3.383859        0.400058
      9       H        1.743369        3.349835        0.383812
     10      Cl        1.304334        3.040162        0.151415
     11       H        4.131640        0.900167        0.390217
     12       C        7.408328        7.319325        6.216841
     13       C        6.299877        6.463616        6.335907
     14       H        4.046578        0.600251        0.658683
     15       H        0.809567        3.836572        0.672326
     16       H        0.898974        0.963896        3.419622
     17       N        5.444505       14.299823        9.361689
     18       O        2.791942        6.097939        5.049468
     19       O        0.832796       11.394679        1.801328
     20       N        8.147749        4.656284        7.083878
     21       C        7.392302        6.628274        6.933890
     22       C        6.890551        6.710763        6.757537
     23       C        6.903356        6.650071        6.934816
     24       C        6.960822        6.686150        6.680152
     25       C        7.255668        6.638242        7.079014
     26       H        1.202051        3.518095        0.906064
     27       H        2.034041        0.707053        2.828874
     28       H        1.093228        2.721826        1.825114
     29       H        3.793525        0.736570        1.026255
     30       H        0.728949        2.786049        2.096506
     31       H        0.866112        3.289525        1.442243
     32       H        1.050775        2.149020        2.405904
     33       H        2.093147        0.710132        2.758367
     34       H        1.074814        2.734829        1.802129
     35       H        3.683933        0.777660        1.117337
     36       H        0.812318        2.709533        2.107633
     37       H        1.385436        1.981941        2.564912
     38       H        3.301094        0.831695        0.750696
     39       H        0.650322        2.962386        1.032612
     40       O        3.760565        3.482161        1.492192

 **********************
 *                    *
 * JOB ENDED NORMALLY *
 *                    *
 **********************



 TOTAL JOB TIME:            88.17 SECONDS

 == MOPAC DONE ==
