 *******************************************************************************
 **                                                                           **
 **                              MOPAC v22.0.6                                **
 **                                                                           **
 *******************************************************************************
 **          Digital Object Identifier (DOI): 10.5281/zenodo.6511958          **
 **    Visit the DOI location for information on how to cite this program.    **
 *******************************************************************************

                              PM7 CALCULATION RESULTS

 *******************************************************************************
 *  CALCULATION DONE:                                Mon Mar 25 23:02:33 2024  *
 *  PM7        - The PM7 Hamiltonian to be used
 *  SINGLET    - SPIN STATE DEFINED AS A SINGLET
 *
 *
 *
 *                 CHARGE ON SYSTEM = 0
 *
 *
 *
 *  EPS=78.4   - USE ANDREAS KLAMT'S COSMO IMPLICIT SOLVATION MODEL
 *  LET        - OVERRIDE SOME SAFETY CHECKS
 *  THREADS    - USE A MAXIMUM OF 30 THREADS
 *  T=         - A TIME OF 14.0 DAYS REQUESTED
 *  DUMP=N     - RESTART FILE WRITTEN EVERY 30.0 MINUTES REQUESTED
 *  RELSCF     - DEFAULT SCF CRITERION MULTIPLIED BY 1.0000
 *              (DEFAULT SCF CRITERION = 0.00010)
 *  ITRY=      - DO A MAXIMUM OF 15000 ITERATIONS FOR SCF
 *  AUX        - OUTPUT AUXILIARY INFORMATION
 *  ISOTOPE    - SAVE THE FORCE MATRIX FOR USE LATER
 *  BONDS      - FINAL BOND-ORDER MATRIX TO BE PRINTED
 *  LARGE      - EXPANDED OUTPUT TO BE PRINTED
 *  THERMO     - THERMODYNAMIC QUANTITIES TO BE CALCULATED
 *******************************************************************************
PM7 AUX LARGE THERMO(298,298) LET ISOTOPE BONDS DUMP=30M ITRY=15000 T=14D THREADS=30 CHARGE=0 SINGLET eps=78.4 RELSCF=1
 Title: ASE calculation

   ATOM   CHEMICAL          X               Y               Z
  NUMBER   SYMBOL      (ANGSTROMS)     (ANGSTROMS)     (ANGSTROMS)

     1       C          1.52805269  *   2.67463475  *  -1.65655357  *
     2       C          1.85152455  *   1.32653320  *  -1.53175708  *
     3       C          1.26617180  *   0.52967897  *  -0.54335934  *
     4       C          0.31544562  *   1.08983707  *   0.31447448  *
     5       C          0.00473059  *   2.43222618  *   0.15572923  *
     6       C          0.59037401  *   3.24893827  *  -0.80102523  *
     7       H          2.01301226  *   3.28022349  *  -2.42704819  *
     8       H          2.57992870  *   0.89517600  *  -2.21867041  *
     9       H         -0.16391340  *   0.47873255  *   1.08157017  *
    10      Cl         -1.17378972  *   3.11845938  *   1.20237592  *
    11       H          0.33213222  *   4.30471821  *  -0.89426542  *
    12       C          1.69315082  *  -0.89196407  *  -0.42658520  *
    13       C          2.31367179  *  -1.25968996  *   0.90449786  *
    14       H          2.63168564  *  -2.31319155  *   0.93211936  *
    15       H          1.63158179  *  -1.09970661  *   1.75093889  *
    16       H          3.21400577  *  -0.65575848  *   1.09161646  *
    17       N          0.68148597  *  -1.82412431  *  -0.84058851  *
    18       O          0.90689663  *  -3.03322298  *  -0.79224509  *
    19       O         -0.39217800  *  -1.42058003  *  -1.28668788  *
    20       N          4.25105890  *  -0.30107123  *  -4.20896950  *
    21       C          4.26201848  *  -1.69734846  *  -4.74818742  *
    22       C          4.27661646  *  -1.73873851  *  -6.27852975  *
    23       C          3.08518985  *  -0.95545123  *  -6.83871522  *
    24       C          3.11869495  *   0.48523099  *  -6.32002794  *
    25       C          3.12674837  *   0.50099551  *  -4.78637006  *
    26       D          2.75799464  *  -1.01701271  *  -1.26694673  *
    27       H          5.15390126  *  -2.21913856  *  -4.33252036  *
    28       H          3.36348737  *  -2.22620706  *  -4.35366072  *
    29       H          4.24831544  *  -2.78990193  *  -6.62494995  *
    30       H          5.22527896  *  -1.32471277  *  -6.67020525  *
    31       H          3.10529627  *  -0.96705601  *  -7.94466659  *
    32       H          2.13323297  *  -1.44516619  *  -6.55187551  *
    33       H          2.24100394  *   1.04993271  *  -6.69231817  *
    34       H          4.00147960  *   1.01697179  *  -6.72146984  *
    35       H          3.21605068  *   1.54816447  *  -4.41555464  *
    36       H          2.16543849  *   0.09231841  *  -4.39894651  *
    37       H          5.15147622  *   0.16612757  *  -4.40161199  *
    38       H          4.33931432  *  -0.13689534  *  -1.20016799  *
    39       H          4.09842502  *  -0.45091696  *  -2.90502728  *
    40       O          3.97366415  *  -0.82328930  *  -1.75458564  *


                                Isotopes Used

              Atom:   26  H  Default mass  1.0079,  mass used:  2.0140 amu


          CARTESIAN COORDINATES 

    NO.       ATOM           X           Y           Z

     1         C          1.5281      2.6746     -1.6566
     2         C          1.8515      1.3265     -1.5318
     3         C          1.2662      0.5297     -0.5434
     4         C          0.3154      1.0898      0.3145
     5         C          0.0047      2.4322      0.1557
     6         C          0.5904      3.2489     -0.8010
     7         H          2.0130      3.2802     -2.4270
     8         H          2.5799      0.8952     -2.2187
     9         H         -0.1639      0.4787      1.0816
    10        Cl         -1.1738      3.1185      1.2024
    11         H          0.3321      4.3047     -0.8943
    12         C          1.6932     -0.8920     -0.4266
    13         C          2.3137     -1.2597      0.9045
    14         H          2.6317     -2.3132      0.9321
    15         H          1.6316     -1.0997      1.7509
    16         H          3.2140     -0.6558      1.0916
    17         N          0.6815     -1.8241     -0.8406
    18         O          0.9069     -3.0332     -0.7922
    19         O         -0.3922     -1.4206     -1.2867
    20         N          4.2511     -0.3011     -4.2090
    21         C          4.2620     -1.6973     -4.7482
    22         C          4.2766     -1.7387     -6.2785
    23         C          3.0852     -0.9555     -6.8387
    24         C          3.1187      0.4852     -6.3200
    25         C          3.1267      0.5010     -4.7864
    26         H          2.7580     -1.0170     -1.2669
    27         H          5.1539     -2.2191     -4.3325
    28         H          3.3635     -2.2262     -4.3537
    29         H          4.2483     -2.7899     -6.6249
    30         H          5.2253     -1.3247     -6.6702
    31         H          3.1053     -0.9671     -7.9447
    32         H          2.1332     -1.4452     -6.5519
    33         H          2.2410      1.0499     -6.6923
    34         H          4.0015      1.0170     -6.7215
    35         H          3.2161      1.5482     -4.4156
    36         H          2.1654      0.0923     -4.3989
    37         H          5.1515      0.1661     -4.4016
    38         H          4.3393     -0.1369     -1.2002
    39         H          4.0984     -0.4509     -2.9050
    40         O          3.9737     -0.8233     -1.7546

 General Reference for PM7:
 "Optimization of Parameters for Semiempirical Methods VI: More Modifications to the 
 NDDO Approximations and Re-optimization of Parameters", J. J. P. Stewart, J. Mol. Mod., 1:32, 19 (2013)
 https://link.springer.com/article/10.1007/s00894-012-1667-x

           Empirical Formula: C13 H21 N2 O3 Cl  =    40 atoms



      MOLECULAR POINT GROUP   :   C1  


 SINGLET STATE CALCULATION


      RHF CALCULATION, NO. OF DOUBLY OCCUPIED LEVELS = 54

  SCF CRITERION =    0.1000E-03


          HEAT OF FORMATION =     -89.785688 KCALS/MOLE


          CARTESIAN COORDINATE DERIVATIVES

   NUMBER  ATOM         X            Y            Z

     1       C      1.196212     0.482835    -0.152742
     2       C      0.762654     0.177749     0.550032
     3       C      0.552740    -0.055472     0.551638
     4       C     -0.293506     0.021716     0.319161
     5       C     -0.058265    -0.290720     0.084730
     6       C      0.105034    -0.980114    -0.460796
     7       H      0.336402    -0.988042    -0.218988
     8       H      0.524557     0.269768    -0.000185
     9       H     -0.262658     0.068935     0.134079
    10      Cl      0.142292    -0.452181     0.100297
    11       H     -0.028860    -0.249691     0.014385
    12       C     -0.646497     7.662818     2.463776
    13       C      0.180432    -1.006410     0.273303
    14       H      0.251752     0.007491     0.083174
    15       H      0.470503     0.193686    -0.313268
    16       H      0.472404    -0.461073     0.389407
    17       N     -0.369741     1.488796    -1.429132
    18       O      0.717376    -0.492045     0.428673
    19       O     -0.925007     2.254941     1.263870
    20       N      1.285217     0.975928    -0.618375
    21       C     -0.588426     0.316837    -0.996014
    22       C      0.158940     0.504108    -0.075933
    23       C     -0.181533     0.185275     0.067027
    24       C      0.055070     0.024760    -0.245989
    25       C     -0.708901    -0.738954     0.192709
    26       H      1.400086   -11.113261    -5.074561
    27       H     -0.132609    -0.062007    -0.345204
    28       H     -0.516711     0.194562    -0.388306
    29       H     -0.142153     0.349004    -0.219430
    30       H     -0.012849     0.169221     0.083115
    31       H      0.184676     0.047357     0.074018
    32       H      0.028756     0.220168     0.107209
    33       H      0.209090     0.206440     0.098638
    34       H     -0.005897     0.105502     0.481598
    35       H     -0.541229    -0.132201     0.117035
    36       H     -0.284492    -0.055334    -0.256497
    37       H     -0.754951    -0.703458    -0.857444
    38       H     -1.438229     1.533065    -1.510813
    39       H     -1.897356    -5.147930     1.948460
    40       O      0.755824     5.468191     3.337526

 DIPOLE           X         Y         Z       TOTAL
 POINT-CHG.    -3.172   -13.761    -3.865    14.642
 HYBRID        -0.301     0.042     0.164     0.346
 SUM           -3.474   -13.719    -3.701    14.628


          GRADIENT NORM =  18.15684



 ** GRADIENT IS VERY LARGE, BUT SINCE "LET" IS USED, CALCULATION WILL CONTINUE


                              **** WARNING ****

           GRADIENT IS VERY LARGE FOR A THERMO CALCULATION
           RESULTS ARE LIKELY TO BE INACCURATE IF THERE ARE
           ANY LOW-LYING VIBRATIONS (LESS THAN ABOUT 400CM-1)
           GRADIENT NORM SHOULD BE LESS THAN ABOUT 1.3 FOR THERMO
           TO GIVE ACCURATE RESULTS


          TIME FOR SCF CALCULATION =    3.95

          TIME FOR DERIVATIVES     =    0.05

          MOLECULAR WEIGHT =  289.78



          ROTATIONAL CONSTANTS IN CM(-1)

          A =    0.01570442   B =    0.00540245   C =    0.00458458



           PRINCIPAL MOMENTS OF INERTIA IN UNITS OF 10**(-40)*GRAM-CM**2

          A =     1782.4762   B =     5181.4917   C =     6105.8527


          ORIENTATION OF MOLECULE IN FORCE CALCULATION

    NO.       ATOM         X         Y         Z

     1          C      -2.4083    0.1083   -0.6022
     2          C      -1.0163    0.1083   -0.6022
     3          C      -0.2920    1.3041   -0.6022
     4          C      -0.9785    2.5211   -0.5696
     5          C      -2.3651    2.4873   -0.5564
     6          C      -3.1057    1.3142   -0.5812
     7          H      -2.9512   -0.8407   -0.6197
     8          H      -0.4909   -0.8469   -0.6079
     9          H      -0.4293    3.4644   -0.5528
    10         Cl      -3.2097    3.9837   -0.5036
    11          H      -4.1966    1.3208   -0.5804
    12          C       1.1945    1.2385   -0.6565
    13          C       1.8142    1.9047   -1.8665
    14          H       2.9109    1.8096   -1.8709
    15          H       1.5766    2.9755   -1.9314
    16          H       1.4553    1.4336   -2.7937
    17          N       1.8251    1.6308    0.5733
    18          O       3.0528    1.6224    0.6612
    19          O       1.1448    1.9308    1.5540
    20          N       0.8776   -3.3418   -0.3118
    21          C       2.1840   -3.6538    0.3487
    22          C       2.0903   -4.8415    1.3101
    23          C       1.0046   -4.5856    2.3602
    24          C      -0.3364   -4.3211    1.6692
    25          C      -0.2123   -3.1430    0.6949
    26          H       1.4877   -0.0716   -0.8872
    27          H       2.9339   -3.8533   -0.4503
    28          H       2.5228   -2.7406    0.8910
    29          H       3.0707   -5.0074    1.7970
    30          H       1.8747   -5.7749    0.7560
    31          H       0.9214   -5.4515    3.0436
    32          H       1.2834   -3.7251    3.0006
    33          H      -1.1206   -4.1004    2.4203
    34          H      -0.6822   -5.2299    1.1423
    35          H      -1.1724   -2.9965    0.1485
    36          H      -0.0051   -2.2054    1.2598
    37          H       0.6171   -4.0953   -0.9679
    38          H       1.0088   -1.0869   -2.3083
    39          H       1.1041   -2.2267   -0.9835
    40          O       1.5389   -1.2299   -1.5268


    FIRST DERIVATIVES WILL BE USED IN THE CALCULATION OF SECOND DERIVATIVES

          ESTIMATED TIME TO COMPLETE CALCULATION =      958.12 SECONDS

    FOR POINT-GROUP C1   THERE ARE   1 UNIQUE SYMMETRY FUNCTIONS.

 STEP:   1 TIME =     0.65 SECS, INTEGRAL =      0.65 TIME LEFT:1209595.36
 STEP:   2 TIME =     0.27 SECS, INTEGRAL =      0.92 TIME LEFT:1209595.09
 STEP:   3 TIME =     0.43 SECS, INTEGRAL =      1.35 TIME LEFT:1209594.66
 STEP:   4 TIME =     0.46 SECS, INTEGRAL =      1.81 TIME LEFT:1209594.20
 STEP:   5 TIME =     0.21 SECS, INTEGRAL =      2.02 TIME LEFT:1209593.98
 STEP:   6 TIME =     0.30 SECS, INTEGRAL =      2.33 TIME LEFT:1209593.68
 STEP:   7 TIME =     0.41 SECS, INTEGRAL =      2.73 TIME LEFT:1209593.27
 STEP:   8 TIME =     0.25 SECS, INTEGRAL =      2.98 TIME LEFT:1209593.02
 STEP:   9 TIME =     0.33 SECS, INTEGRAL =      3.31 TIME LEFT:1209592.70
 STEP:  10 TIME =     0.30 SECS, INTEGRAL =      3.61 TIME LEFT:1209592.40
 STEP:  11 TIME =     0.31 SECS, INTEGRAL =      3.92 TIME LEFT:1209592.09
 STEP:  12 TIME =     0.31 SECS, INTEGRAL =      4.23 TIME LEFT:1209591.77
 STEP:  13 TIME =     0.77 SECS, INTEGRAL =      5.00 TIME LEFT:1209591.01
 STEP:  14 TIME =     0.36 SECS, INTEGRAL =      5.36 TIME LEFT:1209590.65
 STEP:  15 TIME =     0.20 SECS, INTEGRAL =      5.55 TIME LEFT:1209590.45
 STEP:  16 TIME =     0.14 SECS, INTEGRAL =      5.70 TIME LEFT:1209590.31
 STEP:  17 TIME =     0.14 SECS, INTEGRAL =      5.84 TIME LEFT:1209590.17
 STEP:  18 TIME =     0.16 SECS, INTEGRAL =      6.00 TIME LEFT:1209590.01
 STEP:  19 TIME =     0.17 SECS, INTEGRAL =      6.17 TIME LEFT:1209589.84
 STEP:  20 TIME =     0.20 SECS, INTEGRAL =      6.37 TIME LEFT:1209589.64
 STEP:  21 TIME =     0.18 SECS, INTEGRAL =      6.55 TIME LEFT:1209589.46
 STEP:  22 TIME =     0.20 SECS, INTEGRAL =      6.75 TIME LEFT:1209589.26
 STEP:  23 TIME =     0.33 SECS, INTEGRAL =      7.08 TIME LEFT:1209588.93
 STEP:  24 TIME =     0.32 SECS, INTEGRAL =      7.40 TIME LEFT:1209588.61
 STEP:  25 TIME =     0.44 SECS, INTEGRAL =      7.84 TIME LEFT:1209588.17
 STEP:  26 TIME =     0.34 SECS, INTEGRAL =      8.18 TIME LEFT:1209587.83
 STEP:  27 TIME =     0.27 SECS, INTEGRAL =      8.45 TIME LEFT:1209587.56
 STEP:  28 TIME =     0.51 SECS, INTEGRAL =      8.95 TIME LEFT:1209587.05
 STEP:  29 TIME =     0.48 SECS, INTEGRAL =      9.43 TIME LEFT:1209586.58
 STEP:  30 TIME =     0.34 SECS, INTEGRAL =      9.77 TIME LEFT:1209586.23
 STEP:  31 TIME =     0.59 SECS, INTEGRAL =     10.36 TIME LEFT:1209585.65
 STEP:  32 TIME =     0.52 SECS, INTEGRAL =     10.88 TIME LEFT:1209585.13
 STEP:  33 TIME =     0.83 SECS, INTEGRAL =     11.70 TIME LEFT:1209584.30
 STEP:  34 TIME =     0.62 SECS, INTEGRAL =     12.33 TIME LEFT:1209583.68
 STEP:  35 TIME =     0.59 SECS, INTEGRAL =     12.91 TIME LEFT:1209583.09
 STEP:  36 TIME =     0.45 SECS, INTEGRAL =     13.36 TIME LEFT:1209582.65
 STEP:  37 TIME =     0.45 SECS, INTEGRAL =     13.81 TIME LEFT:1209582.20
 STEP:  38 TIME =     0.40 SECS, INTEGRAL =     14.21 TIME LEFT:1209581.80
 STEP:  39 TIME =     0.38 SECS, INTEGRAL =     14.59 TIME LEFT:1209581.41
 STEP:  40 TIME =     0.47 SECS, INTEGRAL =     15.06 TIME LEFT:1209580.95
 STEP:  41 TIME =     0.26 SECS, INTEGRAL =     15.32 TIME LEFT:1209580.69
 STEP:  42 TIME =     0.51 SECS, INTEGRAL =     15.83 TIME LEFT:1209580.18
 STEP:  43 TIME =     0.93 SECS, INTEGRAL =     16.76 TIME LEFT:1209579.25
 STEP:  44 TIME =     0.84 SECS, INTEGRAL =     17.60 TIME LEFT:1209578.41
 STEP:  45 TIME =     2.66 SECS, INTEGRAL =     20.26 TIME LEFT:1209575.75
 STEP:  46 TIME =     1.50 SECS, INTEGRAL =     21.76 TIME LEFT:1209574.25
 STEP:  47 TIME =     1.31 SECS, INTEGRAL =     23.07 TIME LEFT:1209572.94
 STEP:  48 TIME =     1.37 SECS, INTEGRAL =     24.44 TIME LEFT:1209571.57
 STEP:  49 TIME =     0.67 SECS, INTEGRAL =     25.11 TIME LEFT:1209570.90
 STEP:  50 TIME =     0.73 SECS, INTEGRAL =     25.84 TIME LEFT:1209570.17
 STEP:  51 TIME =     0.49 SECS, INTEGRAL =     26.33 TIME LEFT:1209569.68
 STEP:  52 TIME =     0.32 SECS, INTEGRAL =     26.65 TIME LEFT:1209569.36
 STEP:  53 TIME =     0.34 SECS, INTEGRAL =     26.98 TIME LEFT:1209569.02
 STEP:  54 TIME =     0.33 SECS, INTEGRAL =     27.31 TIME LEFT:1209568.70
 STEP:  55 TIME =     0.63 SECS, INTEGRAL =     27.95 TIME LEFT:1209568.06
 STEP:  56 TIME =     0.45 SECS, INTEGRAL =     28.39 TIME LEFT:1209567.62
 STEP:  57 TIME =     0.50 SECS, INTEGRAL =     28.89 TIME LEFT:1209567.12
 STEP:  58 TIME =     0.50 SECS, INTEGRAL =     29.39 TIME LEFT:1209566.62
 STEP:  59 TIME =     0.75 SECS, INTEGRAL =     30.14 TIME LEFT:1209565.87
 STEP:  60 TIME =     0.68 SECS, INTEGRAL =     30.82 TIME LEFT:1209565.19
 STEP:  61 TIME =     0.49 SECS, INTEGRAL =     31.31 TIME LEFT:1209564.70
 STEP:  62 TIME =     0.23 SECS, INTEGRAL =     31.54 TIME LEFT:1209564.47
 STEP:  63 TIME =     0.38 SECS, INTEGRAL =     31.91 TIME LEFT:1209564.09
 STEP:  64 TIME =     0.34 SECS, INTEGRAL =     32.25 TIME LEFT:1209563.76
 STEP:  65 TIME =     0.45 SECS, INTEGRAL =     32.70 TIME LEFT:1209563.31
 STEP:  66 TIME =     0.21 SECS, INTEGRAL =     32.91 TIME LEFT:1209563.10
 STEP:  67 TIME =     2.02 SECS, INTEGRAL =     34.93 TIME LEFT:1209561.08
 STEP:  68 TIME =     2.28 SECS, INTEGRAL =     37.21 TIME LEFT:1209558.80
 STEP:  69 TIME =     2.39 SECS, INTEGRAL =     39.60 TIME LEFT:1209556.41
 STEP:  70 TIME =     0.91 SECS, INTEGRAL =     40.51 TIME LEFT:1209555.50
 STEP:  71 TIME =     0.47 SECS, INTEGRAL =     40.98 TIME LEFT:1209555.03
 STEP:  72 TIME =     0.53 SECS, INTEGRAL =     41.51 TIME LEFT:1209554.50
 STEP:  73 TIME =     0.72 SECS, INTEGRAL =     42.23 TIME LEFT:1209553.78
 STEP:  74 TIME =     0.39 SECS, INTEGRAL =     42.62 TIME LEFT:1209553.39
 STEP:  75 TIME =     0.28 SECS, INTEGRAL =     42.90 TIME LEFT:1209553.11
 STEP:  76 TIME =     0.26 SECS, INTEGRAL =     43.16 TIME LEFT:1209552.85
 STEP:  77 TIME =     0.26 SECS, INTEGRAL =     43.41 TIME LEFT:1209552.59
 STEP:  78 TIME =     0.20 SECS, INTEGRAL =     43.62 TIME LEFT:1209552.39
 STEP:  79 TIME =     0.20 SECS, INTEGRAL =     43.82 TIME LEFT:1209552.19
 STEP:  80 TIME =     0.20 SECS, INTEGRAL =     44.02 TIME LEFT:1209551.98
 STEP:  81 TIME =     0.14 SECS, INTEGRAL =     44.16 TIME LEFT:1209551.84
 STEP:  82 TIME =     0.20 SECS, INTEGRAL =     44.36 TIME LEFT:1209551.65
 STEP:  83 TIME =     0.23 SECS, INTEGRAL =     44.59 TIME LEFT:1209551.42
 STEP:  84 TIME =     0.21 SECS, INTEGRAL =     44.80 TIME LEFT:1209551.21
 STEP:  85 TIME =     0.22 SECS, INTEGRAL =     45.02 TIME LEFT:1209550.99
 STEP:  86 TIME =     0.34 SECS, INTEGRAL =     45.36 TIME LEFT:1209550.65
 STEP:  87 TIME =     0.52 SECS, INTEGRAL =     45.88 TIME LEFT:1209550.13
 STEP:  88 TIME =     0.78 SECS, INTEGRAL =     46.66 TIME LEFT:1209549.35
 STEP:  89 TIME =     0.66 SECS, INTEGRAL =     47.32 TIME LEFT:1209548.69
 STEP:  90 TIME =     0.55 SECS, INTEGRAL =     47.87 TIME LEFT:1209548.14
 STEP:  91 TIME =     0.34 SECS, INTEGRAL =     48.21 TIME LEFT:1209547.80
 STEP:  92 TIME =     0.63 SECS, INTEGRAL =     48.84 TIME LEFT:1209547.16
 STEP:  93 TIME =     0.45 SECS, INTEGRAL =     49.29 TIME LEFT:1209546.72
 STEP:  94 TIME =     0.35 SECS, INTEGRAL =     49.64 TIME LEFT:1209546.37
 STEP:  95 TIME =     1.33 SECS, INTEGRAL =     50.97 TIME LEFT:1209545.04
 STEP:  96 TIME =     0.70 SECS, INTEGRAL =     51.67 TIME LEFT:1209544.34
 STEP:  97 TIME =     2.27 SECS, INTEGRAL =     53.95 TIME LEFT:1209542.06
 STEP:  98 TIME =     2.55 SECS, INTEGRAL =     56.49 TIME LEFT:1209539.52
 STEP:  99 TIME =     0.82 SECS, INTEGRAL =     57.31 TIME LEFT:1209538.70
 STEP: 100 TIME =     0.25 SECS, INTEGRAL =     57.56 TIME LEFT:1209538.45
 STEP: 101 TIME =     0.30 SECS, INTEGRAL =     57.87 TIME LEFT:1209538.14
 STEP: 102 TIME =     0.50 SECS, INTEGRAL =     58.37 TIME LEFT:1209537.64
 STEP: 103 TIME =     0.39 SECS, INTEGRAL =     58.76 TIME LEFT:1209537.25
 STEP: 104 TIME =     0.71 SECS, INTEGRAL =     59.47 TIME LEFT:1209536.54
 STEP: 105 TIME =     0.52 SECS, INTEGRAL =     59.98 TIME LEFT:1209536.02
 STEP: 106 TIME =     0.56 SECS, INTEGRAL =     60.55 TIME LEFT:1209535.46
 STEP: 107 TIME =     0.30 SECS, INTEGRAL =     60.85 TIME LEFT:1209535.16
 STEP: 108 TIME =     0.54 SECS, INTEGRAL =     61.39 TIME LEFT:1209534.62
 STEP: 109 TIME =     0.20 SECS, INTEGRAL =     61.59 TIME LEFT:1209534.42
 STEP: 110 TIME =     0.29 SECS, INTEGRAL =     61.88 TIME LEFT:1209534.13
 STEP: 111 TIME =     0.20 SECS, INTEGRAL =     62.08 TIME LEFT:1209533.93
 STEP: 112 TIME =     0.38 SECS, INTEGRAL =     62.45 TIME LEFT:1209533.55
 STEP: 113 TIME =     0.47 SECS, INTEGRAL =     62.92 TIME LEFT:1209533.09
 STEP: 114 TIME =     0.47 SECS, INTEGRAL =     63.39 TIME LEFT:1209532.62
 STEP: 115 TIME =     0.58 SECS, INTEGRAL =     63.97 TIME LEFT:1209532.04
 STEP: 116 TIME =     0.43 SECS, INTEGRAL =     64.40 TIME LEFT:1209531.61
 STEP: 117 TIME =     0.56 SECS, INTEGRAL =     64.96 TIME LEFT:1209531.05
 STEP: 118 TIME =     0.39 SECS, INTEGRAL =     65.35 TIME LEFT:1209530.66
 STEP: 119 TIME =     0.45 SECS, INTEGRAL =     65.80 TIME LEFT:1209530.20
 STEP: 120 TIME =     0.49 SECS, INTEGRAL =     66.30 TIME LEFT:1209529.71

(To convert to Hartree/Bohr^2, multiply by (10^(-21) x N x a0^2)/(4.184 x 627.51) =  0.0642)


           FORCE MATRIX IN MILLIDYNES/ANGSTROM


                  C  1       C  2       C  3       C  4       C  5       C  6
 ------------------------------------------------------------------------------
     C    1  15.438567
     C    2   6.280107  15.416566
     C    3   1.915774   6.003933  16.107630
     C    4   1.197644   1.872255   5.990777  15.282324
     C    5   2.020647   1.193675   2.009067   6.353715  14.695198
     C    6   6.270414   1.905066   1.181496   1.815630   6.329191  15.398157
     H    7   3.402390   0.744271   0.086608   0.015051   0.089476   0.753664
     H    8   0.771797   3.380713   0.755232   0.082809   0.010216   0.086069
     H    9   0.008603   0.083960   0.741753   3.394797   0.752478   0.080560
    Cl   10   0.101177   0.015769   0.086298   0.825474   2.425021   0.823801
     H   11   0.742982   0.082869   0.003513   0.075978   0.744509   3.402653
     C   12   0.085196   0.805159   3.686471   0.757422   0.083615   0.008906
     C   13   0.011906   0.033883   0.640876   0.044077   0.022219   0.008335
     H   14   0.001783   0.004457   0.043348   0.003234   0.002067   0.000906
     H   15   0.000892   0.003903   0.018898   0.006694   0.006221   0.002494
     H   16   0.001230   0.006404   0.024050   0.006466   0.007027   0.003646
     N   17   0.016525   0.052613   0.981222   0.061779   0.052119   0.023496
     O   18   0.004383   0.032374   0.103981   0.025475   0.028065   0.011245
     O   19   0.003905   0.020481   0.065681   0.037775   0.020214   0.009539
     N   20   0.005223   0.013472   0.021757   0.008341   0.009755   0.004919
     C   21   0.002410   0.001974   0.003087   0.001421   0.002805   0.000914
     C   22   0.001290   0.002227   0.001247   0.001008   0.001449   0.000693
     C   23   0.002177   0.001994   0.000560   0.000490   0.001144   0.000811
     C   24   0.001598   0.003439   0.001515   0.001020   0.001422   0.001267
     C   25   0.010029   0.019426   0.002723   0.001879   0.003564   0.002137
     H   26   0.013927   0.073122   0.583688   0.048470   0.029670   0.014646
     H   27   0.000783   0.000885   0.001529   0.001216   0.001279   0.000725
     H   28   0.000631   0.001469   0.001175   0.000611   0.000591   0.000648
     H   29   0.000282   0.000621   0.000521   0.000652   0.000982   0.000344
     H   30   0.000589   0.000802   0.000478   0.000367   0.000759   0.000564
     H   31   0.000519   0.000416   0.000214   0.000389   0.001054   0.000533
     H   32   0.000440   0.001021   0.000208   0.000266   0.000456   0.000354
     H   33   0.001711   0.001510   0.000537   0.000358   0.000822   0.000561
     H   34   0.001234   0.000739   0.000670   0.000448   0.000940   0.000729
     H   35   0.013616   0.006311   0.002034   0.000953   0.001221   0.001940
     H   36   0.002678   0.003487   0.002097   0.001224   0.001604   0.001163
     H   37   0.002629   0.002625   0.003230   0.001163   0.002439   0.001338
     H   38   0.006943   0.009818   0.013600   0.005891   0.007506   0.003681
     H   39   0.015888   0.024853   0.053157   0.018599   0.019045   0.008459
     O   40   0.016935   0.076286   0.124648   0.036747   0.030080   0.013702


                  H  7       H  8       H  9      Cl 10       H 11       C 12
 ------------------------------------------------------------------------------
     H    7   4.295300
     H    8   0.034255   4.357065
     H    9   0.011057   0.008991   4.296231
    Cl   10   0.017860   0.011901   0.047206   3.843664
     H   11   0.031705   0.009431   0.009350   0.041556   4.293285
     C   12   0.009078   0.043043   0.028920   0.023780   0.009223  12.106101
     C   13   0.004301   0.007361   0.010103   0.008932   0.005616   3.112150
     H   14   0.000535   0.001602   0.002752   0.001399   0.000566   0.691301
     H   15   0.001215   0.000887   0.011476   0.005584   0.001547   0.681345
     H   16   0.002038   0.002615   0.003372   0.003607   0.002376   0.671140
     N   17   0.013406   0.024834   0.036852   0.029770   0.013992   3.409453
     O   18   0.005688   0.010115   0.015253   0.012433   0.007125   1.379166
     O   19   0.005307   0.007828   0.016214   0.010073   0.006284   1.407930
     N   20   0.006490   0.016966   0.002333   0.005971   0.002987   0.175541
     C   21   0.001807   0.003387   0.000867   0.002091   0.000484   0.017248
     C   22   0.000881   0.003006   0.000710   0.001295   0.000631   0.013616
     C   23   0.001551   0.002452   0.000495   0.001085   0.000713   0.003632
     C   24   0.001518   0.004145   0.000731   0.000991   0.001185   0.013764
     C   25   0.007617   0.023352   0.000875   0.002234   0.001360   0.016262
     H   26   0.010569   0.074642   0.017407   0.009642   0.008956   1.040546
     H   27   0.000579   0.001009   0.000494   0.000869   0.000395   0.013491
     H   28   0.000742   0.002431   0.000396   0.000475   0.000517   0.010389
     H   29   0.000415   0.000619   0.000473   0.000849   0.000294   0.002438
     H   30   0.000521   0.001066   0.000172   0.000591   0.000379   0.002314
     H   31   0.000301   0.000332   0.000346   0.000915   0.000457   0.000820
     H   32   0.000549   0.001302   0.000190   0.000170   0.000211   0.002986
     H   33   0.001395   0.001861   0.000172   0.000470   0.000541   0.002861
     H   34   0.001092   0.000994   0.000182   0.000700   0.000415   0.002070
     H   35   0.010464   0.023641   0.000420   0.000867   0.001268   0.012161
     H   36   0.002635   0.021642   0.000808   0.001058   0.000864   0.009186
     H   37   0.002180   0.005185   0.000468   0.001656   0.000894   0.018044
     H   38   0.003425   0.045899   0.002280   0.004305   0.002700   0.145006
     H   39   0.009907   0.058033   0.004437   0.010936   0.005899   0.439513
     O   40   0.012341   0.047529   0.012121   0.015436   0.009139   1.609178


                  C 13       H 14       H 15       H 16       N 17       O 18
 ------------------------------------------------------------------------------
     C   13  11.097039
     H   14   3.340824   4.153667
     H   15   3.359067   0.460952   4.151416
     H   16   3.358534   0.458490   0.456958   4.169446
     N   17   0.841339   0.100139   0.046077   0.088514  18.744842
     O   18   0.094927   0.021543   0.015456   0.016170   8.962468  11.709870
     O   19   0.099377   0.029173   0.013968   0.018334   8.980999   2.649722
     N   20   0.005814   0.005686   0.004091   0.008139   0.099160   0.029104
     C   21   0.001733   0.000981   0.000753   0.000962   0.011304   0.004535
     C   22   0.000671   0.000739   0.000436   0.000788   0.007713   0.003116
     C   23   0.000846   0.000436   0.000496   0.000405   0.005138   0.002770
     C   24   0.000733   0.000483   0.000630   0.000878   0.006761   0.002479
     C   25   0.001637   0.000753   0.000691   0.001255   0.011537   0.004707
     H   26   0.530451   0.043545   0.042246   0.043087   1.353471   0.257917
     H   27   0.001794   0.000653   0.000388   0.000568   0.007762   0.003321
     H   28   0.000978   0.000439   0.000472   0.000578   0.008918   0.003547
     H   29   0.000634   0.000396   0.000237   0.000244   0.003494   0.001897
     H   30   0.000435   0.000176   0.000223   0.000350   0.002311   0.000789
     H   31   0.000534   0.000184   0.000334   0.000140   0.002163   0.001141
     H   32   0.000557   0.000204   0.000126   0.000393   0.003759   0.001653
     H   33   0.000792   0.000264   0.000334   0.000252   0.003456   0.001399
     H   34   0.000522   0.000219   0.000232   0.000383   0.002346   0.001369
     H   35   0.000836   0.000482   0.000222   0.000732   0.007416   0.002536
     H   36   0.001169   0.000339   0.000452   0.000641   0.007714   0.002970
     H   37   0.002353   0.000639   0.000683   0.001377   0.011590   0.004096
     H   38   0.013499   0.005125   0.002801   0.021698   0.070013   0.019189
     H   39   0.014873   0.013917   0.008842   0.022647   0.243937   0.073018
     O   40   0.059970   0.026675   0.021116   0.030164   0.637327   0.169791


                  O 19       N 20       C 21       C 22       C 23       C 24
 ------------------------------------------------------------------------------
     O   19  11.665873
     N   20   0.032562  12.357125
     C   21   0.003740   3.515198  12.066106
     C   22   0.002933   0.872474   2.882674  11.835067
     C   23   0.002440   0.041807   0.699595   2.945443  11.837936
     C   24   0.002347   0.873759   0.045960   0.708318   2.954228  11.785145
     C   25   0.003717   3.521930   0.762198   0.046306   0.686752   2.811767
     H   26   0.275500   0.271796   0.024168   0.021566   0.005471   0.023708
     H   27   0.001864   0.794882   3.216793   0.659136   0.045782   0.007706
     H   28   0.003914   0.807713   3.213109   0.670390   0.011540   0.005470
     H   29   0.001582   0.066536   0.676226   3.289068   0.665065   0.045795
     H   30   0.001310   0.015226   0.693216   3.290712   0.684977   0.011927
     H   31   0.001181   0.008666   0.046527   0.678104   3.305931   0.675305
     H   32   0.001814   0.008028   0.016270   0.681461   3.286529   0.683135
     H   33   0.001964   0.068061   0.006705   0.045667   0.666859   3.280246
     H   34   0.000904   0.015641   0.003898   0.011656   0.685105   3.298083
     H   35   0.002630   0.775031   0.071334   0.008339   0.047047   0.665996
     H   36   0.002734   0.798907   0.030485   0.005132   0.011674   0.678349
     H   37   0.004574   3.559878   0.801054   0.011956   0.005725   0.011438
     H   38   0.020833   0.117487   0.009506   0.006480   0.001449   0.006829
     H   39   0.079464   0.653575   0.486112   0.099887   0.019882   0.103042
     O   40   0.188578   1.553458   0.074977   0.054433   0.012544   0.059048


                  C 25       H 26       H 27       H 28       H 29       H 30
 ------------------------------------------------------------------------------
     C   25  11.974646
     H   26   0.026184   1.223424
     H   27   0.072439   0.016124   4.161382
     H   28   0.031152   0.016957   0.431665   4.170043
     H   29   0.006743   0.003483   0.018826   0.019029   4.217100
     H   30   0.003997   0.004484   0.017890   0.041980   0.451791   4.226236
     H   31   0.048367   0.001087   0.006809   0.002563   0.016661   0.017398
     H   32   0.014598   0.005133   0.003675   0.013141   0.017665   0.044117
     H   33   0.677309   0.004436   0.000552   0.002173   0.006592   0.002848
     H   34   0.689476   0.003924   0.002396   0.002848   0.002975   0.013778
     H   35   3.196893   0.018252   0.014075   0.003734   0.000565   0.002482
     H   36   3.216130   0.014988   0.003941   0.011515   0.001981   0.002528
     H   37   0.808538   0.026788   0.034253   0.074550   0.003771   0.013875
     H   38   0.010733   0.396476   0.004930   0.004105   0.000692   0.001616
     H   39   0.364094   0.739260   0.055996   0.061036   0.013562   0.020199
     O   40   0.089589   0.724848   0.031044   0.031057   0.007332   0.011249


                  H 31       H 32       H 33       H 34       H 35       H 36
 ------------------------------------------------------------------------------
     H   31   4.229817
     H   32   0.450194   4.215230
     H   33   0.017295   0.018721   4.211288
     H   34   0.018233   0.044919   0.450708   4.229557
     H   35   0.007067   0.004126   0.019326   0.017901   4.133829
     H   36   0.002580   0.012524   0.020034   0.043543   0.441528   4.167667
     H   37   0.002489   0.004034   0.003856   0.013221   0.040183   0.075287
     H   38   0.000717   0.001237   0.000783   0.001738   0.006566   0.004502
     H   39   0.003944   0.015836   0.014292   0.020753   0.064540   0.059486
     O   40   0.002389   0.010575   0.007967   0.011710   0.037232   0.029802


                  H 37       H 38       H 39       O 40
 ------------------------------------------------------
     H   37   4.351965
     H   38   0.015070   4.311913
     H   39   0.265575   0.445575   1.260286
     O   40   0.088424   3.946496   0.696551   5.205414


          HEAT OF FORMATION =     -89.785688 KCALS/MOLE


          TRIVIAL VIBRATIONS, SHOULD BE ZERO

  -1.2462=TX -42.7747=TY -38.6980=TZ  -8.2295=RX  31.3329=RY -40.3901=RZ


      MOLECULAR POINT GROUP   :   C1  


           EIGENVECTORS  


   Root No.       1         2         3         4         5         6         7         8

                 1 A       2 A       3 A       4 A       5 A       6 A       7 A       8 A   

                  -1.2      -0.0      -0.0      -0.0       0.0       0.0       0.0       0.0
  
           1   -0.0099    0.0266   -0.0034    0.0154    0.1045    0.0475    0.0789    0.0924
           2   -0.0058   -0.0184   -0.0295   -0.0637   -0.0805   -0.0799   -0.1210   -0.0784
           3    0.0036   -0.0072   -0.1483   -0.0870    0.1781    0.0598    0.0673   -0.1104
           4   -0.0153    0.0264   -0.0030    0.0149    0.1040    0.0464    0.0778    0.0913
           5   -0.0136    0.0097   -0.0441   -0.0264   -0.0197   -0.0267   -0.0729   -0.0447
           6    0.0002    0.0133   -0.1698   -0.0733    0.1174    0.0255    0.0992   -0.0245
           7   -0.0129    0.0042    0.0072   -0.0159    0.0553    0.0051    0.0454    0.0692
           8   -0.0190    0.0240   -0.0513   -0.0078    0.0096   -0.0007   -0.0529   -0.0306
           9   -0.0113    0.0423    0.0054   -0.0252    0.0026   -0.0061    0.0825    0.0271
          10    0.0230   -0.0219    0.0200   -0.0473    0.0050   -0.0368    0.0061    0.0405
          11   -0.0099    0.0087   -0.0491   -0.0265   -0.0173   -0.0251   -0.0742   -0.0481
          12    0.0032    0.0643    0.2314    0.0033   -0.0531   -0.0166    0.0399    0.0654
          13    0.0136   -0.0216    0.0203   -0.0473    0.0068   -0.0365    0.0060    0.0398
          14    0.0005   -0.0190   -0.0363   -0.0639   -0.0766   -0.0779   -0.1201   -0.0808
          15    0.0052    0.0400    0.2289   -0.0213    0.0253    0.0252    0.0021   -0.0265
          16    0.0055    0.0019    0.0090   -0.0162    0.0545    0.0050    0.0412    0.0650
          17    0.0039   -0.0328   -0.0259   -0.0821   -0.1088   -0.1045   -0.1424   -0.0943
          18    0.0022    0.0018    0.0346   -0.0665    0.1389    0.0644    0.0158   -0.1341
          19   -0.0120    0.0456   -0.0124    0.0394    0.1423    0.0804    0.1111    0.1177
          20   -0.0046   -0.0287   -0.0222   -0.0770   -0.1032   -0.0994   -0.1395   -0.0916
          21    0.0048   -0.0315   -0.2698   -0.1125    0.2469    0.0799    0.0766   -0.1645
          22   -0.0007    0.0443   -0.0159    0.0400    0.1477    0.0832    0.1085    0.1057
          23   -0.0161    0.0196   -0.0505   -0.0123    0.0054   -0.0059   -0.0542   -0.0360
          24   -0.0003    0.0037   -0.3206   -0.1003    0.1450    0.0166    0.1284   -0.0014
          25    0.0097   -0.0375    0.0293   -0.0728   -0.0361   -0.0719   -0.0251    0.0175
          26   -0.0010    0.0169   -0.0575   -0.0124    0.0087   -0.0043   -0.0562   -0.0364
          27    0.0015    0.0976    0.3797    0.0419   -0.1521   -0.0563    0.0310    0.1502
          28    0.0124   -0.0518    0.0328   -0.0876   -0.0545   -0.0935   -0.0449    0.0024
          29   -0.0036   -0.0365   -0.0376   -0.0873   -0.1086   -0.1095   -0.1455   -0.1020
          30    0.0012    0.0505    0.4431    0.0080   -0.0320    0.0217   -0.0673   -0.0114
          31    0.0021    0.0021    0.0090   -0.0163    0.0547    0.0047    0.0416    0.0655
          32    0.0067   -0.0543   -0.0145   -0.1099   -0.1533   -0.1439   -0.1755   -0.1170
          33    0.0008   -0.0182    0.0254   -0.0784    0.1764    0.0880   -0.0129   -0.2145
          34    0.0338    0.0015    0.0059   -0.0127    0.0563    0.0054    0.0456    0.0697
          35   -0.2628    0.0483   -0.0449    0.0273    0.0580    0.0273   -0.0301   -0.0042
          36   -0.0945    0.0316   -0.0435   -0.0019   -0.0723   -0.0254    0.0946   -0.0024
          37    0.0010   -0.0302   -0.0542   -0.0133   -0.0323    0.0001    0.0526    0.0199
          38    0.0224   -0.0583   -0.0229    0.0638    0.1219    0.0242   -0.0420    0.0295
          39   -0.0026   -0.0488   -0.0624    0.0193   -0.0785   -0.0275    0.0902   -0.0106
          40    0.0073   -0.0323   -0.0480   -0.0040   -0.0097   -0.0374    0.0558    0.0195
          41    0.0311   -0.0778    0.0488    0.1704    0.3863   -0.4088   -0.0088    0.0259
          42   -0.0085   -0.0794   -0.0805    0.0742   -0.0229   -0.2700    0.1194   -0.0634
          43   -0.0219   -0.0186   -0.1275   -0.1141   -0.2850    0.4100    0.0207    0.0204
          44    0.0067   -0.0598   -0.0403    0.0397    0.0623    0.1295   -0.0511    0.0324
          45    0.0438   -0.1224   -0.0760   -0.0121   -0.1585    0.2295    0.0590    0.0331
          46    0.0157   -0.0726   -0.0381    0.0771    0.1227   -0.3719    0.0884   -0.0225
          47    0.0387   -0.1252   -0.0586    0.0144   -0.0169    0.3348   -0.0758    0.0597
          48   -0.0284    0.0028   -0.0509    0.0089   -0.0687   -0.0409    0.0940   -0.0094
          49    0.0379    0.0342    0.0446   -0.0431    0.0992    0.0186    0.0411    0.1056
          50   -0.0117    0.2387   -0.0437    0.0085    0.0176    0.0154   -0.0081   -0.0158
          51    0.0675   -0.0463   -0.0621    0.0198   -0.0816   -0.0289    0.0855   -0.0179
          52    0.0014    0.0267    0.0479   -0.0436    0.1040    0.0213    0.0392    0.1082
          53    0.0014   -0.0899   -0.0062    0.0539    0.0766    0.0790   -0.0850   -0.0194
          54    0.0091    0.0227   -0.1074    0.0331   -0.1396   -0.0636    0.1110   -0.0539
          55   -0.0238    0.0744    0.0732   -0.0683    0.1328    0.0283    0.0424    0.1366
          56    0.0668    0.8143   -0.0836   -0.0695   -0.0989   -0.0711    0.1069   -0.0215
          57   -0.0567   -0.1947   -0.0304    0.0260   -0.0224    0.0042    0.0516    0.0045
          58   -0.0395    0.0146    0.0356   -0.0034    0.0197    0.0272   -0.0869   -0.1705
          59   -0.1210    0.0016   -0.0008    0.0426    0.0349    0.0338   -0.0165    0.0908
          60    0.0551    0.0070   -0.0096    0.0315    0.0125    0.0008   -0.1139    0.0730
          61   -0.0334    0.0046    0.0117    0.0025   -0.0169    0.0031   -0.0682   -0.1203
          62   -0.0228   -0.0409    0.0298   -0.1241    0.0189    0.0045   -0.0019    0.1592
          63    0.0035    0.0116    0.0524   -0.0593    0.0770    0.0319   -0.1435    0.0076
          64    0.0116   -0.0250   -0.0187   -0.0730   -0.0715   -0.0461   -0.0425    0.0010
          65   -0.0183   -0.0614    0.0584   -0.1197   -0.0125   -0.0018    0.0914    0.0841
          66    0.0215   -0.0181    0.0840   -0.0593    0.0331    0.0203   -0.0277   -0.0764
          67   -0.0006   -0.0298   -0.0574    0.0081   -0.1226   -0.0679    0.0024    0.0285
          68   -0.0109   -0.0655    0.0880   -0.0237   -0.0376    0.0110    0.2033   -0.0608
          69    0.0142   -0.0225    0.0365    0.0020   -0.0136   -0.0050   -0.0101   -0.0115
          70   -0.0170   -0.0195   -0.0338    0.0028   -0.0868   -0.0443   -0.0243   -0.0168
          71   -0.0174   -0.0399    0.0655    0.1386   -0.0130    0.0528    0.1099   -0.0568
          72    0.0310   -0.0321   -0.0184    0.0753   -0.0733   -0.0349    0.0083    0.0751
          73   -0.0008    0.0004   -0.0062    0.0953   -0.0341    0.0127   -0.0767   -0.1132
          74   -0.0380   -0.0175    0.0280    0.1606    0.0096    0.0583    0.0168    0.0181
          75    0.0090   -0.0011   -0.0607    0.1154   -0.0396   -0.0211   -0.1092    0.1504
          76   -0.0194    0.0298    0.0216    0.0227    0.0770    0.0213    0.0505    0.0719
          77    0.5945    0.0184   -0.0352    0.0391    0.0658    0.0356   -0.0467    0.0053
          78    0.3136    0.1116   -0.0541   -0.0073   -0.1055   -0.0234    0.0707   -0.0368
          79   -0.0286    0.0068    0.0447   -0.0752    0.0287    0.0205   -0.1131   -0.1286
          80    0.0043   -0.0360    0.0113   -0.2111    0.0452   -0.0037   -0.0966    0.2864
          81    0.0037    0.0121    0.0879   -0.1100    0.1129    0.0505   -0.1630   -0.0311
          82   -0.0373    0.0170   -0.0175    0.1517   -0.0497    0.0065   -0.0164   -0.1852
          83   -0.0088   -0.0594    0.0489   -0.1691    0.0018   -0.0066    0.0400    0.1511
          84   -0.0160    0.0358    0.0382   -0.0760    0.1256    0.0483   -0.2450    0.0624
          85    0.0075   -0.0318   -0.0357   -0.0643   -0.0971   -0.0622   -0.0239    0.0325
          86   -0.0016   -0.0892    0.0755   -0.2208   -0.0362   -0.0264    0.1315    0.1145
          87    0.0130   -0.0130    0.1239   -0.1103    0.0761    0.0438   -0.0509   -0.1299
          88    0.0014   -0.0354    0.0037   -0.1938   -0.0512   -0.0516   -0.0730    0.0390
          89   -0.0064   -0.0458    0.0411   -0.0945    0.0070    0.0079    0.0396    0.1112
          90    0.0094   -0.0404    0.1042   -0.0542   -0.0079    0.0063    0.0718   -0.1366
          91    0.0019   -0.0457   -0.0812   -0.0506   -0.1614   -0.1070    0.0375    0.0978
          92   -0.0070   -0.0746    0.1075   -0.0291   -0.0558    0.0044    0.2832   -0.1278
          93    0.0120   -0.0359    0.0584   -0.0123   -0.0414   -0.0183    0.0946   -0.0876
          94   -0.0008   -0.0258   -0.0813    0.1335   -0.1505   -0.0633    0.0201    0.0168
          95   -0.0008   -0.0785    0.1068   -0.0674   -0.0571   -0.0039    0.2822   -0.1074
          96   -0.0024   -0.0067    0.0216    0.0061    0.0246    0.0131   -0.1229    0.0560
          97   -0.0065   -0.0270   -0.0568    0.0577   -0.1215   -0.0564   -0.0036    0.0148
          98   -0.0070   -0.0522    0.0948    0.1929   -0.0249    0.0679    0.1748   -0.1442
          99    0.0213   -0.0359   -0.0508    0.1157   -0.1055   -0.0521    0.0120    0.1338
         100   -0.0011   -0.0204   -0.0176   -0.1160   -0.0677   -0.0559   -0.0278   -0.0114
         101   -0.0095   -0.0254    0.0452    0.1949    0.0014    0.0674    0.0513   -0.0311
         102    0.0117   -0.0568    0.0059    0.0555   -0.1105   -0.0522    0.1125    0.0268
         103    0.0136    0.0082    0.0138    0.0759   -0.0054    0.0287   -0.0918   -0.1504
         104   -0.0061    0.0001   -0.0042    0.3207    0.0199    0.0941   -0.0753    0.0344
         105    0.0002   -0.0112   -0.1056    0.1928   -0.0859   -0.0382   -0.1084    0.2221
         106    0.0143   -0.0024   -0.0416    0.2776   -0.0660    0.0320   -0.1076   -0.0992
         107   -0.0222   -0.0313    0.0536    0.1084   -0.0047    0.0454    0.0757   -0.0147
         108   -0.0184    0.0235   -0.0910    0.1356   -0.0039   -0.0062   -0.1933    0.1978
         109   -0.0170    0.0122    0.0656   -0.1404    0.0542    0.0243   -0.1024   -0.1719
         110   -0.0766    0.0286   -0.0251    0.0832    0.0448    0.0386   -0.0238    0.0750
         111    0.0478   -0.0246    0.0064    0.0397   -0.0142   -0.0030   -0.0987    0.0912
         112   -0.0466    0.0887    0.1145    0.1322    0.0425    0.1128   -0.0040   -0.0435
         113   -0.1167    0.0559   -0.0547   -0.0175   -0.0267    0.0015    0.1112    0.0298
         114   -0.0366    0.0890   -0.0716   -0.0022   -0.0189   -0.0272   -0.0143   -0.0266
         115    0.1459    0.0243    0.0579    0.0759    0.0537    0.0739   -0.0705   -0.1974
         116    0.3914   -0.0091   -0.0266    0.0380    0.0389    0.0460   -0.0150    0.0695
         117   -0.2920    0.0771   -0.0383    0.0351    0.0275   -0.0106   -0.1109    0.0298
         118   -0.0143    0.0550    0.0820    0.0963    0.0544    0.0832   -0.0102   -0.0581
         119   -0.3295    0.0427   -0.0381    0.0188    0.0174    0.0207    0.0134   -0.0133
         120   -0.1424    0.1089   -0.0464    0.0301   -0.0177   -0.0026   -0.0256   -0.0251


   Root No.       9        10        11        12        13        14        15        16

                 9 A      10 A      11 A      12 A      13 A      14 A      15 A      16 A   

                   0.0       0.0       0.0       0.0       0.0       0.1       0.1       0.1
  
           1   -0.0188    0.0351   -0.0120    0.0097   -0.0739    0.0208    0.0030   -0.0096
           2   -0.0521    0.0233    0.0050    0.0069    0.0181    0.0189   -0.0498   -0.0001
           3    0.0487   -0.0367    0.0408    0.0052    0.0783   -0.0025   -0.0165   -0.0795
           4   -0.0176    0.0351   -0.0120    0.0096   -0.0708    0.0188    0.0103   -0.0084
           5   -0.0582    0.0546    0.0066    0.0116   -0.0508    0.0500   -0.1474   -0.0354
           6   -0.1055   -0.1233    0.0289   -0.0068    0.0367    0.0121   -0.0866    0.1427
           7   -0.0102    0.0070   -0.0156    0.0061   -0.0287   -0.0015    0.0623    0.0060
           8   -0.0635    0.0722    0.0089    0.0138   -0.0792    0.0636   -0.1887   -0.0464
           9   -0.1460   -0.1279    0.0355   -0.0113    0.0531    0.0024   -0.0332   -0.0032
          10   -0.0035   -0.0194   -0.0151    0.0026    0.0258   -0.0248    0.1338    0.0327
          11   -0.0593    0.0566    0.0093    0.0117   -0.0464    0.0500   -0.1443   -0.0278
          12   -0.1257   -0.0881    0.0119   -0.0041    0.0146    0.0030   -0.0526   -0.1802
          13   -0.0009   -0.0175   -0.0155    0.0028    0.0270   -0.0261    0.1424    0.0359
          14   -0.0533    0.0232    0.0069    0.0069    0.0219    0.0191   -0.0488    0.0008
          15    0.0676    0.0376    0.0152    0.0169   -0.0497    0.0057   -0.0217    0.0113
          16   -0.0101    0.0087   -0.0130    0.0062   -0.0213   -0.0031    0.0757    0.0152
          17   -0.0504    0.0060    0.0046    0.0046    0.0503    0.0052   -0.0105    0.0164
          18    0.1728    0.0651    0.0409    0.0197    0.0311   -0.0096    0.0598   -0.1157
          19   -0.0271    0.0552   -0.0123    0.0127   -0.1237    0.0434   -0.0620   -0.0315
          20   -0.0487    0.0120    0.0046    0.0053    0.0454    0.0067   -0.0136    0.0149
          21    0.0885   -0.0370    0.0528    0.0053    0.1340   -0.0078   -0.0241   -0.1989
          22   -0.0274    0.0543   -0.0104    0.0124   -0.0995    0.0442   -0.0638   -0.0094
          23   -0.0627    0.0638    0.0079    0.0129   -0.0665    0.0628   -0.1862   -0.0362
          24   -0.1818   -0.1782    0.0132   -0.0108   -0.0385    0.0322   -0.1902    0.4404
          25    0.0056   -0.0411   -0.0178   -0.0008    0.0770   -0.0501    0.2196    0.0559
          26   -0.0631    0.0703    0.0111    0.0138   -0.0759    0.0648   -0.1928   -0.0366
          27   -0.2181   -0.1305   -0.0125   -0.0118    0.0112    0.0036   -0.0968   -0.4463
          28    0.0131   -0.0511   -0.0192   -0.0022    0.1060   -0.0662    0.2795    0.0889
          29   -0.0502   -0.0006    0.0051    0.0032    0.0739   -0.0037    0.0281    0.0086
          30    0.2038    0.1811   -0.0124    0.0422   -0.2729    0.0344   -0.1080    0.5847
          31   -0.0103    0.0086   -0.0134    0.0062   -0.0212   -0.0032    0.0778    0.0154
          32   -0.0451   -0.0201    0.0026    0.0011    0.1023   -0.0183    0.0613    0.0449
          33    0.3240    0.1545    0.0546    0.0310    0.0398   -0.0235    0.1647   -0.2166
          34   -0.0075    0.0107   -0.0157    0.0063   -0.0336   -0.0017    0.0691    0.0039
          35   -0.0678    0.1008    0.0069    0.0152   -0.0923    0.0475   -0.0663   -0.0399
          36   -0.0617   -0.0847    0.0700   -0.0112    0.0280   -0.0029    0.0331    0.0218
          37    0.1505    0.0775    0.0070    0.0114   -0.1227    0.0167   -0.0763   -0.0655
          38   -0.0622    0.1249   -0.2277    0.0045    0.0217    0.0302    0.0432   -0.0070
          39    0.0236   -0.0317   -0.0473   -0.0136    0.0435   -0.0013    0.0168    0.0067
          40    0.1524    0.0767    0.0056    0.0113   -0.1209    0.0172   -0.0767   -0.0669
          41   -0.0735    0.1003   -0.2548    0.0008    0.0872    0.0270    0.1223    0.0317
          42    0.1797    0.0162   -0.0142   -0.0096   -0.0290    0.0169   -0.1222   -0.0640
          43    0.1745    0.1142    0.0263    0.0166   -0.1970    0.0261   -0.1626   -0.1157
          44   -0.0598    0.1355   -0.2399    0.0052    0.0138    0.0320    0.0370   -0.0144
          45   -0.0025   -0.0054   -0.2689   -0.0224    0.1450   -0.0164    0.1373    0.0396
          46    0.2802    0.1103    0.0132    0.0130   -0.1602    0.0293   -0.1775   -0.1197
          47   -0.0558    0.1713   -0.4092    0.0002    0.0765    0.0249    0.1060   -0.0001
          48   -0.0285   -0.0667    0.0391   -0.0119    0.0306   -0.0023    0.0249    0.0220
          49   -0.1287   -0.0620   -0.0293    0.0022    0.0119    0.0072   -0.0542   -0.0125
          50   -0.0537    0.0820    0.1026    0.0188   -0.1233    0.0389    0.1448   -0.0230
          51    0.0038   -0.0385    0.0352   -0.0105    0.0162   -0.0059    0.0318    0.0233
          52   -0.1419   -0.0652   -0.0196    0.0027    0.0092    0.0088   -0.0578   -0.0151
          53   -0.1984    0.1394    0.4199    0.0448   -0.3042    0.0581    0.3984   -0.0472
          54    0.1697    0.0150   -0.0501   -0.0138    0.0275   -0.0198    0.0831    0.0488
          55   -0.2235   -0.1208   -0.0449   -0.0013    0.0519    0.0151   -0.1591   -0.0270
          56    0.1484   -0.0062   -0.2139   -0.0092    0.0679    0.0118    0.0835    0.0095
          57   -0.1242   -0.0519    0.1226   -0.0042   -0.0147    0.0084   -0.0205    0.0042
          58   -0.0176   -0.0914   -0.0348   -0.0738   -0.0366   -0.0278   -0.0137   -0.0023
          59    0.0655   -0.0437    0.0493   -0.0044    0.0163   -0.1137   -0.0023   -0.0003
          60    0.0077    0.0255   -0.0097    0.0010   -0.0106   -0.0690   -0.0093   -0.0104
          61   -0.0115   -0.0683   -0.0340   -0.0385   -0.0239   -0.0186   -0.0071   -0.0017
          62    0.1165   -0.0682    0.0577   -0.0653    0.0496   -0.0341   -0.0095    0.0111
          63    0.0229   -0.0290   -0.0209   -0.0946   -0.0169   -0.0598   -0.0188   -0.0067
          64    0.0079   -0.0199   -0.0069    0.0355    0.0127    0.0691   -0.0027   -0.0016
          65    0.0769   -0.0542    0.0256    0.0776    0.0471    0.0431    0.0044    0.0104
          66   -0.0253   -0.0114   -0.0584    0.0960   -0.0206    0.0393   -0.0052   -0.0082
          67   -0.0157    0.0489   -0.0039   -0.0588    0.0091   -0.0271   -0.0115   -0.0004
          68   -0.0010   -0.0019   -0.0138    0.0183    0.0134   -0.1270   -0.0140    0.0134
          69   -0.0290    0.0439   -0.0446    0.0139   -0.0157   -0.0212   -0.0109   -0.0069
          70   -0.0117    0.0068   -0.0132   -0.0273    0.0004   -0.0253   -0.0128   -0.0021
          71    0.0552   -0.1046    0.0050   -0.1032    0.0195    0.0713    0.0121    0.0127
          72   -0.0174    0.0879   -0.0218   -0.0912    0.0022    0.0550    0.0038   -0.0042
          73    0.0066   -0.1118   -0.0248    0.0058   -0.0170   -0.0022   -0.0169    0.0050
          74    0.0924   -0.1414    0.0237    0.0283    0.0263   -0.0344   -0.0008    0.0098
          75    0.0302    0.0240   -0.0048    0.0795    0.0071   -0.0643   -0.0077   -0.0055
          76    0.0039    0.0257   -0.0078    0.0038   -0.0047   -0.0391    0.2197    0.0346
          77   -0.0698    0.0922   -0.0094    0.0104   -0.0772    0.0214   -0.0421   -0.0377
          78   -0.0699   -0.0396    0.2287    0.0039   -0.0297    0.0093    0.1098    0.0346
          79    0.0184   -0.1135   -0.0276   -0.1571   -0.0224   -0.0275   -0.0212    0.0048
          80    0.1860   -0.0845    0.1084   -0.2590    0.0797   -0.0862   -0.0304    0.0213
          81    0.0346   -0.0684   -0.0263   -0.1618   -0.0224   -0.0598   -0.0291   -0.0024
          82   -0.0720   -0.0302   -0.0598    0.1182   -0.0525   -0.0360    0.0125   -0.0140
          83    0.1145   -0.0664    0.0494   -0.0161    0.0614    0.0275   -0.0042    0.0147
          84    0.0640   -0.0544    0.0101   -0.2754   -0.0171   -0.1523   -0.0392   -0.0042
          85    0.0048    0.0088   -0.0019    0.0348    0.0198    0.0692   -0.0021   -0.0017
          86    0.0868   -0.0640    0.0239    0.3192    0.0791    0.2902    0.0344    0.0076
          87   -0.0155   -0.0733   -0.0715    0.1895   -0.0230    0.1430    0.0077   -0.0099
          88    0.0461   -0.0737   -0.0022    0.2264    0.0413    0.3119    0.0264   -0.0056
          89    0.0935   -0.0611    0.0435   -0.0422    0.0421   -0.0463   -0.0082    0.0126
          90   -0.0684    0.0211   -0.0887    0.2260   -0.0225    0.1009    0.0049   -0.0100
          91   -0.0270    0.1193    0.0053   -0.0323    0.0195   -0.1008   -0.0206    0.0009
          92   -0.0551    0.0555   -0.0366    0.0278   -0.0052   -0.3042   -0.0367    0.0170
          93   -0.0982    0.1244   -0.0731    0.0288   -0.0378   -0.2391   -0.0385   -0.0032
          94   -0.0237    0.0618   -0.0018   -0.1816    0.0040   -0.0247   -0.0083    0.0010
          95   -0.0523    0.0628   -0.0320    0.0589   -0.0000   -0.3046   -0.0372    0.0173
          96    0.0432   -0.0486   -0.0210    0.0128    0.0046    0.2115    0.0184   -0.0121
          97   -0.0060    0.0272   -0.0006   -0.1521    0.0112    0.1050    0.0064    0.0004
          98    0.0370   -0.1150   -0.0074   -0.3090    0.0134    0.2978    0.0405    0.0205
          99   -0.0059    0.1131   -0.0062   -0.1675    0.0154    0.1375    0.0186   -0.0038
         100   -0.0313    0.0368   -0.0206    0.1628   -0.0072   -0.2640   -0.0480   -0.0079
         101    0.0849   -0.1528    0.0176   -0.0806    0.0238    0.0856    0.0144    0.0137
         102   -0.0564    0.1507   -0.0374   -0.2572    0.0001    0.1926    0.0228   -0.0011
         103    0.0012   -0.1278   -0.0279   -0.0086   -0.0279   -0.0126   -0.0205    0.0038
         104    0.1556   -0.2873    0.0293    0.2299    0.0343   -0.0829   -0.0201    0.0231
         105    0.0588    0.0097    0.0043    0.1664    0.0291   -0.0655   -0.0107   -0.0003
         106    0.0618   -0.2383   -0.0280    0.1694    0.0004    0.0162   -0.0295    0.0256
         107    0.0633   -0.0875    0.0141   -0.0764    0.0230    0.0214    0.0107    0.0034
         108    0.0588   -0.0230    0.0112    0.1952    0.0065   -0.1626   -0.0217   -0.0001
         109   -0.0170   -0.0791   -0.0296   -0.1586   -0.0403   -0.0289   -0.0198   -0.0034
         110    0.0243    0.0083    0.0638    0.0201    0.0020   -0.1620    0.0036   -0.0058
         111    0.0536   -0.0394   -0.0217    0.0073    0.0087   -0.0125   -0.0168   -0.0026
         112   -0.0198    0.3431    0.3037    0.0526    0.5995    0.0795   -0.1697    0.1120
         113   -0.0071   -0.0923    0.1024   -0.0042   -0.1102   -0.0118    0.1744    0.0298
         114   -0.0996    0.0107    0.0191    0.0013   -0.1723   -0.0059    0.1719    0.0055
         115   -0.0417   -0.0568    0.0565   -0.0511    0.0106   -0.0546   -0.0356    0.0109
         116   -0.0098    0.0137    0.1743    0.0051   -0.0096   -0.1180   -0.0699    0.0018
         117   -0.0605    0.1308   -0.0349    0.0132   -0.0245   -0.0687    0.0429   -0.0168
         118   -0.0045    0.1162    0.1737    0.0030    0.2687   -0.0325   -0.0085    0.0692
         119   -0.0279   -0.0170    0.0547   -0.0072   -0.0692   -0.0226    0.0048   -0.0093
         120   -0.1155    0.1765    0.1125    0.0346    0.0544    0.0648    0.0283    0.0272


   Root No.      17        18        19        20        21        22        23        24

                17 A      18 A      19 A      20 A      21 A      22 A      23 A      24 A   

                   0.1       0.1       0.2       0.2       0.3       0.3       0.3       0.3
  
           1   -0.0164   -0.0235    0.1426   -0.0408   -0.0410   -0.0281   -0.0136   -0.0168
           2   -0.0080   -0.0200    0.0295   -0.0029   -0.0103   -0.0036    0.0014   -0.0034
           3   -0.0566    0.1235    0.0100    0.0751   -0.0436   -0.0324   -0.0053   -0.0088
           4   -0.0147   -0.0222    0.1334   -0.0386   -0.0363   -0.0244   -0.0132   -0.0160
           5   -0.0088   -0.0664    0.0849   -0.0087   -0.0326   -0.0202    0.0037   -0.0040
           6   -0.0531    0.0967   -0.0389   -0.1153    0.0627    0.0402    0.0231    0.0060
           7   -0.0087   -0.0031    0.0641   -0.0172   -0.0183   -0.0126   -0.0071   -0.0079
           8   -0.0111   -0.0793    0.1170   -0.0164   -0.0411   -0.0254    0.0003   -0.0069
           9    0.0041   -0.0500   -0.0415   -0.1023   -0.0279   -0.0326   -0.0145   -0.0301
          10   -0.0140    0.0363    0.0581   -0.0292   -0.0137   -0.0124   -0.0093   -0.0087
          11   -0.0117   -0.0638    0.1099   -0.0225   -0.0408   -0.0260   -0.0012   -0.0092
          12   -0.0557    0.0964    0.0052   -0.0687    0.0448    0.0289    0.0066    0.0020
          13   -0.0135    0.0370    0.0596   -0.0319   -0.0132   -0.0118   -0.0109   -0.0104
          14   -0.0111   -0.0157    0.0488   -0.0118   -0.0166   -0.0085   -0.0015   -0.0071
          15   -0.0122    0.0015   -0.0078   -0.0747    0.0367    0.0230    0.0061    0.0010
          16   -0.0163    0.0086    0.1133   -0.0436   -0.0310   -0.0231   -0.0143   -0.0160
          17   -0.0106    0.0058    0.0125   -0.0015   -0.0052   -0.0011    0.0008   -0.0031
          18    0.0311   -0.1050    0.0002   -0.1166    0.0564    0.0390    0.0085    0.0055
          19   -0.0195   -0.0577    0.2014   -0.0531   -0.0661   -0.0458   -0.0167   -0.0224
          20   -0.0061   -0.0048    0.0007   -0.0051    0.0050    0.0075    0.0035   -0.0008
          21   -0.1386    0.3617    0.0684    0.4773   -0.2590   -0.1800   -0.0511   -0.0368
          22   -0.0366   -0.0411    0.2101   -0.0820   -0.0594   -0.0417   -0.0046   -0.0159
          23   -0.0179   -0.0755    0.1269   -0.0309   -0.0440   -0.0300    0.0094   -0.0055
          24   -0.1081    0.2367   -0.0593   -0.3012    0.3116    0.2327    0.1013    0.0797
          25   -0.0155    0.0845    0.0320   -0.0371    0.0069    0.0008   -0.0157   -0.0118
          26   -0.0090   -0.0975    0.1272   -0.0197   -0.0569   -0.0370    0.0014   -0.0090
          27   -0.1573    0.3456    0.0809   -0.0268    0.1690    0.1371    0.0460    0.0576
          28   -0.0136    0.1097   -0.0161   -0.0260    0.0259    0.0142   -0.0186   -0.0115
          29   -0.0105    0.0188    0.0064   -0.0179    0.0107    0.0101   -0.0040   -0.0063
          30   -0.0362    0.1103   -0.0159    0.2082   -0.1391   -0.0982   -0.0257   -0.0235
          31   -0.0170    0.0091    0.1178   -0.0459   -0.0328   -0.0244   -0.0153   -0.0171
          32   -0.0118    0.0435   -0.0304    0.0044    0.0083    0.0077    0.0015   -0.0012
          33    0.1215   -0.3340    0.0068   -0.3056    0.1898    0.1419    0.0342    0.0381
          34   -0.0107   -0.0055    0.0590   -0.0095   -0.0150   -0.0125   -0.0018    0.0020
          35   -0.0045   -0.0220    0.0527    0.0097    0.0170    0.0254   -0.0219   -0.0187
          36    0.0347   -0.1170   -0.0100   -0.0427   -0.1105   -0.0886   -0.0426   -0.0573
          37   -0.0307    0.0486   -0.0730    0.0136    0.0325    0.0231    0.0109    0.0167
          38   -0.0373    0.0086   -0.0154    0.0198    0.0290    0.0288    0.0016    0.0062
          39    0.0071   -0.0712   -0.0957   -0.0266   -0.0841   -0.0690   -0.0271   -0.0434
          40   -0.0334    0.0504   -0.0860    0.0156    0.0364    0.0268    0.0127    0.0188
          41   -0.0488   -0.0179    0.0003    0.0296    0.0061    0.0251    0.0037    0.0037
          42   -0.0233   -0.0130   -0.3117   -0.0122   -0.0329   -0.0293   -0.0155   -0.0386
          43   -0.0350    0.0880   -0.1427    0.0186    0.0840    0.0564    0.0152    0.0265
          44   -0.0422    0.0169   -0.0371    0.0237    0.0391    0.0378    0.0033    0.0075
          45   -0.0249   -0.0567   -0.2034   -0.0146   -0.1034   -0.0807   -0.0132   -0.0440
          46   -0.0603    0.1057   -0.2626    0.0382    0.1015    0.0786    0.0376    0.0449
          47   -0.0753    0.0537   -0.1199    0.0485    0.0698    0.0752    0.0264    0.0261
          48    0.0335   -0.1164    0.0085   -0.0492   -0.1323   -0.1133   -0.0501   -0.0659
          49    0.0508   -0.1324   -0.1229    0.0438   -0.0356   -0.0338   -0.0047    0.0036
          50   -0.1165    0.0300   -0.0871   -0.0680   -0.0483   -0.0304   -0.0213   -0.0342
          51    0.0275   -0.0681    0.1204   -0.0430   -0.0777   -0.0718   -0.0252   -0.0259
          52    0.0537   -0.1447   -0.1529    0.0502   -0.0412   -0.0368   -0.0076   -0.0013
          53   -0.3120    0.1236   -0.2771   -0.2129   -0.1349   -0.1048   -0.0354   -0.0800
          54    0.0055    0.0668    0.4294   -0.0973   -0.0240   -0.0230   -0.0170   -0.0168
          55    0.1176   -0.2690   -0.3417    0.1170   -0.0713   -0.0612   -0.0190   -0.0113
          56   -0.0646    0.0217   -0.1364   -0.0839   -0.0786   -0.0499   -0.0386   -0.0691
          57    0.0569   -0.1559   -0.0077    0.0067   -0.0940   -0.0828   -0.0337   -0.0322
          58    0.0410    0.0228   -0.0096   -0.0193   -0.0217   -0.0038   -0.0613    0.0485
          59    0.2014    0.1070   -0.0278   -0.0500   -0.0368   -0.0183   -0.0140   -0.0309
          60    0.0974    0.0459   -0.0150   -0.0361   -0.0156   -0.0830    0.0309    0.0841
          61    0.0315    0.0199   -0.0101   -0.0265   -0.0251   -0.0423   -0.0568    0.1437
          62    0.0011    0.0023   -0.0029   -0.0153   -0.0354    0.0000   -0.0430    0.1393
          63    0.0007   -0.0023   -0.0014   -0.0089   -0.0174   -0.0043    0.0189   -0.0123
          64    0.0163    0.0002    0.0024    0.0045    0.0386   -0.0638    0.0363   -0.0057
          65    0.0230    0.0116   -0.0033   -0.0154   -0.0611    0.0401   -0.0520    0.1656
          66    0.0260    0.0061   -0.0003   -0.0070   -0.0552    0.0679    0.0059   -0.0249
          67   -0.0015   -0.0065    0.0039    0.0007   -0.0183    0.0122    0.0696   -0.0363
          68   -0.0303   -0.0125    0.0000   -0.0024   -0.0137   -0.0042    0.0343    0.0546
          69    0.0133    0.0012    0.0010   -0.0125   -0.1225    0.1545    0.0169   -0.0198
          70    0.0041   -0.0021    0.0020   -0.0053   -0.0694    0.0665    0.1129   -0.0608
          71    0.0171    0.0112   -0.0064   -0.0105   -0.0325   -0.0157    0.1662   -0.0039
          72    0.0306    0.0086    0.0005   -0.0067   -0.0360    0.0518   -0.0319    0.0034
          73   -0.0455   -0.0241    0.0029    0.0069   -0.0148    0.0519   -0.0581   -0.0005
          74    0.0216    0.0153   -0.0091   -0.0191   -0.0290   -0.0516    0.1858   -0.0033
          75    0.0272    0.0111   -0.0041   -0.0173   -0.0181   -0.0151   -0.0065    0.0298
          76    0.0401    0.0446    0.0604    0.0967    0.0858    0.0703    0.0332    0.0291
          77    0.0079   -0.0174    0.0494    0.0197    0.0429   -0.0272    0.0305    0.0889
          78    0.0175   -0.1864   -0.0002    0.1881   -0.0017   -0.0031    0.0689    0.1327
          79   -0.0939   -0.0459    0.0076    0.0138    0.0199    0.0054   -0.0916    0.0338
          80   -0.1558   -0.0834    0.0210    0.0469    0.1248   -0.0910    0.0179   -0.0310
          81   -0.0888   -0.0491    0.0112    0.0184   -0.0074    0.0674   -0.0249   -0.0996
          82    0.2611    0.1454   -0.0471   -0.1113   -0.1380   -0.0846   -0.0970    0.3583
          83   -0.0497   -0.0261    0.0058    0.0002   -0.0501    0.0437   -0.0605    0.2092
          84   -0.0648   -0.0372    0.0085    0.0243    0.0954   -0.0575    0.0787   -0.2916
          85    0.0144   -0.0026    0.0053    0.0094    0.0271   -0.0335    0.0767   -0.0568
          86    0.0723    0.0226    0.0053    0.0250    0.0962   -0.0463   -0.0272   -0.0855
          87    0.0552    0.0196   -0.0032   -0.0010    0.0408   -0.0414   -0.0593   -0.0410
          88    0.0664    0.0155    0.0072    0.0363    0.2331   -0.2398    0.0406   -0.2069
          89    0.0079    0.0087   -0.0076   -0.0326   -0.1172    0.0614   -0.0935    0.3166
          90    0.0340    0.0050    0.0057    0.0136   -0.0165    0.0866    0.0767   -0.2301
          91   -0.0224   -0.0182    0.0086    0.0086    0.0270   -0.0064   -0.1079    0.0440
          92   -0.0962   -0.0451    0.0072    0.0221    0.1060   -0.0943   -0.0235   -0.0390
          93   -0.0645   -0.0373    0.0101    0.0163    0.0148    0.0583   -0.0713   -0.1282
          94   -0.0044   -0.0071    0.0036    0.0032   -0.0100   -0.0084    0.2198   -0.1556
          95   -0.0936   -0.0446    0.0071    0.0231    0.1340   -0.1283   -0.0921    0.0222
          96    0.0949    0.0425   -0.0080   -0.0452   -0.3048    0.3121    0.1098    0.0688
          97    0.0285    0.0074    0.0023    0.0056    0.0308   -0.0189    0.0250   -0.0843
          98    0.0243    0.0147   -0.0044    0.0148    0.0797   -0.0287   -0.0870   -0.0266
          99    0.0585    0.0206    0.0000   -0.0023    0.0472   -0.0411   -0.0767   -0.0116
         100   -0.0242   -0.0170    0.0031   -0.0242   -0.2407    0.1996    0.3566   -0.0706
         101    0.0259    0.0168   -0.0102   -0.0143   -0.0050   -0.0784    0.2126   -0.0014
         102    0.0345    0.0086    0.0065    0.0150    0.0482    0.0632   -0.3064    0.0046
         103   -0.0261   -0.0150   -0.0011   -0.0022   -0.0009    0.0082   -0.0894    0.0583
         104   -0.1673   -0.0839    0.0136    0.0364    0.1097   -0.0854   -0.0133   -0.0083
         105   -0.0746   -0.0404    0.0125    0.0226    0.0030    0.0631   -0.0436   -0.0823
         106   -0.2956   -0.1523    0.0343    0.0840    0.0960    0.1275   -0.2461   -0.0627
         107    0.0662    0.0353   -0.0133   -0.0313   -0.0870   -0.0519    0.3511   -0.0042
         108    0.0334    0.0207   -0.0084   -0.0212    0.0514   -0.0433   -0.2358    0.0500
         109    0.0386    0.0212   -0.0098   -0.0202   -0.0261    0.0113   -0.1797    0.1227
         110    0.3723    0.1896   -0.0466   -0.0558    0.0286   -0.0332   -0.0957   -0.2046
         111   -0.0941   -0.0490    0.0063   -0.0257   -0.0803   -0.0708    0.1618    0.2422
         112   -0.1484    0.0093   -0.0399   -0.0367   -0.0505    0.1029   -0.0440    0.0138
         113    0.0929   -0.1122    0.0289    0.3556    0.0060    0.5445   -0.0907   -0.0904
         114    0.0872   -0.1045    0.0400    0.3219    0.2999   -0.0293    0.2218    0.2457
         115    0.1612    0.0643   -0.0068    0.0345    0.1022   -0.0286    0.0693   -0.0838
         116    0.3562    0.1257   -0.0244    0.0210    0.0667    0.0844   -0.1632   -0.1606
         117    0.1712    0.0787   -0.0175    0.0102    0.1587   -0.2292    0.0405    0.1058
         118    0.0922    0.0616   -0.0127    0.0993    0.1429    0.0433    0.0877    0.0263
         119    0.1208    0.0047    0.0041    0.0484   -0.0023    0.0997   -0.0760   -0.0914
         120   -0.0508   -0.1143    0.0179    0.1829    0.1732   -0.0479    0.1206    0.2079


   Root No.      25        26        27        28        29        30        31        32

                25 A      26 A      27 A      28 A      29 A      30 A      31 A      32 A   

                   0.4       0.5       0.5       0.6       0.6       0.6       0.7       0.7
  
           1    0.0032    0.0400   -0.0177    0.0031    0.0636    0.0606    0.0012    0.0021
           2    0.0039    0.0528    0.0120   -0.0155   -0.0397   -0.0605    0.0034    0.0124
           3   -0.0044   -0.0354    0.1790   -0.1010    0.0891   -0.0221    0.0013    0.0046
           4    0.0017    0.0310   -0.0113    0.0026    0.0424    0.0503    0.0011    0.0031
           5    0.0105    0.0879   -0.0110    0.0005    0.0155   -0.0823    0.0047    0.0142
           6    0.0008   -0.0448    0.1754   -0.0932    0.0648   -0.0268    0.0021   -0.0001
           7   -0.0007    0.0077    0.0006   -0.0139   -0.0461   -0.0578    0.0047    0.0162
           8    0.0116    0.0917   -0.0159    0.0122    0.0561   -0.0310    0.0029    0.0063
           9   -0.0179   -0.0613    0.2112   -0.0682    0.0396   -0.0130    0.0000    0.0027
          10   -0.0006    0.0148   -0.0237   -0.0825   -0.0196    0.0984   -0.0011   -0.0041
          11    0.0117    0.1124   -0.0245   -0.0508    0.0336    0.0483    0.0005   -0.0005
          12   -0.0032   -0.0446    0.2327   -0.1223    0.1055   -0.0188    0.0016    0.0075
          13   -0.0017    0.0098   -0.0226   -0.0864   -0.0207    0.1208   -0.0019   -0.0055
          14    0.0049    0.0692   -0.0032   -0.0455   -0.0114    0.0494   -0.0010   -0.0018
          15   -0.0032   -0.0601    0.3550   -0.2062    0.1930   -0.0358    0.0038    0.0144
          16    0.0015    0.0408   -0.0292   -0.0865    0.0223    0.1792   -0.0034   -0.0112
          17    0.0027    0.0471    0.0059   -0.0432   -0.0415   -0.0015    0.0004    0.0029
          18    0.0002   -0.0332    0.2088   -0.1245    0.1164   -0.0240    0.0026    0.0092
          19    0.0090    0.0722   -0.0404    0.0792    0.2109    0.0295    0.0074    0.0218
          20    0.0016    0.0428    0.0302   -0.0686   -0.1210   -0.0424    0.0006    0.0029
          21   -0.0115    0.0266   -0.1406    0.0841   -0.0815    0.0153   -0.0030   -0.0038
          22    0.0188    0.1153   -0.0585    0.0213    0.1849    0.0773   -0.0091   -0.0363
          23    0.0175    0.1402   -0.0347    0.0120    0.0921   -0.0749   -0.0007   -0.0030
          24    0.0355    0.0505   -0.1958    0.0622   -0.0835   -0.0119    0.0020   -0.0093
          25   -0.0091   -0.0468   -0.0313   -0.1898   -0.0774    0.4261   -0.0164   -0.0428
          26    0.0165    0.1539   -0.0133    0.0015    0.0765   -0.1338    0.0096    0.0221
          27    0.0279    0.0757   -0.2998    0.1367   -0.1100    0.0063   -0.0004   -0.0067
          28   -0.0215   -0.2290   -0.0021    0.5081    0.4327   -0.1806    0.0031    0.0017
          29   -0.0052   -0.0622    0.0269    0.2794    0.2504   -0.1391    0.0025    0.0045
          30   -0.0063    0.0192   -0.1356    0.0870   -0.0767    0.0105   -0.0012   -0.0052
          31    0.0017    0.0429   -0.0311   -0.0932    0.0290    0.1995   -0.0037   -0.0123
          32    0.0004    0.0565    0.0147   -0.1995   -0.1726    0.0869   -0.0035   -0.0011
          33    0.0180    0.0692   -0.3293    0.1685   -0.1669    0.0280   -0.0014   -0.0103
          34    0.0011   -0.0105    0.0008   -0.0298   -0.0940   -0.1261    0.0064    0.0165
          35   -0.0244   -0.1786    0.0836    0.1328   -0.0824    0.1212   -0.0075    0.0000
          36   -0.0255   -0.0182    0.0087    0.0698   -0.0830    0.0060   -0.0010    0.0075
          37    0.0031   -0.0225   -0.0035   -0.0173   -0.0601   -0.0934    0.0055    0.0128
          38   -0.0060   -0.1055    0.0520    0.0605   -0.0600    0.0567   -0.0085   -0.0150
          39   -0.0148    0.0385   -0.0146    0.0438   -0.0338    0.0108   -0.0012    0.0042
          40    0.0048   -0.0205   -0.0019   -0.0235   -0.0650   -0.1077    0.0063    0.0155
          41    0.0135   -0.0184    0.0020    0.0233   -0.1039   -0.0528    0.0003    0.0181
          42   -0.0151    0.0516    0.0332    0.0900    0.1168    0.2815   -0.0231   -0.0434
          43   -0.0143   -0.1833    0.1152    0.0744   -0.1402    0.0181   -0.0126   -0.0154
          44   -0.0065   -0.1189    0.0672    0.0733   -0.0638    0.0803   -0.0109   -0.0169
          45    0.0133    0.3413   -0.1834   -0.1302    0.1456   -0.1683    0.0299    0.0642
          46    0.0195    0.0311   -0.0066   -0.1205    0.1041   -0.0929    0.0145    0.0136
          47    0.0266    0.0391    0.0050   -0.0481    0.1252    0.1005   -0.0039   -0.0146
          48   -0.0367   -0.0466    0.0087    0.1396   -0.1864   -0.0064   -0.0071    0.0047
          49   -0.0049   -0.0287   -0.0098   -0.0123   -0.0736   -0.0917    0.0036    0.0038
          50   -0.0108   -0.0391    0.0269    0.0454   -0.0439    0.0229   -0.0027   -0.0016
          51   -0.0196   -0.0712    0.0175    0.0432   -0.0996   -0.0394   -0.0024   -0.0083
          52   -0.0067   -0.0257   -0.0131   -0.0000   -0.0787   -0.0822    0.0031    0.0052
          53   -0.0044    0.1277    0.0094   -0.0127   -0.0235   -0.0548    0.0039    0.0166
          54   -0.0129   -0.0920    0.0821   -0.0090   -0.1351   -0.1266    0.0051    0.0158
          55   -0.0189   -0.0547   -0.0373    0.0749   -0.0940   -0.0052   -0.0037   -0.0089
          56   -0.0163    0.0526    0.0171    0.0487   -0.0313    0.0263   -0.0005    0.0125
          57   -0.0294   -0.1150    0.0106    0.1107   -0.1220    0.0280   -0.0076   -0.0161
          58    0.0347   -0.0199   -0.0193   -0.0175    0.0074   -0.0109   -0.0074   -0.0273
          59    0.0422    0.0062   -0.0278   -0.0339    0.0144   -0.0451   -0.0223   -0.0248
          60    0.1452    0.0035   -0.0002   -0.0002    0.0062    0.0042   -0.0344    0.0051
          61    0.0710   -0.0192   -0.0134   -0.0169    0.0055   -0.0121   -0.0037   -0.0068
          62   -0.0205    0.0138    0.0025    0.0027    0.0008    0.0005    0.0138    0.0333
          63    0.0679   -0.0024    0.0008    0.0025   -0.0016   -0.0001    0.0364    0.0099
          64    0.0544   -0.0101   -0.0016   -0.0008    0.0028    0.0066   -0.0108   -0.0174
          65   -0.0972    0.0231    0.0061    0.0053    0.0015    0.0001    0.0050   -0.0251
          66   -0.0078   -0.0063   -0.0027    0.0014   -0.0007    0.0036    0.0339   -0.0173
          67   -0.0114   -0.0092   -0.0035   -0.0059    0.0039   -0.0019   -0.0135   -0.0204
          68   -0.0453   -0.0079   -0.0118   -0.0089    0.0063   -0.0034   -0.0647    0.0012
          69   -0.0931    0.0001   -0.0030   -0.0023    0.0015   -0.0023   -0.0104   -0.0005
          70   -0.0475   -0.0225   -0.0146   -0.0147    0.0054   -0.0078    0.0224   -0.0081
          71   -0.0100   -0.0362   -0.0238   -0.0162    0.0080    0.0016   -0.0022    0.0289
          72   -0.0056    0.0146    0.0131    0.0097   -0.0033    0.0067    0.0275    0.0284
          73   -0.0427   -0.0195   -0.0131   -0.0088    0.0038    0.0043    0.0209   -0.0142
          74    0.0579   -0.0125   -0.0025    0.0014   -0.0004   -0.0004    0.0118   -0.0348
          75    0.0773    0.0153    0.0158    0.0089   -0.0056   -0.0012    0.0321   -0.0079
          76   -0.0192    0.0467    0.1515   -0.0183   -0.3448   -0.3994    0.0029    0.0424
          77   -0.0274   -0.3403    0.0136   -0.0338   -0.0938   -0.0956   -0.0119   -0.0942
          78    0.0625   -0.0220   -0.2560   -0.1743    0.2127   -0.0261   -0.0013   -0.0695
          79   -0.0228   -0.0415   -0.0336   -0.0387    0.0094   -0.0325    0.1163   -0.0645
          80   -0.0420    0.0024   -0.0167   -0.0174    0.0142   -0.0107   -0.2468    0.0042
          81   -0.0197   -0.0236   -0.0156   -0.0146   -0.0006   -0.0163    0.2210   -0.0372
          82    0.2534   -0.0175   -0.0271   -0.0401    0.0159   -0.0457   -0.1352    0.0035
          83   -0.1319    0.0333    0.0269    0.0287   -0.0085    0.0294    0.1833    0.0853
          84    0.1210   -0.0351   -0.0362   -0.0328    0.0109   -0.0352   -0.1763   -0.1043
          85    0.0007   -0.0056   -0.0013   -0.0006    0.0043    0.0030   -0.1553   -0.1655
          86   -0.0868    0.0263   -0.0031   -0.0048    0.0049   -0.0186   -0.1270   -0.0676
          87    0.1255   -0.0197   -0.0105   -0.0074   -0.0019   -0.0016    0.2779    0.2600
          88    0.2257   -0.0270   -0.0089   -0.0084   -0.0016   -0.0004    0.0950    0.2107
          89   -0.1121    0.0408    0.0181    0.0164    0.0011    0.0114    0.1477    0.1024
          90   -0.0379   -0.0326   -0.0243   -0.0183    0.0038   -0.0148   -0.2596   -0.3056
          91   -0.0214    0.0557    0.0458    0.0342   -0.0111    0.0023    0.0498   -0.4117
          92    0.0526   -0.0122   -0.0117   -0.0091    0.0019   -0.0049    0.0120    0.0847
          93    0.0167    0.0026    0.0033    0.0023   -0.0062   -0.0049    0.0963    0.0569
          94    0.0342   -0.0600   -0.0398   -0.0386    0.0154   -0.0064   -0.0405    0.4713
          95    0.0709    0.0121    0.0100    0.0113   -0.0046    0.0066    0.0324   -0.0942
          96   -0.2535   -0.0039   -0.0158   -0.0149    0.0104   -0.0141   -0.1049   -0.0867
          97    0.0267   -0.0052    0.0008   -0.0038   -0.0002   -0.0085    0.1889   -0.1840
          98   -0.0753   -0.0438   -0.0580   -0.0549    0.0246   -0.0324   -0.2195    0.0937
          99    0.0971    0.0393    0.0411    0.0324   -0.0152    0.0125    0.2627   -0.1744
         100   -0.1599   -0.0581   -0.0462   -0.0386    0.0221   -0.0079   -0.1316    0.2199
         101    0.0730   -0.0430   -0.0180   -0.0060    0.0023    0.0174    0.2247   -0.1736
         102   -0.0711    0.0546    0.0245    0.0080   -0.0033   -0.0218   -0.2733    0.2078
         103    0.0107   -0.0267   -0.0191   -0.0096    0.0116    0.0121   -0.1303   -0.0394
         104   -0.0241   -0.0160   -0.0177   -0.0224    0.0191   -0.0195   -0.1989   -0.0176
         105   -0.0554    0.0311    0.0229    0.0058   -0.0129   -0.0178    0.2464    0.0440
         106   -0.2667   -0.0440   -0.0333   -0.0255    0.0078    0.0257    0.1405    0.0682
         107    0.0760   -0.0436   -0.0079   -0.0000   -0.0017    0.0150    0.1427   -0.0626
         108    0.1098    0.0669    0.0188    0.0029    0.0014   -0.0438   -0.2426    0.0179
         109    0.0104   -0.0554   -0.0621   -0.0587    0.0264   -0.0212    0.0027    0.0205
         110   -0.1403   -0.0337   -0.1654   -0.1918    0.1001   -0.1730    0.0795   -0.1002
         111    0.3478    0.0589    0.1606    0.1840   -0.0894    0.1497   -0.1313    0.0718
[...]
 TRAVEL (Ang.)       0.4902         C 25 -- H 36         +11.4% ( 36.9%)      0.1%
 REDUCED MASS        0.2064         C 21 -- H 27         +11.1% ( 36.4%)      0.7%
 EFFECTIVE MASS      2.9215
 FORCE CONSTANT      0.2248

 VIBRATION         83   83A           ATOM PAIR      ENERGY CONTRIBUTION    RADIAL
 FREQUENCY          1363.14         C  3 -- C 12         +13.9% ( 46.6%)     92.4%
 TRANSITION DIPOLE   0.8023         C 13 -- H 16         +11.2% ( 41.9%)      0.3%
 TRAVEL (Ang.)       0.3246         C 13 -- H 15          +9.7% ( 38.9%)      1.2%
 REDUCED MASS        0.4695         C  2 -- C  3          +7.1% ( 33.3%)     80.7%
 EFFECTIVE MASS      5.8148
 FORCE CONSTANT      0.5140

 VIBRATION         84   84A           ATOM PAIR      ENERGY CONTRIBUTION    RADIAL
 FREQUENCY          1383.93         C 24 -- H 33         +17.5% ( 46.4%)      0.0%
 TRANSITION DIPOLE   0.5616         C 25 -- H 35         +14.3% ( 41.9%)      0.4%
 TRAVEL (Ang.)       0.3764         C 24 -- H 34         +13.2% ( 40.2%)      0.0%
 REDUCED MASS        0.3440         C 23 -- H 31         +12.1% ( 38.5%)      0.4%
 EFFECTIVE MASS      2.9502
 FORCE CONSTANT      0.3882

 VIBRATION         85   85A           ATOM PAIR      ENERGY CONTRIBUTION    RADIAL
 FREQUENCY          1385.14         C 21 -- H 27         +19.0% ( 48.8%)      0.2%
 TRANSITION DIPOLE   0.6389         C 21 -- H 28         +15.9% ( 44.6%)      0.2%
 TRAVEL (Ang.)       0.3730         C 22 -- H 29         +15.0% ( 43.4%)      0.1%
 REDUCED MASS        0.3499         C 22 -- H 30         +11.9% ( 38.6%)      0.0%
 EFFECTIVE MASS      3.1175
 FORCE CONSTANT      0.3956

 VIBRATION         86   86A           ATOM PAIR      ENERGY CONTRIBUTION    RADIAL
 FREQUENCY          1389.61         C  3 -- C 12         +17.1% ( 51.2%)     90.2%
 TRANSITION DIPOLE   0.7530         C 13 -- H 14         +11.3% ( 41.7%)      0.0%
 TRAVEL (Ang.)       0.2746         C 12 -- N 17          +7.2% ( 33.2%)      5.1%
 REDUCED MASS        0.6436         C 12 -- H 26          +7.1% ( 33.0%)      0.0%
 EFFECTIVE MASS      5.7866
 FORCE CONSTANT      0.7322

 VIBRATION         87   87A           ATOM PAIR      ENERGY CONTRIBUTION    RADIAL
 FREQUENCY          1412.78         H 39 -- O 40         +37.5% ( 69.7%)      0.2%
 TRANSITION DIPOLE   1.6306         N 20 -- H 39         +36.7% ( 68.9%)     21.3%
 TRAVEL (Ang.)       0.3391         N 20 -- H 37         +13.5% ( 41.8%)      1.6%
 REDUCED MASS        0.4151         H 38 -- O 40          +3.0% ( 19.8%)      9.5%
 EFFECTIVE MASS      1.6616
 FORCE CONSTANT      0.4882

 VIBRATION         88   88A           ATOM PAIR      ENERGY CONTRIBUTION    RADIAL
 FREQUENCY          1448.42         C  1 -- C  2         +13.6% ( 57.3%)     99.9%
 TRANSITION DIPOLE   0.3768         C  2 -- C  3         +12.7% ( 55.2%)     96.7%
 TRAVEL (Ang.)       0.1769         C  3 -- C  4         +12.5% ( 54.9%)     99.9%
 REDUCED MASS        1.4877         C  1 -- C  6         +11.4% ( 52.5%)     98.2%
 EFFECTIVE MASS      9.9580         C  5 -- C  6         +10.0% ( 49.1%)     99.8%
 FORCE CONSTANT      1.8389

 VIBRATION         89   89A           ATOM PAIR      ENERGY CONTRIBUTION    RADIAL
 FREQUENCY          1484.20         N 20 -- H 37         +77.0% ( 92.2%)      0.0%
 TRANSITION DIPOLE   0.5858         N 20 -- H 39          +5.7% ( 25.0%)      0.3%
 TRAVEL (Ang.)       0.2415         N 20 -- C 25          +4.4% ( 22.0%)     38.1%
 REDUCED MASS        0.7789         N 20 -- C 21          +4.3% ( 21.8%)     34.5%
 EFFECTIVE MASS      2.1191
 FORCE CONSTANT      1.0109

 VIBRATION         90   90A           ATOM PAIR      ENERGY CONTRIBUTION    RADIAL
 FREQUENCY          1510.45         C  4 -- C  5         +13.0% ( 50.3%)     96.6%
 TRANSITION DIPOLE   2.2044         C  5 -- C  6         +10.5% ( 45.1%)     29.2%
 TRAVEL (Ang.)       0.1949         C  1 -- C  6         +10.3% ( 44.7%)     16.0%
 REDUCED MASS        1.1747         C  6 -- H 11         +10.2% ( 44.5%)      0.2%
 EFFECTIVE MASS      9.9901         C  1 -- C  2         +10.2% ( 44.5%)     99.3%
 FORCE CONSTANT      1.5790

 VIBRATION         91   91A           ATOM PAIR      ENERGY CONTRIBUTION    RADIAL
 FREQUENCY          1522.04         N 17 -- O 19         +26.1% ( 70.2%)     60.7%
 TRANSITION DIPOLE   3.9960         N 17 -- O 18         +26.1% ( 70.2%)     62.5%
 TRAVEL (Ang.)       0.1088         C 12 -- N 17         +17.3% ( 57.2%)     97.6%
 REDUCED MASS        3.7415         O 18 -- O 19         +11.6% ( 46.8%)    100.0%
 EFFECTIVE MASS     13.5717
 FORCE CONSTANT      5.1068

 VIBRATION         92   92A           ATOM PAIR      ENERGY CONTRIBUTION    RADIAL
 FREQUENCY          1565.25         C  2 -- C  3         +17.5% ( 58.6%)     63.2%
 TRANSITION DIPOLE   1.6141         C  3 -- C  4         +13.0% ( 50.6%)     62.6%
 TRAVEL (Ang.)       0.1702         C  3 -- C 12         +10.0% ( 44.4%)     99.6%
 REDUCED MASS        1.4864         C  2 -- H  8          +8.3% ( 40.5%)      2.8%
 EFFECTIVE MASS     10.3508
 FORCE CONSTANT      2.1456

 VIBRATION         93   93A           ATOM PAIR      ENERGY CONTRIBUTION    RADIAL
 FREQUENCY          1615.39         N 17 -- O 18         +35.8% ( 85.2%)     88.8%
 TRANSITION DIPOLE  11.0946         N 17 -- O 19         +34.9% ( 84.1%)     87.3%
 TRAVEL (Ang.)       0.0792         C 12 -- N 17         +21.1% ( 65.5%)      0.0%
 REDUCED MASS        6.6557         O 18 -- O 19          +6.3% ( 35.8%)      0.1%
 EFFECTIVE MASS     14.5651
 FORCE CONSTANT     10.2329

 VIBRATION         94   94A           ATOM PAIR      ENERGY CONTRIBUTION    RADIAL
 FREQUENCY          1672.59         C  1 -- C  6         +18.7% ( 61.7%)     99.6%
 TRANSITION DIPOLE   1.9267         C  3 -- C  4         +18.0% ( 60.6%)     98.9%
 TRAVEL (Ang.)       0.1247         C  2 -- C  3         +11.6% ( 48.5%)     53.7%
 REDUCED MASS        2.5938         C  5 -- C  6          +9.2% ( 43.3%)     62.0%
 EFFECTIVE MASS     11.9694
 FORCE CONSTANT      4.2752

 VIBRATION         95   95A           ATOM PAIR      ENERGY CONTRIBUTION    RADIAL
 FREQUENCY          1713.01         C  4 -- C  5         +18.7% ( 61.6%)     92.9%
 TRANSITION DIPOLE   0.8533         C  5 -- C  6         +16.5% ( 57.7%)     82.5%
 TRAVEL (Ang.)       0.1240         C  1 -- C  2         +14.1% ( 53.5%)     96.5%
 REDUCED MASS        2.5604         C  2 -- C  3         +10.8% ( 46.8%)     76.9%
 EFFECTIVE MASS     11.9869
 FORCE CONSTANT      4.4267

 VIBRATION         96   96A           ATOM PAIR      ENERGY CONTRIBUTION    RADIAL
 FREQUENCY          2624.98         C 25 -- H 35         +49.6% ( 73.0%)     98.6%
 TRANSITION DIPOLE   0.6306         C 25 -- H 36         +41.5% ( 66.8%)     97.7%
 TRAVEL (Ang.)       0.2428         C 24 -- H 34          +3.2% ( 18.5%)     98.7%
 REDUCED MASS        0.4358         N 20 -- H 37          +1.7% ( 13.5%)    100.0%
 EFFECTIVE MASS      1.4373
 FORCE CONSTANT      1.7690

 VIBRATION         97   97A           ATOM PAIR      ENERGY CONTRIBUTION    RADIAL
 FREQUENCY          2630.43         C 21 -- H 28         +46.0% ( 70.4%)     98.3%
 TRANSITION DIPOLE   0.6006         C 21 -- H 27         +42.4% ( 67.6%)     98.1%
 TRAVEL (Ang.)       0.2502         C 22 -- H 30          +5.0% ( 23.2%)     98.7%
 REDUCED MASS        0.4096         C 22 -- H 29          +2.3% ( 15.8%)     97.7%
 EFFECTIVE MASS      1.4295
 FORCE CONSTANT      1.6698

 VIBRATION         98   98A           ATOM PAIR      ENERGY CONTRIBUTION    RADIAL
 FREQUENCY          2646.47         C 23 -- H 32         +29.3% ( 56.2%)     98.7%
 TRANSITION DIPOLE   0.5769         C 23 -- H 31         +18.5% ( 44.6%)     97.5%
 TRAVEL (Ang.)       0.3763         C 24 -- H 34         +14.9% ( 40.0%)     98.1%
 REDUCED MASS        0.1799         C 24 -- H 33         +12.8% ( 37.1%)     98.3%
 EFFECTIVE MASS      1.4152         C 22 -- H 30         +10.2% ( 33.1%)     98.3%
 FORCE CONSTANT      0.7426

 VIBRATION         99   99A           ATOM PAIR      ENERGY CONTRIBUTION    RADIAL
 FREQUENCY          2652.35         C 13 -- H 14         +61.5% ( 81.0%)     99.3%
 TRANSITION DIPOLE   0.8931         C 13 -- H 15         +31.5% ( 58.0%)     94.5%
 TRAVEL (Ang.)       0.2261         C 13 -- H 16          +6.0% ( 25.3%)     62.6%
 REDUCED MASS        0.4972         C 12 -- C 13          +0.9% (  9.7%)      0.0%
 EFFECTIVE MASS      1.4468
 FORCE CONSTANT      2.0607

 VIBRATION        100  100A           ATOM PAIR      ENERGY CONTRIBUTION    RADIAL
 FREQUENCY          2654.69         C 13 -- H 16         +57.8% ( 78.5%)     99.2%
 TRANSITION DIPOLE   0.9311         C 13 -- H 15         +36.2% ( 62.1%)     95.4%
 TRAVEL (Ang.)       0.2294         C 13 -- H 14          +4.9% ( 22.9%)     56.4%
 REDUCED MASS        0.4826         C 12 -- C 13          +0.9% (  9.6%)      0.2%
 EFFECTIVE MASS      1.4445
 FORCE CONSTANT      2.0039

 VIBRATION        101  101A           ATOM PAIR      ENERGY CONTRIBUTION    RADIAL
 FREQUENCY          2655.12         C 24 -- H 33         +24.6% ( 51.2%)     98.4%
 TRANSITION DIPOLE   0.3432         C 22 -- H 29         +23.0% ( 49.5%)     98.1%
 TRAVEL (Ang.)       0.3442         C 22 -- H 30         +22.6% ( 49.1%)     98.1%
 REDUCED MASS        0.2143         C 24 -- H 34         +20.5% ( 46.8%)     97.8%
 EFFECTIVE MASS      1.4333
 FORCE CONSTANT      0.8902

 VIBRATION        102  102A           ATOM PAIR      ENERGY CONTRIBUTION    RADIAL
 FREQUENCY          2664.18         C 23 -- H 31         +27.7% ( 54.2%)     98.2%
 TRANSITION DIPOLE   1.0104         C 23 -- H 32         +21.4% ( 47.7%)     97.8%
 TRAVEL (Ang.)       0.3654         C 22 -- H 29         +16.3% ( 41.7%)     98.6%
 REDUCED MASS        0.1896         C 24 -- H 33         +13.1% ( 37.2%)     98.8%
 EFFECTIVE MASS      1.4563         C 22 -- H 30         +10.5% ( 33.5%)     97.2%
 FORCE CONSTANT      0.7928

 VIBRATION        103  103A           ATOM PAIR      ENERGY CONTRIBUTION    RADIAL
 FREQUENCY          2706.60         N 20 -- H 37         +37.2% ( 60.5%)     99.8%
 TRANSITION DIPOLE   0.7974         C 25 -- H 35         +30.6% ( 54.9%)     97.3%
 TRAVEL (Ang.)       0.2883         C 25 -- H 36         +27.2% ( 51.8%)     96.2%
 REDUCED MASS        0.2998         C  2 -- H  8          +1.3% ( 11.2%)    100.0%
 EFFECTIVE MASS      1.2456
 FORCE CONSTANT      1.2941

 VIBRATION        104  104A           ATOM PAIR      ENERGY CONTRIBUTION    RADIAL
 FREQUENCY          2711.06         N 20 -- H 37         +41.3% ( 63.8%)     99.6%
 TRANSITION DIPOLE   1.0283         C 25 -- H 36         +22.1% ( 46.7%)     98.0%
 TRAVEL (Ang.)       0.3156         C 21 -- H 27         +16.2% ( 40.0%)     98.5%
 REDUCED MASS        0.2497         C 25 -- H 35          +9.1% ( 29.9%)     90.6%
 EFFECTIVE MASS      1.2847
 FORCE CONSTANT      1.0811

 VIBRATION        105  105A           ATOM PAIR      ENERGY CONTRIBUTION    RADIAL
 FREQUENCY          2717.12         C 21 -- H 28         +40.9% ( 63.2%)     96.9%
 TRANSITION DIPOLE   0.9382         C 21 -- H 27         +31.4% ( 55.3%)     95.2%
 TRAVEL (Ang.)       0.2880         N 20 -- H 37         +17.9% ( 41.8%)     99.5%
 REDUCED MASS        0.2991         C 25 -- H 36          +5.1% ( 22.2%)     97.8%
 EFFECTIVE MASS      1.2835
 FORCE CONSTANT      1.3011

 VIBRATION        106  106A           ATOM PAIR      ENERGY CONTRIBUTION    RADIAL
 FREQUENCY          2729.84         C  4 -- H  9         +83.7% ( 92.5%)    100.0%
 TRANSITION DIPOLE   1.7555         C  6 -- H 11         +10.2% ( 32.3%)    100.0%
 TRAVEL (Ang.)       0.1887         C  1 -- H  7          +3.8% ( 19.7%)    100.0%
 REDUCED MASS        0.6937         C  3 -- C  4          +0.9% (  9.8%)     22.9%
 EFFECTIVE MASS      1.3801
 FORCE CONSTANT      3.0457

 VIBRATION        107  107A           ATOM PAIR      ENERGY CONTRIBUTION    RADIAL
 FREQUENCY          2731.88         C  1 -- H  7         +57.3% ( 76.5%)    100.0%
 TRANSITION DIPOLE   0.5725         C  6 -- H 11         +34.3% ( 59.2%)     99.9%
 TRAVEL (Ang.)       0.2378         C  2 -- H  8          +5.9% ( 24.4%)     99.6%
 REDUCED MASS        0.4364         C  1 -- C  6          +0.9% (  9.3%)      0.1%
 EFFECTIVE MASS      1.3673
 FORCE CONSTANT      1.9188

 VIBRATION        108  108A           ATOM PAIR      ENERGY CONTRIBUTION    RADIAL
 FREQUENCY          2736.90         C  6 -- H 11         +41.0% ( 64.5%)    100.0%
 TRANSITION DIPOLE   1.3574         C  2 -- H  8         +31.2% ( 56.3%)    100.0%
 TRAVEL (Ang.)       0.2999         C  1 -- H  7         +10.1% ( 32.0%)     99.6%
 REDUCED MASS        0.2739         C  4 -- H  9          +8.7% ( 29.7%)    100.0%
 EFFECTIVE MASS      1.3666
 FORCE CONSTANT      1.2088

 VIBRATION        109  109A           ATOM PAIR      ENERGY CONTRIBUTION    RADIAL
 FREQUENCY          2739.80         C 23 -- H 31         +42.9% ( 64.4%)     97.7%
 TRANSITION DIPOLE   0.6250         C 23 -- H 32         +32.0% ( 55.7%)     95.7%
 TRAVEL (Ang.)       0.2894         C 24 -- H 33          +8.1% ( 28.1%)     98.0%
 REDUCED MASS        0.2938         C 24 -- H 34          +5.1% ( 22.3%)     94.5%
 EFFECTIVE MASS      1.2225
 FORCE CONSTANT      1.2995

 VIBRATION        110  110A           ATOM PAIR      ENERGY CONTRIBUTION    RADIAL
 FREQUENCY          2740.79         C 24 -- H 34         +27.7% ( 51.7%)     97.2%
 TRANSITION DIPOLE   0.7018         C 22 -- H 29         +23.4% ( 47.5%)     96.8%
 TRAVEL (Ang.)       0.3263         C 24 -- H 33         +22.9% ( 47.0%)     95.8%
 REDUCED MASS        0.2311         C 22 -- H 30         +22.6% ( 46.8%)     96.6%
 EFFECTIVE MASS      1.2407
 FORCE CONSTANT      1.0227

 VIBRATION        111  111A           ATOM PAIR      ENERGY CONTRIBUTION    RADIAL
 FREQUENCY          2744.41         C 22 -- H 30         +25.8% ( 49.9%)     96.9%
 TRANSITION DIPOLE   0.7348         C 22 -- H 29         +20.1% ( 44.1%)     95.3%
 TRAVEL (Ang.)       0.3699         C 24 -- H 34         +19.5% ( 43.4%)     97.2%
 REDUCED MASS        0.1796         C 24 -- H 33         +12.9% ( 35.3%)     94.4%
 EFFECTIVE MASS      1.2816         C 23 -- H 32         +12.7% ( 35.1%)     97.4%
 FORCE CONSTANT      0.7969

 VIBRATION        112  112A           ATOM PAIR      ENERGY CONTRIBUTION    RADIAL
 FREQUENCY          2749.01         C  2 -- H  8         +52.0% ( 72.7%)    100.0%
 TRANSITION DIPOLE   1.3110         C  1 -- H  7         +25.5% ( 50.9%)    100.0%
 TRAVEL (Ang.)       0.2681         C  6 -- H 11         +10.4% ( 32.5%)    100.0%
 REDUCED MASS        0.3412         C  4 -- H  9          +4.5% ( 21.5%)    100.0%
 EFFECTIVE MASS      1.4255
 FORCE CONSTANT      1.5191

 VIBRATION        113  113A           ATOM PAIR      ENERGY CONTRIBUTION    RADIAL
 FREQUENCY          2770.53         H 38 -- O 40         +31.0% ( 54.0%)     99.9%
 TRANSITION DIPOLE   1.0314         C 13 -- H 16         +22.4% ( 45.9%)     95.5%
 TRAVEL (Ang.)       0.3230         C 13 -- H 14         +22.4% ( 45.9%)     95.5%
 REDUCED MASS        0.2333         C 13 -- H 15         +21.3% ( 44.7%)     95.3%
 EFFECTIVE MASS      1.2022
 FORCE CONSTANT      1.0551

 VIBRATION        114  114A           ATOM PAIR      ENERGY CONTRIBUTION    RADIAL
 FREQUENCY          2774.18         H 38 -- O 40         +64.0% ( 78.4%)     99.9%
 TRANSITION DIPOLE   0.8678         C 13 -- H 16         +12.2% ( 34.2%)     96.5%
 TRAVEL (Ang.)       0.2449         C 13 -- H 14          +9.3% ( 29.9%)     95.0%
 REDUCED MASS        0.4053         C 13 -- H 15          +9.0% ( 29.4%)     94.9%
 EFFECTIVE MASS      1.2742
 FORCE CONSTANT      1.8380

      SYMMETRY NUMBER FOR POINT-GROUP C1  =  1


          SYSTEM IS A GROUND STATE



 Title: ASE calculation


          MOLECULE IS NOT LINEAR

          THERE ARE  114 GENUINE VIBRATIONS IN THIS SYSTEM
          THIS THERMODYNAMICS CALCULATION IS LIMITED TO
          MOLECULES WHICH HAVE NO INTERNAL ROTATIONS




                    CALCULATED THERMODYNAMIC PROPERTIES
                                          *
   TEMP. (K)   PARTITION FUNCTION   H.O.F.    ENTHALPY  HEAT CAPACITY ENTROPY
                                   KCAL/MOL   CAL/MOLE    CAL/K/MOL  CAL/K/MOL


 298.00  VIB.     0.4350D+10                 11409.0030    70.4950    82.3882
         ROT.     0.8471D+07                   888.2803     2.9808    34.6811
         INT.     0.3685D+17                 12297.2833    73.4758   117.0693
         TRA.     0.4769D+28                  1480.4672     4.9680    42.8872
         TOT.                      -89.786   13777.7505    78.4438   159.9565

   *: NOTE: HEATS OF FORMATION ARE RELATIVE TO THE
            ELEMENTS IN THEIR STANDARD STATE AT 298K
              (=  Standard Enthalpy of Formation).

            Hvib:  Zero-point energy is not included.
                   frequencies of less than zero cm-1 are not included.
            Hrot = (3/2)RT
            Htra = (3/2)RT + pV = (5/2)RT

            Heat capacity is Cp, not Cv

          For more information, see: HTTP://OpenMOPAC.net/Manual/thermochemistry.html


           FORCE CONSTANT IN CARTESIAN COORDINATES (Millidynes/A)

    ATOM   CHEMICAL       X               Y               Z
   NUMBER   SYMBOL  FORCE CONSTANT  FORCE CONSTANT  FORCE CONSTANT

      1       C       11.219082       10.228712        2.358152
      2       C       11.404781       10.032358        2.369480
      3       C       10.885791       11.572364        2.743659
      4       C       11.232288       10.037163        2.185895
      5       C       11.260934        9.060043        1.759266
      6       C        9.943277       11.469344        2.214562
      7       H        1.726910        3.388912        0.392818
      8       H        1.736942        3.459773        0.368126
      9       H        1.739145        3.348490        0.350947
     10      Cl        1.291177        2.992327        0.142957
     11       H        4.188582        0.885107        0.368408
     12       C        8.672477        4.123350        7.482327
     13       C        6.304936        6.216014        6.597519
     14       H        4.031866        0.593748        0.712624
     15       H        0.723095        3.884016        0.693750
     16       H        0.937012        1.196929        3.220065
     17       N       13.875139        3.930962       11.346743
     18       O       11.527396        0.448050        1.564128
     19       O        4.810957        0.958254        7.644547
     20       N        8.029337        6.013208        7.089971
     21       C        6.995731        6.912263        7.018857
     22       C        6.865255        6.851026        6.775293
     23       C        6.906323        6.615135        6.968417
     24       C        6.990467        6.738317        6.681501
     25       C        6.933091        6.903248        6.951926
     26       H        0.812097        0.261665        0.655842
     27       H        2.361208        0.773536        2.398557
     28       H        1.126552        2.957570        1.478868
     29       H        3.376404        0.768401        1.393222
     30       H        0.797391        3.194149        1.599530
     31       H        0.844817        2.671580        2.061986
     32       H        1.051746        2.620533        1.913671
     33       H        2.472055        0.800517        2.262812
     34       H        1.089688        3.041541        1.453897
     35       H        3.206993        0.763279        1.551088
     36       H        0.805853        3.127008        1.630477
     37       H        1.352599        2.379016        2.290529
     38       H        1.311312        0.499504        3.084247
     39       H        0.795316        0.315144        0.803798
     40       O        1.997522        2.501359        3.546672

 **********************
 *                    *
 * JOB ENDED NORMALLY *
 *                    *
 **********************



 TOTAL JOB TIME:            71.26 SECONDS

 == MOPAC DONE ==
