
                                 *****************
                                 * O   R   C   A *
                                 *****************

                                            #,                                       
                                            ###                                      
                                            ####                                     
                                            #####                                    
                                            ######                                   
                                           ########,                                 
                                     ,,################,,,,,                         
                               ,,#################################,,                 
                          ,,##########################################,,             
                       ,#########################################, ''#####,          
                    ,#############################################,,   '####,        
                  ,##################################################,,,,####,       
                ,###########''''           ''''###############################       
              ,#####''   ,,,,##########,,,,          '''####'''          '####       
            ,##' ,,,,###########################,,,                        '##       
           ' ,,###''''                  '''############,,,                           
         ,,##''                                '''############,,,,        ,,,,,,###''
      ,#''                                            '''#######################'''  
     '                                                          ''''####''''         
             ,#######,   #######,   ,#######,      ##                                
            ,#'     '#,  ##    ##  ,#'     '#,    #''#        ######   ,####,        
            ##       ##  ##   ,#'  ##            #'  '#       #        #'  '#        
            ##       ##  #######   ##           ,######,      #####,   #    #        
            '#,     ,#'  ##    ##  '#,     ,#' ,#      #,         ##   #,  ,#        
             '#######'   ##     ##  '#######'  #'      '#     #####' # '####'        



                  #######################################################
                  #                        -***-                        #
                  #          Department of theory and spectroscopy      #
                  #    Directorship and core code : Frank Neese         #
                  #        Max Planck Institute fuer Kohlenforschung    #
                  #                Kaiser Wilhelm Platz 1               #
                  #                 D-45470 Muelheim/Ruhr               #
                  #                      Germany                        #
                  #                                                     #
                  #                  All rights reserved                #
                  #                        -***-                        #
                  #######################################################


                         Program Version 5.0.4 -  RELEASE  -


 With contributions from (in alphabetic order):
   Daniel Aravena         : Magnetic Suceptibility
   Michael Atanasov       : Ab Initio Ligand Field Theory (pilot matlab implementation)
   Alexander A. Auer      : GIAO ZORA, VPT2 properties, NMR spectrum
   Ute Becker             : Parallelization
   Giovanni Bistoni       : ED, misc. LED, open-shell LED, HFLD
   Martin Brehm           : Molecular dynamics
   Dmytro Bykov           : SCF Hessian
   Vijay G. Chilkuri      : MRCI spin determinant printing, contributions to CSF-ICE
   Dipayan Datta          : RHF DLPNO-CCSD density
   Achintya Kumar Dutta   : EOM-CC, STEOM-CC
   Dmitry Ganyushin       : Spin-Orbit,Spin-Spin,Magnetic field MRCI
   Miquel Garcia          : C-PCM and meta-GGA Hessian, CC/C-PCM, Gaussian charge scheme
   Yang Guo               : DLPNO-NEVPT2, F12-NEVPT2, CIM, IAO-localization
   Andreas Hansen         : Spin unrestricted coupled pair/coupled cluster methods
   Benjamin Helmich-Paris : MC-RPA, TRAH-SCF, COSX integrals
   Lee Huntington         : MR-EOM, pCC
   Robert Izsak           : Overlap fitted RIJCOSX, COSX-SCS-MP3, EOM
   Marcus Kettner         : VPT2
   Christian Kollmar      : KDIIS, OOCD, Brueckner-CCSD(T), CCSD density, CASPT2, CASPT2-K
   Simone Kossmann        : Meta GGA functionals, TD-DFT gradient, OOMP2, MP2 Hessian
   Martin Krupicka        : Initial AUTO-CI
   Lucas Lang             : DCDCAS
   Marvin Lechner         : AUTO-CI (C++ implementation), FIC-MRCC
   Dagmar Lenk            : GEPOL surface, SMD
   Dimitrios Liakos       : Extrapolation schemes; Compound Job, initial MDCI parallelization
   Dimitrios Manganas     : Further ROCIS development; embedding schemes
   Dimitrios Pantazis     : SARC Basis sets
   Anastasios Papadopoulos: AUTO-CI, single reference methods and gradients
   Taras Petrenko         : DFT Hessian,TD-DFT gradient, ASA, ECA, R-Raman, ABS, FL, XAS/XES, NRVS
   Peter Pinski           : DLPNO-MP2, DLPNO-MP2 Gradient
   Christoph Reimann      : Effective Core Potentials
   Marius Retegan         : Local ZFS, SOC
   Christoph Riplinger    : Optimizer, TS searches, QM/MM, DLPNO-CCSD(T), (RO)-DLPNO pert. Triples
   Tobias Risthaus        : Range-separated hybrids, TD-DFT gradient, RPA, STAB
   Michael Roemelt        : Original ROCIS implementation
   Masaaki Saitow         : Open-shell DLPNO-CCSD energy and density
   Barbara Sandhoefer     : DKH picture change effects
   Avijit Sen             : IP-ROCIS
   Kantharuban Sivalingam : CASSCF convergence, NEVPT2, FIC-MRCI
   Bernardo de Souza      : ESD, SOC TD-DFT
   Georgi Stoychev        : AutoAux, RI-MP2 NMR, DLPNO-MP2 response
   Willem Van den Heuvel  : Paramagnetic NMR
   Boris Wezisla          : Elementary symmetry handling
   Frank Wennmohs         : Technical directorship


 We gratefully acknowledge several colleagues who have allowed us to
 interface, adapt or use parts of their codes:
   Stefan Grimme, W. Hujo, H. Kruse, P. Pracht,  : VdW corrections, initial TS optimization,
                  C. Bannwarth, S. Ehlert          DFT functionals, gCP, sTDA/sTD-DF
   Ed Valeev, F. Pavosevic, A. Kumar             : LibInt (2-el integral package), F12 methods
   Garnet Chan, S. Sharma, J. Yang, R. Olivares  : DMRG
   Ulf Ekstrom                                   : XCFun DFT Library
   Mihaly Kallay                                 : mrcc  (arbitrary order and MRCC methods)
   Jiri Pittner, Ondrej Demel                    : Mk-CCSD
   Frank Weinhold                                : gennbo (NPA and NBO analysis)
   Christopher J. Cramer and Donald G. Truhlar   : smd solvation model
   Lars Goerigk                                  : TD-DFT with DH, B97 family of functionals
   V. Asgeirsson, H. Jonsson                     : NEB implementation
   FAccTs GmbH                                   : IRC, NEB, NEB-TS, DLPNO-Multilevel, CI-OPT
                                                   MM, QMMM, 2- and 3-layer-ONIOM, Crystal-QMMM,
                                                   LR-CPCM, SF, NACMEs, symmetry and pop. for TD-DFT,
                                                   nearIR, NL-DFT gradient (VV10), updates on ESD,
                                                   ML-optimized integration grids
   S Lehtola, MJT Oliveira, MAL Marques          : LibXC Library
   Liviu Ungur et al                             : ANISO software


 Your calculation uses the libint2 library for the computation of 2-el integrals
 For citations please refer to: http://libint.valeyev.net

 Your ORCA version has been built with support for libXC version: 5.1.0
 For citations please refer to: https://tddft.org/programs/libxc/

 This ORCA versions uses:
   CBLAS   interface :  Fast vector & matrix operations
   LAPACKE interface :  Fast linear algebra routines
   SCALAPACK package :  Parallel linear algebra routines
   Shared memory     :  Shared parallel matrices
   BLAS/LAPACK       :  OpenBLAS 0.3.15  USE64BITINT DYNAMIC_ARCH NO_AFFINITY Prescott SINGLE_THREADED
        Core in use  :  Prescott
   Copyright (c) 2011-2014, The OpenBLAS Project


Your calculation utilizes the atom-pairwise dispersion correction
with the Becke-Johnson damping scheme (D3BJ)
Cite in your paper:
S.Grimme, S.Ehrlich, L.Goerigk, J Comput Chem, (2011), 32, 1456–1465 
S.Grimme, J.Antony, S.Ehrlich and H.Krieg, J.Chem.Phys., 132, (2010), 154104 
   

================================================================================

----- Orbital basis set information -----
Your calculation utilizes the basis: def2-TZVP
   F. Weigend and R. Ahlrichs, Phys. Chem. Chem. Phys. 7, 3297 (2005).

----- AuxJ basis set information -----
Your calculation utilizes the auxiliary basis: def2/J
   F. Weigend, Phys. Chem. Chem. Phys. 8, 1057 (2006).

================================================================================
                                        WARNINGS
                       Please study these warnings very carefully!
================================================================================

WARNING: Gradients needed for Numerical Frequencies
  ===> : Setting RunTyp to EnGrad

INFO   : the flag for use of the SHARK integral package has been found!

================================================================================
                                       INPUT FILE
================================================================================
NAME = /home/rudenko/mop_saddle_orca_4_serv/for_orca/ch3no2_ch3coo_new/orca/start_freq_D/start_f_D.inp
|  1> !  NUMFREQ B3LYP def2-TZVP CPCM D3 
|  2> %pal nprocs 102 end
|  3> %cpcm epsilon 78.4 end 
|  4> *xyz -1 1 
|  5> C   0.74816626743471 -1.38588318907674 1.59328564605549
|  6> H   1.39789797136856 -1.47273734124552 0.72838648092626 M = 2
|  7> H   0.95564188327355 -0.46404791948582 2.13564808314259
|  8> H   0.8078083776349 -2.24584288452927 2.25167951293382
|  9> N   -0.65795523078564 -1.27382636985729 1.10696612614734
| 10> O   -1.54417562277645 -1.75892713981927 1.78781128693849
| 11> O   -0.85590243531584 -0.67260467291854 0.05923140509838
| 12> C   0.14147686584681 2.80110437006251 -3.92139197298764
| 13> O   0.29775517849708 2.5712716237003 -2.68265085000067
| 14> O   0.59411494917581 2.10067926364336 -4.8549091857159
| 15> C   -0.67839433934381 4.04607146878757 -4.26713071456473
| 16> H   -0.70261364558749 4.22712999003463 -5.3404173624663
| 17> H   -0.25868295870813 4.91779225874295 -3.76098148236593
| 18> H   -1.70124260094266 3.92080156162459 -3.90209569837155
| 19> H   0.9770223111547 1.08676324984816 -2.21603738656194
| 20> O   1.32393033828143 0.21579023294388 -1.88114820405834
| 21> H   0.64589400079248 -0.10573260245554 -1.27169508414929
| 22> *
| 23> 
| 24>                          ****END OF INPUT****
================================================================================

                     *******************************
                     * Energy+Gradient Calculation *
                     *******************************

---------------------------------
CARTESIAN COORDINATES (ANGSTROEM)
---------------------------------
  C      0.748166   -1.385883    1.593286
  H      1.397898   -1.472737    0.728386
  H      0.955642   -0.464048    2.135648
  H      0.807808   -2.245843    2.251680
  N     -0.657955   -1.273826    1.106966
  O     -1.544176   -1.758927    1.787811
  O     -0.855902   -0.672605    0.059231
  C      0.141477    2.801104   -3.921392
  O      0.297755    2.571272   -2.682651
  O      0.594115    2.100679   -4.854909
  C     -0.678394    4.046071   -4.267131
  H     -0.702614    4.227130   -5.340417
  H     -0.258683    4.917792   -3.760981
  H     -1.701243    3.920802   -3.902096
  H      0.977022    1.086763   -2.216037
  O      1.323930    0.215790   -1.881148
  H      0.645894   -0.105733   -1.271695

----------------------------
CARTESIAN COORDINATES (A.U.)
----------------------------
  NO LB      ZA    FRAG     MASS         X           Y           Z
   0 C     6.0000    0    12.011    1.413829   -2.618940    3.010874
   1 H     1.0000    0     2.000    2.641644   -2.783070    1.376451
   2 H     1.0000    0     1.008    1.805901   -0.876923    4.035790
   3 H     1.0000    0     1.008    1.526537   -4.244028    4.255058
   4 N     7.0000    0    14.007   -1.243355   -2.407183    2.091863
   5 O     8.0000    0    15.999   -2.918069   -3.323891    3.378474
   6 O     8.0000    0    15.999   -1.617421   -1.271039    0.111931
   7 C     6.0000    0    12.011    0.267353    5.293320   -7.410357
   8 O     8.0000    0    15.999    0.562676    4.858999   -5.069475
   9 O     8.0000    0    15.999    1.122715    3.969709   -9.174449
  10 C     6.0000    0    12.011   -1.281980    7.645967   -8.063708
  11 H     1.0000    0     1.008   -1.327747    7.988118  -10.091926
  12 H     1.0000    0     1.008   -0.488840    9.293281   -7.107225
  13 H     1.0000    0     1.008   -3.214883    7.409241   -7.373892
  14 H     1.0000    0     1.008    1.846305    2.053685   -4.187704
  15 O     8.0000    0    15.999    2.501866    0.407784   -3.554855
  16 H     1.0000    0     1.008    1.220563   -0.199806   -2.403155

--------------------------------
INTERNAL COORDINATES (ANGSTROEM)
--------------------------------
 C      0   0   0     0.000000000000     0.00000000     0.00000000
 H      1   0   0     1.085239833717     0.00000000     0.00000000
 H      1   2   0     1.089487681708   110.51453600     0.00000000
 H      1   2   3     1.084698272818   112.79128224   235.10765021
 N      1   2   3     1.492059339951   108.08721600   115.76360538
 O      5   1   2     1.218301880968   118.25987599   146.97752421
 O      5   1   2     1.224090956728   117.92158390   325.40323963
 C      7   5   1     5.376502809805   157.07885329   336.78912764
 O      8   7   5     1.269537542605    35.25963187   328.60658259
 O      8   7   5     1.251771125503   104.93362633   100.35846919
 C      8   7   5     1.530250681240   126.40773361   244.90211332
 H     11   8   7     1.088720805108   111.71263958   214.84850612
 H     11   8   7     1.091898266292   109.80616916    93.24065046
 H     11   8   7     1.093234503180   109.42760676   335.78843517
 H      9   8   7     1.697909618857   118.40362978    52.98142416
 O     15   9   8     0.995535001905   175.39579946   218.35937875
 H     16  15   9     0.966717804742   104.98970168    16.46489499

---------------------------
INTERNAL COORDINATES (A.U.)
---------------------------
 C      0   0   0     0.000000000000     0.00000000     0.00000000
 H      1   0   0     2.050806075348     0.00000000     0.00000000
 H      1   2   0     2.058833344708   110.51453600     0.00000000
 H      1   2   3     2.049782673564   112.79128224   235.10765021
 N      1   2   3     2.819583528067   108.08721600   115.76360538
 O      5   1   2     2.302256903471   118.25987599   146.97752421
 O      5   1   2     2.313196671225   117.92158390   325.40323963
 C      7   5   1    10.160117868790   157.07885329   336.78912764
 O      8   7   5     2.399078272255    35.25963187   328.60658259
 O      8   7   5     2.365504609550   104.93362633   100.35846919
 C      8   7   5     2.891754703790   126.40773361   244.90211332
 H     11   8   7     2.057384157956   111.71263958   214.84850612
 H     11   8   7     2.063388689395   109.80616916    93.24065046
 H     11   8   7     2.065913811164   109.42760676   335.78843517
 H      9   8   7     3.208584179791   118.40362978    52.98142416
 O     15   9   8     1.881288510333   175.39579946   218.35937875
 H     16  15   9     1.826831899748   104.98970168    16.46489499

---------------------
BASIS SET INFORMATION
---------------------
There are 4 groups of distinct atoms

 Group   1 Type C   : 11s6p2d1f contracted to 5s3p2d1f pattern {62111/411/11/1}
 Group   2 Type H   : 5s1p contracted to 3s1p pattern {311/1}
 Group   3 Type N   : 11s6p2d1f contracted to 5s3p2d1f pattern {62111/411/11/1}
 Group   4 Type O   : 11s6p2d1f contracted to 5s3p2d1f pattern {62111/411/11/1}

Atom   0C    basis set group =>   1
Atom   1H    basis set group =>   2
Atom   2H    basis set group =>   2
Atom   3H    basis set group =>   2
Atom   4N    basis set group =>   3
Atom   5O    basis set group =>   4
Atom   6O    basis set group =>   4
Atom   7C    basis set group =>   1
Atom   8O    basis set group =>   4
Atom   9O    basis set group =>   4
Atom  10C    basis set group =>   1
Atom  11H    basis set group =>   2
Atom  12H    basis set group =>   2
Atom  13H    basis set group =>   2
Atom  14H    basis set group =>   2
Atom  15O    basis set group =>   4
Atom  16H    basis set group =>   2
---------------------------------
AUXILIARY/J BASIS SET INFORMATION
---------------------------------
There are 4 groups of distinct atoms

 Group   1 Type C   : 12s5p4d2f1g contracted to 6s4p3d1f1g pattern {711111/2111/211/2/1}
 Group   2 Type H   : 5s2p1d contracted to 3s1p1d pattern {311/2/1}
 Group   3 Type N   : 12s5p4d2f1g contracted to 6s4p3d1f1g pattern {711111/2111/211/2/1}
 Group   4 Type O   : 12s5p4d2f1g contracted to 6s4p3d1f1g pattern {711111/2111/211/2/1}

Atom   0C    basis set group =>   1
Atom   1H    basis set group =>   2
Atom   2H    basis set group =>   2
Atom   3H    basis set group =>   2
Atom   4N    basis set group =>   3
Atom   5O    basis set group =>   4
Atom   6O    basis set group =>   4
Atom   7C    basis set group =>   1
Atom   8O    basis set group =>   4
Atom   9O    basis set group =>   4
Atom  10C    basis set group =>   1
Atom  11H    basis set group =>   2
Atom  12H    basis set group =>   2
Atom  13H    basis set group =>   2
Atom  14H    basis set group =>   2
Atom  15O    basis set group =>   4
Atom  16H    basis set group =>   2


           ************************************************************
           *        Program running with 102 parallel MPI-processes   *
           *              working on a common directory               *
           ************************************************************
------------------------------------------------------------------------------
                           ORCA GTO INTEGRAL CALCULATION
                           -- RI-GTO INTEGRALS CHOSEN --
------------------------------------------------------------------------------
------------------------------------------------------------------------------
                   ___                                                        
                  /   \      - P O W E R E D   B Y -                         
                 /     \                                                     
                 |  |  |   _    _      __       _____    __    __             
                 |  |  |  | |  | |    /  \     |  _  \  |  |  /  |          
                  \  \/   | |  | |   /    \    | | | |  |  | /  /          
                 / \  \   | |__| |  /  /\  \   | |_| |  |  |/  /          
                |  |  |   |  __  | /  /__\  \  |    /   |      \           
                |  |  |   | |  | | |   __   |  |    \   |  |\   \          
                \     /   | |  | | |  |  |  |  | |\  \  |  | \   \       
                 \___/    |_|  |_| |__|  |__|  |_| \__\ |__|  \__/        
                                                                              
                      - O R C A' S   B I G   F R I E N D -                    
                                      &                                       
                       - I N T E G R A L  F E E D E R -                       
                                                                              
 v1 FN, 2020, v2 2021                                                         
------------------------------------------------------------------------------


Reading SHARK input file /home/rudenko/mop_saddle_orca_4_serv/for_orca/ch3no2_ch3coo_new/orca/start_freq_D/start_f_D.SHARKINP.tmp ... ok
----------------------
SHARK INTEGRAL PACKAGE
----------------------

Number of atoms                             ...     17
Number of basis functions                   ...    327
Number of shells                            ...    131
Maximum angular momentum                    ...      3
Integral batch strategy                     ... SHARK/LIBINT Hybrid
RI-J (if used) integral strategy            ... SPLIT-RIJ (Revised 2003 algorithm where possible)
Printlevel                                  ...      1
Contraction scheme used                     ... SEGMENTED contraction
Coulomb Range Separation                    ... NOT USED
Exchange Range Separation                   ... NOT USED
Finite Nucleus Model                        ... NOT USED
Auxiliary Coulomb fitting basis             ... AVAILABLE
   # of basis functions in Aux-J            ...    529
   # of shells in Aux-J                     ...    175
   Maximum angular momentum in Aux-J        ...      4
Auxiliary J/K fitting basis                 ... NOT available
Auxiliary Correlation fitting basis         ... NOT available
Auxiliary 'external' fitting basis          ... NOT available
Integral threshold                          ...     2.500000e-11
Primitive cut-off                           ...     2.500000e-12
Primitive pair pre-selection threshold      ...     2.500000e-12

Calculating pre-screening integrals         ... done (  0.1 sec) Dimension = 131
Organizing shell pair data                  ... done (  0.2 sec)
Shell pair information
Total number of shell pairs                 ...      8646
Shell pairs after pre-screening             ...      6028
Total number of primitive shell pairs       ...     26328
Primitive shell pairs kept                  ...     13221
          la=0 lb=0:   1676 shell pairs
          la=1 lb=0:   1770 shell pairs
          la=1 lb=1:    486 shell pairs
          la=2 lb=0:    818 shell pairs
          la=2 lb=1:    439 shell pairs
          la=2 lb=2:    106 shell pairs
          la=3 lb=0:    401 shell pairs
          la=3 lb=1:    213 shell pairs
          la=3 lb=2:     92 shell pairs
          la=3 lb=3:     27 shell pairs

Calculating one electron integrals          ... done (  0.0 sec)
Calculating RI/J V-Matrix + Cholesky decomp.... done (  0.0 sec)
Calculating Nuclear repulsion               ... done (  0.0 sec) ENN=    417.997647373402 Eh

SHARK setup successfully completed in   0.6 seconds

Maximum memory used throughout the entire GTOINT-calculation: 19.4 MB


           ************************************************************
           *        Program running with 102 parallel MPI-processes   *
           *              working on a common directory               *
           ************************************************************
-------------------------------------------------------------------------------
                                 ORCA SCF
-------------------------------------------------------------------------------

------------
SCF SETTINGS
------------
Hamiltonian:
 Density Functional     Method          .... DFT(GTOs)
 Exchange Functional    Exchange        .... B88
   X-Alpha parameter    XAlpha          ....  0.666667
   Becke's b parameter  XBeta           ....  0.004200
 Correlation Functional Correlation     .... LYP
 LDA part of GGA corr.  LDAOpt          .... VWN-5
 Gradients option       PostSCFGGA      .... off
 Hybrid DFT is turned on
   Fraction HF Exchange ScalHFX         ....  0.200000
   Scaling of DF-GGA-X  ScalDFX         ....  0.720000
   Scaling of DF-GGA-C  ScalDFC         ....  0.810000
   Scaling of DF-LDA-C  ScalLDAC        ....  1.000000
   Perturbative correction              ....  0.000000
   Density functional embedding theory  .... OFF
   NL short-range parameter             ....  4.800000
 RI-approximation to the Coulomb term is turned on
   Number of AuxJ basis functions       .... 529
   RIJ-COSX (HFX calculated with COS-X)).... on


General Settings:
 Integral files         IntName         .... /home/rudenko/mop_saddle_orca_4_serv/for_orca/ch3no2_ch3coo_new/orca/start_freq_D/start_f_D
 Hartree-Fock type      HFTyp           .... RHF
 Total Charge           Charge          ....   -1
 Multiplicity           Mult            ....    1
 Number of Electrons    NEL             ....   74
 Basis Dimension        Dim             ....  327
 Nuclear Repulsion      ENuc            ....    417.9976473734 Eh

Convergence Acceleration:
 DIIS                   CNVDIIS         .... on
   Start iteration      DIISMaxIt       ....    12
   Startup error        DIISStart       ....  0.200000
   # of expansion vecs  DIISMaxEq       ....     5
   Bias factor          DIISBfac        ....   1.050
   Max. coefficient     DIISMaxC        ....  10.000
 Trust-Rad. Augm. Hess. CNVTRAH         .... auto
   Auto Start mean grad. ratio tolernc. ....  1.125000
   Auto Start start iteration           ....    20
   Auto Start num. interpolation iter.  ....    10
   Max. Number of Micro iterations      ....    16
   Max. Number of Macro iterations      .... Maxiter - #DIIS iter
   Number of Davidson start vectors     ....     2
   Converg. threshold I  (grad. norm)   ....   1.000e-05
   Converg. threshold II (energy diff.) ....   1.000e-08
   Grad. Scal. Fac. for Micro threshold ....   0.100
   Minimum threshold for Micro iter.    ....   0.010
   NR start threshold (gradient norm)   ....   0.001
   Initial trust radius                 ....   0.400
   Minimum AH scaling param. (alpha)    ....   1.000
   Maximum AH scaling param. (alpha)    .... 1000.000
   Orbital update algorithm             .... Taylor
   White noise on init. David. guess    .... on
   Maximum white noise                  ....   0.010
   Quad. conv. algorithm                .... NR
 SOSCF                  CNVSOSCF        .... on
   Start iteration      SOSCFMaxIt      ....   150
   Startup grad/error   SOSCFStart      ....  0.003300
 Level Shifting         CNVShift        .... on
   Level shift para.    LevelShift      ....    0.2500
   Turn off err/grad.   ShiftErr        ....    0.0010
 Zerner damping         CNVZerner       .... off
 Static damping         CNVDamp         .... on
   Fraction old density DampFac         ....    0.7000
   Max. Damping (<1)    DampMax         ....    0.9800
   Min. Damping (>=0)   DampMin         ....    0.0000
   Turn off err/grad.   DampErr         ....    0.1000
 Fernandez-Rico         CNVRico         .... off

SCF Procedure:
 Maximum # iterations   MaxIter         ....   125
 SCF integral mode      SCFMode         .... Direct
   Integral package                     .... SHARK and LIBINT hybrid scheme
 Reset frequency        DirectResetFreq ....    20
 Integral Threshold     Thresh          ....  2.500e-11 Eh
 Primitive CutOff       TCut            ....  2.500e-12 Eh

Convergence Tolerance:
 Convergence Check Mode ConvCheckMode   .... Total+1el-Energy
 Convergence forced     ConvForced      .... 0
 Energy Change          TolE            ....  1.000e-08 Eh
 1-El. energy change                    ....  1.000e-05 Eh
 Orbital Gradient       TolG            ....  1.000e-05
 Orbital Rotation angle TolX            ....  1.000e-05
 DIIS Error             TolErr          ....  5.000e-07


Diagonalization of the overlap matrix:
Smallest eigenvalue                        ... 4.867e-04
Time for diagonalization                   ...    0.042 sec
Threshold for overlap eigenvalues          ... 1.000e-08
Number of eigenvalues below threshold      ... 0
Time for construction of square roots      ...    0.171 sec
Total time needed                          ...    0.215 sec

Time for model grid setup =    0.133 sec

------------------------------
INITIAL GUESS: MODEL POTENTIAL
------------------------------
Loading Hartree-Fock densities                     ... done
Calculating cut-offs                               ... done
Initializing the effective Hamiltonian             ... done
Setting up the integral package (SHARK)            ... done
Starting the Coulomb interaction                   ... done (   0.0 sec)
Reading the grid                                   ... done
Mapping shells                                     ... done
Starting the XC term evaluation                    ... done (   0.0 sec)
  promolecular density results
     # of electrons  =     72.996241103
     EX              =    -65.272247262
     EC              =     -2.532451812
     EX+EC           =    -67.804699074
Transforming the Hamiltonian                       ... done (   0.1 sec)
Diagonalizing the Hamiltonian                      ... done (   0.2 sec)
Back transforming the eigenvectors                 ... done (   0.0 sec)
Now organizing SCF variables                       ... done
                      ------------------
                      INITIAL GUESS DONE (   0.4 sec)
                      ------------------
-------------------
DFT GRID GENERATION
-------------------

General Integration Accuracy     IntAcc      ... 4.388
Radial Grid Type                 RadialGrid  ... OptM3 with GC (2021)
Angular Grid (max. ang.)         AngularGrid ... 4 (Lebedev-302)
Angular grid pruning method      GridPruning ... 4 (adaptive)
Weight generation scheme         WeightScheme... Becke
Basis function cutoff            BFCut       ... 1.0000e-11
Integration weight cutoff        WCut        ... 1.0000e-14
Angular grids for H and He will be reduced by one unit
Partially contracted basis set               ... off
Rotationally invariant grid construction     ... off

Total number of grid points                  ...    80855
Total number of batches                      ...     1271
Average number of points per batch           ...       63
Average number of grid points per atom       ...     4756
Time for grid setup =    0.723 sec

--------------------
COSX GRID GENERATION
--------------------

GRIDX 1
-------
General Integration Accuracy     IntAcc      ... 3.816
Radial Grid Type                 RadialGrid  ... OptM3 with GC (2021)
Angular Grid (max. ang.)         AngularGrid ... 1 (Lebedev-50)
Angular grid pruning method      GridPruning ... 4 (adaptive)
Weight generation scheme         WeightScheme... Becke
Basis function cutoff            BFCut       ... 1.0000e-11
Integration weight cutoff        WCut        ... 1.0000e-14
Angular grids for H and He will be reduced by one unit
Partially contracted basis set               ... on
Rotationally invariant grid construction     ... off

Total number of grid points                  ...    10343
Total number of batches                      ...      172
Average number of points per batch           ...       60
Average number of grid points per atom       ...      608
UseSFitting                                  ... on

GRIDX 2
-------
General Integration Accuracy     IntAcc      ... 4.020
Radial Grid Type                 RadialGrid  ... OptM3 with GC (2021)
Angular Grid (max. ang.)         AngularGrid ... 2 (Lebedev-110)
Angular grid pruning method      GridPruning ... 4 (adaptive)
Weight generation scheme         WeightScheme... Becke
Basis function cutoff            BFCut       ... 1.0000e-11
Integration weight cutoff        WCut        ... 1.0000e-14
Angular grids for H and He will be reduced by one unit
Partially contracted basis set               ... on
Rotationally invariant grid construction     ... off

Total number of grid points                  ...    22795
Total number of batches                      ...      362
Average number of points per batch           ...       62
Average number of grid points per atom       ...     1341
UseSFitting                                  ... on

GRIDX 3
-------
General Integration Accuracy     IntAcc      ... 4.338
Radial Grid Type                 RadialGrid  ... OptM3 with GC (2021)
Angular Grid (max. ang.)         AngularGrid ... 3 (Lebedev-194)
Angular grid pruning method      GridPruning ... 4 (adaptive)
Weight generation scheme         WeightScheme... Becke
Basis function cutoff            BFCut       ... 1.0000e-11
Integration weight cutoff        WCut        ... 1.0000e-14
Angular grids for H and He will be reduced by one unit
Partially contracted basis set               ... on
Rotationally invariant grid construction     ... off

Total number of grid points                  ...    50200
Total number of batches                      ...      793
Average number of points per batch           ...       63
Average number of grid points per atom       ...     2953
UseSFitting                                  ... on

Time for X-Grid setup             =    0.973 sec


--------------------
CPCM SOLVATION MODEL
--------------------
CPCM parameters:
  Epsilon                                         ...      78.4000
  Refrac                                          ...       1.3300
  Rsolv                                           ...       1.3000
  Surface type                                    ... GAUSSIAN VDW
  Epsilon function type                           ...         CPCM
Radii:
 Radius for C  used is    3.8550 Bohr (=   2.0400 Ang.)
 Radius for H  used is    2.4944 Bohr (=   1.3200 Ang.)
 Radius for N  used is    3.5149 Bohr (=   1.8600 Ang.)
 Radius for O  used is    3.4469 Bohr (=   1.8240 Ang.)
Calculating surface                               ...        done! (  0.0s)
GEPOL surface points                              ...         1088
GEPOL Volume                                      ...    1161.1804
GEPOL Surface-area                                ...     752.6447
Calculating surface distance matrix               ...        done! (  0.1s)
Performing Cholesky decomposition & store         ...        done! (  0.2s)
Overall time for CPCM initialization              ...                 0.3s
--------------
SCF ITERATIONS
--------------
ITER       Energy         Delta-E        Max-DP      RMS-DP      [F,P]     Damp
               ***  Starting incremental Fock matrix formation  ***
  0   -549.5644245079   0.000000000000 0.08867287  0.00141982  0.3540238 0.7000
  1   -549.8155112718  -0.251086763900 0.09103630  0.00102905  0.1438885 0.7000
                               ***Turning on DIIS***
  2   -549.8982082325  -0.082696960733 0.11303970  0.00146358  0.0440933 0.0000
  3   -550.0453631593  -0.147154926747 0.08392761  0.00074409  0.0816743 0.0000
  4   -550.0718863718  -0.026523212533 0.03231871  0.00027557  0.0212790 0.0000
                      *** Initiating the SOSCF procedure ***
                           *** Shutting down DIIS ***
                      *** Re-Reading the Fockian *** 
                      *** Removing any level shift *** 
ITER      Energy       Delta-E        Grad      Rot      Max-DP    RMS-DP
  5   -550.07369546  -0.0018090842  0.000992  0.000992  0.011563  0.000099
               *** Restarting incremental Fock matrix formation ***
  6   -550.07377280  -0.0000773408  0.000652  0.001527  0.007889  0.000073
  7   -550.07375255   0.0000202487  0.001602  0.001612  0.001318  0.000018
  8   -550.07378692  -0.0000343693  0.000359  0.001173  0.001158  0.000013
  9   -550.07378345   0.0000034685  0.000746  0.000846  0.000586  0.000008
 10   -550.07378786  -0.0000044109  0.000072  0.000139  0.000315  0.000003
 11   -550.07378771   0.0000001457  0.000111  0.000085  0.000205  0.000002
 12   -550.07378793  -0.0000002163  0.000012  0.000033  0.000022  0.000000
 13   -550.07378793   0.0000000032  0.000021  0.000023  0.000015  0.000000
                  ***Gradient check signals convergence***
              ***Rediagonalizing the Fockian in SOSCF/NRSCF***

               *****************************************************
               *                     SUCCESS                       *
               *           SCF CONVERGED AFTER  14 CYCLES          *
               *****************************************************

Old exchange energy                            =    -13.246025363 Eh
New exchange energy                            =    -13.246040822 Eh
Exchange energy change after final integration =     -0.000015460 Eh
Total energy after final integration           =   -550.073803397 Eh
Final COS-X integration done in                =     0.505 sec

----------------
TOTAL SCF ENERGY
----------------

Total Energy       :         -550.07380340 Eh          -14968.26916 eV

Components:
Nuclear Repulsion  :          417.99764737 Eh           11374.29424 eV
Electronic Energy  :         -968.07145077 Eh          -26342.56341 eV
One Electron Energy:        -1594.51650500 Eh          -43388.99996 eV
Two Electron Energy:          626.44505423 Eh           17046.43655 eV
Max COSX asymmetry :            0.00000150 Eh               0.00004 eV
CPCM Dielectric    :           -0.12541658 Eh              -3.41276 eV

Virial components:
Potential Energy   :        -1097.97757553 Eh          -29877.48877 eV
Kinetic Energy     :          547.90377213 Eh           14909.21961 eV
Virial Ratio       :            2.00396061


DFT components:
N(Alpha)           :       37.000037543408 electrons
N(Beta)            :       37.000037543408 electrons
N(Total)           :       74.000075086815 electrons
E(X)               :      -52.812713314839 Eh       
E(C)               :       -3.027444074196 Eh       
E(XC)              :      -55.840157389035 Eh       
DFET-embed. en.    :        0.000000000000 Eh       
CPCM Solvation Model Properties:
Surface-charge          :            0.97503090
Charge-correction       :           -0.00313323 Eh              -0.08526 eV
Free-energy (cav+disp)  :  This term is not implemented in the current solvation scheme

---------------
SCF CONVERGENCE
---------------

  Last Energy change         ...   -1.0078e-08  Tolerance :   1.0000e-08
  Last MAX-Density change    ...    2.5535e-15  Tolerance :   1.0000e-07
  Last RMS-Density change    ...    1.8463e-17  Tolerance :   5.0000e-09
  Last Orbital Gradient      ...    2.4987e-06  Tolerance :   1.0000e-05
  Last Orbital Rotation      ...    5.2469e-06  Tolerance :   1.0000e-05

             **** THE GBW FILE WAS UPDATED (/home/rudenko/mop_saddle_orca_4_serv/for_orca/ch3no2_ch3coo_new/orca/start_freq_D/start_f_D.gbw) ****
             **** DENSITY /home/rudenko/mop_saddle_orca_4_serv/for_orca/ch3no2_ch3coo_new/orca/start_freq_D/start_f_D.scfp WAS UPDATED ****
             **** ENERGY FILE WAS UPDATED (/home/rudenko/mop_saddle_orca_4_serv/for_orca/ch3no2_ch3coo_new/orca/start_freq_D/start_f_D.en.tmp) ****
             **** THE GBW FILE WAS UPDATED (/home/rudenko/mop_saddle_orca_4_serv/for_orca/ch3no2_ch3coo_new/orca/start_freq_D/start_f_D.gbw) ****
             **** DENSITY /home/rudenko/mop_saddle_orca_4_serv/for_orca/ch3no2_ch3coo_new/orca/start_freq_D/start_f_D.scfp WAS UPDATED ****
----------------
ORBITAL ENERGIES
----------------

  NO   OCC          E(Eh)            E(eV) 
   0   2.0000     -19.175795      -521.7999 
   1   2.0000     -19.175730      -521.7981 
   2   2.0000     -19.084423      -519.3136 
   3   2.0000     -19.059111      -518.6248 
   4   2.0000     -19.055848      -518.5360 
   5   2.0000     -14.563213      -396.2852 
   6   2.0000     -10.246754      -278.8283 
   7   2.0000     -10.222667      -278.1729 
   8   2.0000     -10.145113      -276.0626 
   9   2.0000      -1.247268       -33.9399 
  10   2.0000      -1.073070       -29.1997 
  11   2.0000      -1.017337       -27.6832 
  12   2.0000      -0.967323       -26.3222 
  13   2.0000      -0.926735       -25.2177 
  14   2.0000      -0.816231       -22.2108 
  15   2.0000      -0.703361       -19.1394 
  16   2.0000      -0.628861       -17.1122 
  17   2.0000      -0.558962       -15.2101 
  18   2.0000      -0.550060       -14.9679 
  19   2.0000      -0.538976       -14.6663 
  20   2.0000      -0.508189       -13.8285 
  21   2.0000      -0.477154       -12.9840 
  22   2.0000      -0.440349       -11.9825 
  23   2.0000      -0.423525       -11.5247 
  24   2.0000      -0.423027       -11.5111 
  25   2.0000      -0.421781       -11.4772 
  26   2.0000      -0.417887       -11.3713 
  27   2.0000      -0.375566       -10.2197 
  28   2.0000      -0.356811        -9.7093 
  29   2.0000      -0.346540        -9.4298 
  30   2.0000      -0.336238        -9.1495 
  31   2.0000      -0.328983        -8.9521 
  32   2.0000      -0.312906        -8.5146 
  33   2.0000      -0.286111        -7.7855 
  34   2.0000      -0.251442        -6.8421 
  35   2.0000      -0.240108        -6.5337 
  36   2.0000      -0.229599        -6.2477 
  37   0.0000      -0.085430        -2.3247 
  38   0.0000       0.050807         1.3825 
  39   0.0000       0.057042         1.5522 
  40   0.0000       0.062136         1.6908 
  41   0.0000       0.087629         2.3845 
  42   0.0000       0.102328         2.7845 
  43   0.0000       0.117674         3.2021 
  44   0.0000       0.127308         3.4642 
  45   0.0000       0.129910         3.5350 
  46   0.0000       0.142299         3.8722 
  47   0.0000       0.154214         4.1964 
  48   0.0000       0.164769         4.4836 
  49   0.0000       0.177924         4.8416 
  50   0.0000       0.202236         5.5031 
  51   0.0000       0.205449         5.5906 
  52   0.0000       0.213447         5.8082 
  53   0.0000       0.227953         6.2029 
  54   0.0000       0.234826         6.3899 
  55   0.0000       0.255486         6.9521 
  56   0.0000       0.265056         7.2125 
  57   0.0000       0.289428         7.8757 
  58   0.0000       0.315830         8.5942 
  59   0.0000       0.323273         8.7967 
  60   0.0000       0.334001         9.0886 
  61   0.0000       0.356097         9.6899 
  62   0.0000       0.365538         9.9468 
  63   0.0000       0.378884        10.3100 
  64   0.0000       0.393410        10.7052 
  65   0.0000       0.394031        10.7221 
  66   0.0000       0.411702        11.2030 
  67   0.0000       0.423361        11.5202 
  68   0.0000       0.425146        11.5688 
  69   0.0000       0.436514        11.8781 
  70   0.0000       0.440281        11.9807 
  71   0.0000       0.446678        12.1547 
  72   0.0000       0.449950        12.2438 
  73   0.0000       0.463704        12.6180 
  74   0.0000       0.470270        12.7967 
  75   0.0000       0.479623        13.0512 
  76   0.0000       0.493750        13.4356 
  77   0.0000       0.500550        13.6206 
  78   0.0000       0.507866        13.8197 
  79   0.0000       0.510032        13.8787 
  80   0.0000       0.521265        14.1843 
  81   0.0000       0.526215        14.3190 
  82   0.0000       0.555730        15.1222 
  83   0.0000       0.563842        15.3429 
  84   0.0000       0.578770        15.7491 
  85   0.0000       0.581134        15.8135 
  86   0.0000       0.599429        16.3113 
  87   0.0000       0.608743        16.5647 
  88   0.0000       0.621954        16.9242 
  89   0.0000       0.667414        18.1613 
  90   0.0000       0.672105        18.2889 
  91   0.0000       0.745364        20.2824 
  92   0.0000       0.763704        20.7814 
  93   0.0000       0.772833        21.0298 
  94   0.0000       0.790871        21.5207 
  95   0.0000       0.818774        22.2800 
  96   0.0000       0.842608        22.9285 
  97   0.0000       0.847938        23.0736 
  98   0.0000       0.872183        23.7333 
  99   0.0000       0.878984        23.9184 
 100   0.0000       0.884392        24.0655 
 101   0.0000       0.918452        24.9924 
 102   0.0000       0.943389        25.6709 
 103   0.0000       0.969134        26.3715 
 104   0.0000       0.979916        26.6649 
 105   0.0000       1.001289        27.2465 
 106   0.0000       1.005151        27.3516 
 107   0.0000       1.033584        28.1253 
 108   0.0000       1.066069        29.0092 
 109   0.0000       1.099166        29.9098 
 110   0.0000       1.140248        31.0277 
 111   0.0000       1.152713        31.3669 
 112   0.0000       1.218584        33.1593 
 113   0.0000       1.245294        33.8862 
 114   0.0000       1.271956        34.6117 
 115   0.0000       1.300956        35.4008 
 116   0.0000       1.328088        36.1391 
 117   0.0000       1.353296        36.8251 
 118   0.0000       1.358850        36.9762 
 119   0.0000       1.372512        37.3479 
 120   0.0000       1.418882        38.6097 
 121   0.0000       1.443530        39.2804 
 122   0.0000       1.445810        39.3425 
 123   0.0000       1.487800        40.4851 
 124   0.0000       1.506286        40.9881 
 125   0.0000       1.510813        41.1113 
 126   0.0000       1.521547        41.4034 
 127   0.0000       1.528156        41.5832 
 128   0.0000       1.533305        41.7233 
 129   0.0000       1.543207        41.9928 
 130   0.0000       1.555095        42.3163 
 131   0.0000       1.575496        42.8714 
 132   0.0000       1.582176        43.0532 
 133   0.0000       1.597475        43.4695 
 134   0.0000       1.609358        43.7929 
 135   0.0000       1.646165        44.7944 
 136   0.0000       1.660060        45.1725 
 137   0.0000       1.668224        45.3947 
 138   0.0000       1.715098        46.6702 
 139   0.0000       1.751002        47.6472 
 140   0.0000       1.766838        48.0781 
 141   0.0000       1.792651        48.7805 
 142   0.0000       1.831389        49.8346 
 143   0.0000       1.865338        50.7584 
 144   0.0000       1.868926        50.8561 
 145   0.0000       1.898012        51.6475 
 146   0.0000       1.906992        51.8919 
 147   0.0000       1.922680        52.3188 
 148   0.0000       1.937606        52.7250 
 149   0.0000       1.941112        52.8203 
 150   0.0000       1.976698        53.7887 
 151   0.0000       2.007795        54.6349 
 152   0.0000       2.028461        55.1972 
 153   0.0000       2.037264        55.4368 
 154   0.0000       2.074603        56.4528 
 155   0.0000       2.086668        56.7811 
 156   0.0000       2.103423        57.2371 
 157   0.0000       2.114972        57.5513 
 158   0.0000       2.135631        58.1135 
 159   0.0000       2.145975        58.3949 
 160   0.0000       2.157575        58.7106 
 161   0.0000       2.173316        59.1389 
 162   0.0000       2.187276        59.5188 
 163   0.0000       2.190035        59.5939 
 164   0.0000       2.215238        60.2797 
 165   0.0000       2.239722        60.9459 
 166   0.0000       2.246792        61.1383 
 167   0.0000       2.266734        61.6810 
 168   0.0000       2.283928        62.1488 
 169   0.0000       2.307703        62.7958 
 170   0.0000       2.309428        62.8427 
 171   0.0000       2.347215        63.8710 
 172   0.0000       2.370137        64.4947 
 173   0.0000       2.378112        64.7117 
 174   0.0000       2.410156        65.5837 
 175   0.0000       2.447497        66.5998 
 176   0.0000       2.507193        68.2242 
 177   0.0000       2.531249        68.8788 
 178   0.0000       2.532359        68.9090 
 179   0.0000       2.545954        69.2789 
 180   0.0000       2.574368        70.0521 
 181   0.0000       2.575816        70.0915 
 182   0.0000       2.588282        70.4307 
 183   0.0000       2.605735        70.9057 
 184   0.0000       2.647323        72.0373 
 185   0.0000       2.655744        72.2665 
 186   0.0000       2.688001        73.1442 
 187   0.0000       2.702579        73.5409 
 188   0.0000       2.721797        74.0639 
 189   0.0000       2.725011        74.1513 
 190   0.0000       2.733880        74.3927 
 191   0.0000       2.758178        75.0538 
 192   0.0000       2.771646        75.4203 
 193   0.0000       2.835371        77.1544 
 194   0.0000       2.887029        78.5601 
 195   0.0000       2.900062        78.9147 
 196   0.0000       2.920605        79.4737 
 197   0.0000       2.934857        79.8615 
 198   0.0000       2.949420        80.2578 
 199   0.0000       2.973285        80.9072 
 200   0.0000       2.991377        81.3995 
 201   0.0000       2.998032        81.5806 
 202   0.0000       3.023371        82.2701 
 203   0.0000       3.034567        82.5748 
 204   0.0000       3.041123        82.7532 
 205   0.0000       3.100513        84.3692 
 206   0.0000       3.121353        84.9363 
 207   0.0000       3.153149        85.8015 
 208   0.0000       3.159805        85.9827 
 209   0.0000       3.175357        86.4058 
 210   0.0000       3.206954        87.2656 
 211   0.0000       3.235791        88.0504 
 212   0.0000       3.242320        88.2280 
 213   0.0000       3.282562        89.3231 
 214   0.0000       3.299659        89.7883 
 215   0.0000       3.314221        90.1845 
 216   0.0000       3.342879        90.9644 
 217   0.0000       3.393077        92.3303 
 218   0.0000       3.398792        92.4858 
 219   0.0000       3.438689        93.5715 
 220   0.0000       3.445641        93.7607 
 221   0.0000       3.470921        94.4486 
 222   0.0000       3.483017        94.7777 
 223   0.0000       3.502106        95.2972 
 224   0.0000       3.550248        96.6072 
 225   0.0000       3.610447        98.2453 
 226   0.0000       3.684879       100.2706 
 227   0.0000       3.717840       101.1676 
 228   0.0000       3.749335       102.0246 
 229   0.0000       3.758865       102.2839 
 230   0.0000       3.761796       102.3637 
 231   0.0000       3.825143       104.0874 
 232   0.0000       3.897577       106.0585 
 233   0.0000       3.953994       107.5937 
 234   0.0000       3.974601       108.1544 
 235   0.0000       3.990592       108.5895 
 236   0.0000       4.012944       109.1977 
 237   0.0000       4.074543       110.8739 
 238   0.0000       4.098175       111.5170 
 239   0.0000       4.135199       112.5245 
 240   0.0000       4.250024       115.6490 
 241   0.0000       4.328753       117.7914 
 242   0.0000       4.346664       118.2787 
 243   0.0000       4.388070       119.4054 
 244   0.0000       4.388374       119.4137 
 245   0.0000       4.451721       121.1375 
 246   0.0000       4.525555       123.1466 
 247   0.0000       4.533312       123.3577 
 248   0.0000       4.542672       123.6124 
 249   0.0000       4.608381       125.4004 
 250   0.0000       4.656708       126.7155 
 251   0.0000       4.724206       128.5522 
 252   0.0000       4.742561       129.0516 
 253   0.0000       4.795580       130.4944 
 254   0.0000       4.883121       132.8765 
 255   0.0000       5.054691       137.5451 
 256   0.0000       5.073828       138.0659 
 257   0.0000       5.107285       138.9763 
 258   0.0000       5.121878       139.3734 
 259   0.0000       5.126519       139.4997 
 260   0.0000       5.130697       139.6134 
 261   0.0000       5.191198       141.2597 
 262   0.0000       5.208464       141.7295 
 263   0.0000       5.216082       141.9368 
 264   0.0000       5.230593       142.3317 
 265   0.0000       5.243456       142.6817 
 266   0.0000       5.269785       143.3982 
 267   0.0000       5.279014       143.6493 
 268   0.0000       5.292048       144.0039 
 269   0.0000       5.359871       145.8495 
 270   0.0000       5.402508       147.0097 
 271   0.0000       5.435675       147.9122 
 272   0.0000       5.492797       149.4666 
 273   0.0000       5.552819       151.0999 
 274   0.0000       5.560528       151.3096 
 275   0.0000       5.573186       151.6541 
 276   0.0000       5.600042       152.3849 
 277   0.0000       5.637855       153.4138 
 278   0.0000       5.672763       154.3637 
 279   0.0000       5.815299       158.2423 
 280   0.0000       5.916971       161.0090 
 281   0.0000       6.045555       164.5079 
 282   0.0000       6.062151       164.9595 
 283   0.0000       6.083465       165.5395 
 284   0.0000       6.152445       167.4165 
 285   0.0000       6.211940       169.0355 
 286   0.0000       6.236045       169.6914 
 287   0.0000       6.261629       170.3876 
 288   0.0000       6.304464       171.5532 
 289   0.0000       6.326051       172.1406 
 290   0.0000       6.328747       172.2140 
 291   0.0000       6.347384       172.7211 
 292   0.0000       6.373463       173.4308 
 293   0.0000       6.386043       173.7731 
 294   0.0000       6.394020       173.9901 
 295   0.0000       6.401587       174.1960 
 296   0.0000       6.436719       175.1520 
 297   0.0000       6.465606       175.9381 
 298   0.0000       6.482140       176.3880 
 299   0.0000       6.604252       179.7108 
 300   0.0000       6.626528       180.3170 
 301   0.0000       6.782925       184.5728 
 302   0.0000       6.799887       185.0343 
 303   0.0000       6.830314       185.8623 
 304   0.0000       6.851025       186.4259 
 305   0.0000       6.873922       187.0489 
 306   0.0000       6.913833       188.1350 
 307   0.0000       6.939195       188.8251 
 308   0.0000       6.980167       189.9400 
 309   0.0000       7.070689       192.4032 
 310   0.0000       7.105842       193.3598 
 311   0.0000       7.143161       194.3753 
 312   0.0000       7.183124       195.4627 
 313   0.0000       7.212009       196.2487 
 314   0.0000       7.243439       197.1040 
 315   0.0000       7.279389       198.0822 
 316   0.0000       7.292935       198.4509 
 317   0.0000       7.369986       200.5475 
 318   0.0000      22.291066       606.5707 
 319   0.0000      22.307308       607.0127 
 320   0.0000      23.390804       636.4961 
 321   0.0000      32.284387       878.5028 
 322   0.0000      43.481739      1183.1983 
 323   0.0000      43.777550      1191.2477 
 324   0.0000      43.815243      1192.2734 
 325   0.0000      43.899708      1194.5718 
 326   0.0000      43.939401      1195.6519 

                    ********************************
                    * MULLIKEN POPULATION ANALYSIS *
                    ********************************

-----------------------
MULLIKEN ATOMIC CHARGES
-----------------------
   0 C :   -0.267744
   1 H :    0.173446
   2 H :    0.187190
   3 H :    0.171893
   4 N :    0.447407
   5 O :   -0.337041
   6 O :   -0.364423
   7 C :    0.320579
   8 O :   -0.620517
   9 O :   -0.580145
  10 C :   -0.356199
  11 H :    0.098028
  12 H :    0.114629
  13 H :    0.117156
  14 H :    0.333501
  15 O :   -0.767973
  16 H :    0.330215
Sum of atomic charges:   -1.0000000

--------------------------------
MULLIKEN REDUCED ORBITAL CHARGES
--------------------------------
  0 C s       :     3.306397  s :     3.306397
      pz      :     1.066539  p :     2.906942
      px      :     0.741214
      py      :     1.099189
      dz2     :     0.006044  d :     0.049214
      dxz     :     0.013629
      dyz     :     0.006928
      dx2y2   :     0.014569
      dxy     :     0.008043
      f0      :     0.000409  f :     0.005192
      f+1     :     0.000975
      f-1     :     0.000068
      f+2     :     0.002019
      f-2     :     0.000240
      f+3     :     0.000744
      f-3     :     0.000737
  1 H s       :     0.804974  s :     0.804974
      pz      :     0.009696  p :     0.021579
      px      :     0.007559
      py      :     0.004324
  2 H s       :     0.790894  s :     0.790894
      pz      :     0.006895  p :     0.021916
      px      :     0.004088
      py      :     0.010933
  3 H s       :     0.806538  s :     0.806538
      pz      :     0.008021  p :     0.021569
      px      :     0.003210
      py      :     0.010338
  4 N s       :     3.319515  s :     3.319515
      pz      :     0.922900  p :     2.980786
      px      :     1.038614
      py      :     1.019273
      dz2     :     0.064544  d :     0.237855
      dxz     :     0.060695
      dyz     :     0.036316
      dx2y2   :     0.043472
      dxy     :     0.032828
      f0      :     0.002099  f :     0.014437
      f+1     :     0.003271
      f-1     :     0.001612
      f+2     :     0.002157
      f-2     :     0.002425
      f+3     :     0.001599
      f-3     :     0.001273
  5 O s       :     3.878631  s :     3.878631
      pz      :     1.518778  p :     4.413654
      px      :     1.481440
      py      :     1.413436
      dz2     :     0.006544  d :     0.041459
      dxz     :     0.012420
      dyz     :     0.005519
      dx2y2   :     0.007335
      dxy     :     0.009640
      f0      :     0.000335  f :     0.003298
      f+1     :     0.000667
      f-1     :     0.000173
      f+2     :     0.000598
      f-2     :     0.000744
      f+3     :     0.000379
      f-3     :     0.000402
  6 O s       :     3.892144  s :     3.892144
      pz      :     1.210999  p :     4.428724
      px      :     1.849930
      py      :     1.367795
      dz2     :     0.013849  d :     0.040330
      dxz     :     0.007162
      dyz     :     0.012990
      dx2y2   :     0.003486
      dxy     :     0.002843
      f0      :     0.000816  f :     0.003224
      f+1     :     0.000423
      f-1     :     0.000934
      f+2     :     0.000489
      f-2     :     0.000400
      f+3     :     0.000081
      f-3     :     0.000081
  7 C s       :     3.059773  s :     3.059773
      pz      :     0.755388  p :     2.370391
      px      :     0.786027
      py      :     0.828977
      dz2     :     0.062057  d :     0.223987
      dxz     :     0.059492
      dyz     :     0.058891
      dx2y2   :     0.024856
      dxy     :     0.018691
      f0      :     0.006714  f :     0.025270
      f+1     :     0.004460
      f-1     :     0.006078
      f+2     :     0.002785
      f-2     :     0.002868
      f+3     :     0.000964
      f-3     :     0.001400
  8 O s       :     3.815166  s :     3.815166
      pz      :     1.403757  p :     4.779363
      px      :     1.656573
      py      :     1.719033
      dz2     :     0.009870  d :     0.024435
      dxz     :     0.006975
      dyz     :     0.006462
      dx2y2   :     0.000549
      dxy     :     0.000580
      f0      :     0.000546  f :     0.001553
      f+1     :     0.000434
      f-1     :     0.000433
      f+2     :     0.000070
      f-2     :     0.000059
      f+3     :     0.000008
      f-3     :     0.000003
  9 O s       :     3.780083  s :     3.780083
      pz      :     1.590747  p :     4.772607
      px      :     1.575644
      py      :     1.606217
      dz2     :     0.006075  d :     0.025817
      dxz     :     0.005776
      dyz     :     0.007221
      dx2y2   :     0.003684
      dxy     :     0.003062
      f0      :     0.000278  f :     0.001638
      f+1     :     0.000213
      f-1     :     0.000364
      f+2     :     0.000351
      f-2     :     0.000305
      f+3     :     0.000053
      f-3     :     0.000074
 10 C s       :     3.261880  s :     3.261880
      pz      :     1.033951  p :     3.050924
      px      :     1.027361
      py      :     0.989612
      dz2     :     0.008319  d :     0.039720
      dxz     :     0.004664
      dyz     :     0.010104
      dx2y2   :     0.010536
      dxy     :     0.006097
      f0      :     0.001191  f :     0.003675
      f+1     :     0.000120
      f-1     :     0.000399
      f+2     :     0.000098
      f-2     :     0.000484
      f+3     :     0.000909
      f-3     :     0.000475
 11 H s       :     0.880498  s :     0.880498
      pz      :     0.012472  p :     0.021474
      px      :     0.004372
      py      :     0.004630
 12 H s       :     0.863919  s :     0.863919
      pz      :     0.005932  p :     0.021452
      px      :     0.005565
      py      :     0.009955
 13 H s       :     0.861331  s :     0.861331
      pz      :     0.005164  p :     0.021513
      px      :     0.011685
      py      :     0.004664
 14 H s       :     0.609142  s :     0.609142
      pz      :     0.013716  p :     0.057358
      px      :     0.013391
      py      :     0.030251
 15 O s       :     3.787999  s :     3.787999
      pz      :     1.714009  p :     4.960900
      px      :     1.689355
      py      :     1.557536
      dz2     :     0.001701  d :     0.017915
      dxz     :     0.006047
      dyz     :     0.001296
      dx2y2   :     0.004079
      dxy     :     0.004792
      f0      :     0.000206  f :     0.001160
      f+1     :     0.000129
      f-1     :     0.000121
      f+2     :     0.000268
      f-2     :     0.000273
      f+3     :     0.000117
      f-3     :     0.000046
 16 H s       :     0.620296  s :     0.620296
      pz      :     0.017912  p :     0.049489
      px      :     0.018358
      py      :     0.013219


                     *******************************
                     * LOEWDIN POPULATION ANALYSIS *
                     *******************************

----------------------
LOEWDIN ATOMIC CHARGES
----------------------
   0 C :   -0.226726
   1 H :    0.134974
   2 H :    0.147261
   3 H :    0.135207
   4 N :   -0.061378
   5 O :   -0.045540
   6 O :   -0.058821
   7 C :   -0.679276
   8 O :   -0.130478
   9 O :   -0.131024
  10 C :   -0.302950
  11 H :    0.113457
  12 H :    0.123674
  13 H :    0.126024
  14 H :    0.127532
  15 O :   -0.405041
  16 H :    0.133106

-------------------------------
LOEWDIN REDUCED ORBITAL CHARGES
-------------------------------
  0 C s       :     2.870581  s :     2.870581
      pz      :     1.088414  p :     3.074175
      px      :     0.871989
      py      :     1.113772
      dz2     :     0.024193  d :     0.248539
      dxz     :     0.069936
      dyz     :     0.045016
      dx2y2   :     0.076643
      dxy     :     0.032749
      f0      :     0.004766  f :     0.033431
      f+1     :     0.006541
      f-1     :     0.000914
      f+2     :     0.006341
      f-2     :     0.001612
      f+3     :     0.006897
      f-3     :     0.006361
  1 H s       :     0.800301  s :     0.800301
      pz      :     0.030209  p :     0.064725
      px      :     0.020808
      py      :     0.013708
  2 H s       :     0.788036  s :     0.788036
      pz      :     0.020242  p :     0.064703
      px      :     0.011506
      py      :     0.032954
  3 H s       :     0.800366  s :     0.800366
      pz      :     0.024073  p :     0.064427
      px      :     0.009166
      py      :     0.031188
  4 N s       :     2.952483  s :     2.952483
      pz      :     1.086182  p :     3.288145
      px      :     1.171187
      py      :     1.030776
      dz2     :     0.191906  d :     0.747921
      dxz     :     0.194499
      dyz     :     0.131744
      dx2y2   :     0.125937
      dxy     :     0.103834
      f0      :     0.009233  f :     0.072829
      f+1     :     0.018171
      f-1     :     0.009053
      f+2     :     0.008633
      f-2     :     0.012749
      f+3     :     0.008069
      f-3     :     0.006921
  5 O s       :     3.502385  s :     3.502385
      pz      :     1.516258  p :     4.432602
      px      :     1.519279
      py      :     1.397064
      dz2     :     0.015361  d :     0.099412
      dxz     :     0.030412
      dyz     :     0.014011
      dx2y2   :     0.018609
      dxy     :     0.021019
      f0      :     0.001178  f :     0.011141
      f+1     :     0.002049
      f-1     :     0.000691
      f+2     :     0.001974
      f-2     :     0.002594
      f+3     :     0.001192
      f-3     :     0.001464
  6 O s       :     3.501931  s :     3.501931
      pz      :     1.330800  p :     4.447616
      px      :     1.739929
      py      :     1.376888
      dz2     :     0.031606  d :     0.098342
      dxz     :     0.019572
      dyz     :     0.033232
      dx2y2   :     0.007101
      dxy     :     0.006831
      f0      :     0.002299  f :     0.010930
      f+1     :     0.001531
      f-1     :     0.003548
      f+2     :     0.001600
      f-2     :     0.001547
      f+3     :     0.000204
      f-3     :     0.000202
  7 C s       :     2.782048  s :     2.782048
      pz      :     0.984680  p :     2.730827
      px      :     0.818649
      py      :     0.927498
      dz2     :     0.317216  d :     1.007123
      dxz     :     0.232835
      dyz     :     0.272976
      dx2y2   :     0.088079
      dxy     :     0.096017
      f0      :     0.039239  f :     0.159278
      f+1     :     0.025640
      f-1     :     0.037752
      f+2     :     0.021756
      f-2     :     0.021965
      f+3     :     0.006265
      f-3     :     0.006660
  8 O s       :     3.428427  s :     3.428427
      pz      :     1.500491  p :     4.637497
      px      :     1.547218
      py      :     1.589788
      dz2     :     0.026818  d :     0.059489
      dxz     :     0.013280
      dyz     :     0.016584
      dx2y2   :     0.001156
      dxy     :     0.001652
      f0      :     0.002152  f :     0.005066
      f+1     :     0.001129
      f-1     :     0.001466
      f+2     :     0.000102
      f-2     :     0.000168
      f+3     :     0.000043
      f-3     :     0.000006
  9 O s       :     3.430780  s :     3.430780
      pz      :     1.585973  p :     4.635367
      px      :     1.494250
      py      :     1.555145
      dz2     :     0.016542  d :     0.059628
      dxz     :     0.011586
      dyz     :     0.017916
      dx2y2   :     0.005435
      dxy     :     0.008150
      f0      :     0.000993  f :     0.005249
      f+1     :     0.000717
      f-1     :     0.001341
      f+2     :     0.000711
      f-2     :     0.001082
      f+3     :     0.000266
      f-3     :     0.000139
 10 C s       :     2.848247  s :     2.848247
      pz      :     1.072942  p :     3.205019
      px      :     1.070742
      py      :     1.061335
      dz2     :     0.056456  d :     0.226276
      dxz     :     0.022767
      dyz     :     0.045693
      dx2y2   :     0.057279
      dxy     :     0.044081
      f0      :     0.004176  f :     0.023408
      f+1     :     0.001227
      f-1     :     0.001970
      f+2     :     0.003567
      f-2     :     0.004757
      f+3     :     0.004816
      f-3     :     0.002895
 11 H s       :     0.825318  s :     0.825318
      pz      :     0.035022  p :     0.061225
      px      :     0.013086
      py      :     0.013117
 12 H s       :     0.814826  s :     0.814826
      pz      :     0.018052  p :     0.061501
      px      :     0.016844
      py      :     0.026604
 13 H s       :     0.812495  s :     0.812495
      pz      :     0.015775  p :     0.061481
      px      :     0.031855
      py      :     0.013851
 14 H s       :     0.675216  s :     0.675216
      pz      :     0.044532  p :     0.197253
      px      :     0.045077
      py      :     0.107644
 15 O s       :     3.464870  s :     3.464870
      pz      :     1.679008  p :     4.911592
      px      :     1.686473
      py      :     1.546112
      dz2     :     0.001833  d :     0.026501
      dxz     :     0.009217
      dyz     :     0.003031
      dx2y2   :     0.005843
      dxy     :     0.006578
      f0      :     0.000348  f :     0.002077
      f+1     :     0.000245
      f-1     :     0.000088
      f+2     :     0.000373
      f-2     :     0.000468
      f+3     :     0.000373
      f-3     :     0.000183
 16 H s       :     0.695958  s :     0.695958
      pz      :     0.063044  p :     0.170936
      px      :     0.068091
      py      :     0.039802


                      *****************************
                      * MAYER POPULATION ANALYSIS *
                      *****************************

  NA   - Mulliken gross atomic population
  ZA   - Total nuclear charge
  QA   - Mulliken gross atomic charge
  VA   - Mayer's total valence
  BVA  - Mayer's bonded valence
  FA   - Mayer's free valence

  ATOM       NA         ZA         QA         VA         BVA        FA
  0 C      6.2677     6.0000    -0.2677     3.7910     3.7910     0.0000
  1 H      0.8266     1.0000     0.1734     0.9652     0.9652     0.0000
  2 H      0.8128     1.0000     0.1872     0.9570     0.9570    -0.0000
  3 H      0.8281     1.0000     0.1719     0.9678     0.9678    -0.0000
  4 N      6.5526     7.0000     0.4474     4.0690     4.0690    -0.0000
  5 O      8.3370     8.0000    -0.3370     1.9041     1.9041    -0.0000
  6 O      8.3644     8.0000    -0.3644     1.8752     1.8752    -0.0000
  7 C      5.6794     6.0000     0.3206     4.3560     4.3560     0.0000
  8 O      8.6205     8.0000    -0.6205     1.7721     1.7721     0.0000
  9 O      8.5801     8.0000    -0.5801     1.8281     1.8281    -0.0000
 10 C      6.3562     6.0000    -0.3562     3.7798     3.7798    -0.0000
 11 H      0.9020     1.0000     0.0980     0.9932     0.9932    -0.0000
 12 H      0.8854     1.0000     0.1146     0.9780     0.9780    -0.0000
 13 H      0.8828     1.0000     0.1172     0.9758     0.9758    -0.0000
 14 H      0.6665     1.0000     0.3335     0.9848     0.9848     0.0000
 15 O      8.7680     8.0000    -0.7680     1.6672     1.6672     0.0000
 16 H      0.6698     1.0000     0.3302     0.9307     0.9307     0.0000

  Mayer bond orders larger than 0.100000
B(  0-C ,  1-H ) :   0.9479 B(  0-C ,  2-H ) :   0.9338 B(  0-C ,  3-H ) :   0.9502 
B(  0-C ,  4-N ) :   0.8829 B(  4-N ,  5-O ) :   1.6207 B(  4-N ,  6-O ) :   1.5582 
B(  5-O ,  6-O ) :   0.2146 B(  7-C ,  8-O ) :   1.5932 B(  7-C ,  9-O ) :   1.8016 
B(  7-C , 10-C ) :   0.9500 B(  8-O , 14-H ) :   0.1759 B( 10-C , 11-H ) :   0.9777 
B( 10-C , 12-H ) :   0.9590 B( 10-C , 13-H ) :   0.9558 B( 14-H , 15-O ) :   0.7772 
B( 15-O , 16-H ) :   0.8789 

-------
TIMINGS
-------

Total SCF time: 0 days 0 hours 0 min 19 sec 

Total time                  ....      19.330 sec
Sum of individual times     ....      18.044 sec  ( 93.3%)

Fock matrix formation       ....      13.442 sec  ( 69.5%)
  Split-RI-J                ....       2.462 sec  ( 18.3% of F)
  Chain of spheres X        ....       4.425 sec  ( 32.9% of F)
  XC integration            ....       1.603 sec  ( 11.9% of F)
    Basis function eval.    ....       0.096 sec  (  6.0% of XC)
    Density eval.           ....       0.155 sec  (  9.7% of XC)
    XC-Functional eval.     ....       0.015 sec  (  1.0% of XC)
    XC-Potential eval.      ....       0.089 sec  (  5.5% of XC)
Diagonalization             ....       0.835 sec  (  4.3%)
Density matrix formation    ....       0.137 sec  (  0.7%)
Population analysis         ....       0.251 sec  (  1.3%)
Initial guess               ....       0.284 sec  (  1.5%)
Orbital Transformation      ....       0.000 sec  (  0.0%)
Orbital Orthonormalization  ....       0.000 sec  (  0.0%)
DIIS solution               ....       0.350 sec  (  1.8%)
SOSCF solution              ....       0.917 sec  (  4.7%)
Grid generation             ....       1.829 sec  (  9.5%)

Maximum memory used throughout the entire SCF-calculation: 76.3 MB


-------------------------------------------------------------------------------
                          DFT DISPERSION CORRECTION                            
                                                                               
                              DFTD3 V3.1  Rev 1                                
                          USING Becke-Johnson damping                          
-------------------------------------------------------------------------------
The B3LYP functional is recognized
Active option DFTDOPT                   ...         4   

molecular C6(AA) [au] = 2389.445113 


            DFT-D V3
 parameters
 s6 scaling factor         :     1.0000 
 a1 scaling factor         :     0.3981 
 s8 scaling factor         :     1.9889 
 a2 scaling factor         :     4.4211 
 ad hoc parameters k1-k3   :    16.0000     1.3333    -4.0000 

 Edisp/kcal,au: -10.174106385209  -0.016213468833 
 E6   /kcal   :  -5.104018185 
 E8   /kcal   :  -5.070088200 
 % E8         :  49.833253242 

-------------------------   ----------------
Dispersion correction           -0.016213469
-------------------------   ----------------


-------------------------   --------------------
FINAL SINGLE POINT ENERGY      -550.090016865636
-------------------------   --------------------



           ************************************************************
           *        Program running with 102 parallel MPI-processes   *
           *              working on a common directory               *
           ************************************************************
------------------------------------------------------------------------------
                         ORCA SCF GRADIENT CALCULATION
------------------------------------------------------------------------------

 ... reading COSX grid (gridx3)
Gradient of the Kohn-Sham DFT energy:
Kohn-Sham wavefunction type      ... RKS
Hartree-Fock exchange scaling    ...    0.200
Number of operators              ...    1
Number of atoms                  ...   17
Basis set dimensions             ...  327
Integral neglect threshold       ... 2.5e-11
Integral primitive cutoff        ... 2.5e-12
SHARK Integral package           ... ON

Nuc. rep. gradient       (SHARK) ... done (  0.0 sec)
HCore & Overlap gradient (SHARK) ... done (  0.1 sec)
RI-J gradient            (SHARK) ... done (  0.3 sec)
COSX-gradient                    ... done (  0.7 sec)
Exchange-correlation gradient    ... done
Dispersion correction            ... done

------------------
CARTESIAN GRADIENT
------------------

   1   C   :   -0.000270284    0.000428630   -0.000157194
   2   H   :    0.000229768   -0.000067842   -0.000199026
   3   H   :    0.000040226   -0.000020688    0.000148633
   4   H   :    0.000055767   -0.000396251    0.000170899
   5   N   :    0.000410823    0.000390385   -0.000314658
   6   O   :   -0.000409853   -0.000181043    0.000205984
   7   O   :   -0.000042561   -0.000191573    0.000236295
   8   C   :   -0.000228381    0.000140828   -0.000028556
   9   O   :    0.000015914    0.000107348   -0.000040079
  10   O   :    0.000223803   -0.000100165   -0.000257356
  11   C   :    0.000224265   -0.000088100   -0.000176086
  12   H   :    0.000058535    0.000028092    0.000274065
  13   H   :    0.000159791   -0.000079576   -0.000012216
  14   H   :   -0.000315421   -0.000046041    0.000106735
  15   H   :    0.000088963    0.000164170   -0.000159174
  16   O   :   -0.000232906   -0.000076716   -0.000169684
  17   H   :    0.000035581   -0.000221108    0.000320785

Difference to translation invariance:
           :    0.0000440293   -0.0002096504   -0.0000506325

Difference to rotation invariance:
           :   -0.0008159919    0.0000235014   -0.0011649050

Norm of the cartesian gradient     ...    0.0014757421
RMS gradient                       ...    0.0002066452
MAX gradient                       ...    0.0004286300

-------
TIMINGS
-------

Total SCF gradient time            ...        2.841 sec

One electron gradient       ....       0.067 sec  (  2.4%)
RI-J Coulomb gradient       ....       0.329 sec  ( 11.6%)
COSX gradient               ....       0.678 sec  ( 23.9%)
XC gradient                 ....       0.354 sec  ( 12.5%)
CPCM gradient               ....       0.135 sec  (  4.7%)
   A-Matrix (El+Nuc)        ....       0.053 sec  (  1.9%)
   Potential                ....       0.082 sec  (  2.9%)

Maximum memory used throughout the entire SCFGRAD-calculation: 50.1 MB

                            ***************************************
                            *     ORCA property calculations      *
                            ***************************************

                                    ---------------------
                                    Active property flags
                                    ---------------------
   (+) Dipole Moment


------------------------------------------------------------------------------
                       ORCA ELECTRIC PROPERTIES CALCULATION
------------------------------------------------------------------------------

Dipole Moment Calculation                       ... on
Quadrupole Moment Calculation                   ... off
Polarizability Calculation                      ... off
GBWName                                         ... /home/rudenko/mop_saddle_orca_4_serv/for_orca/ch3no2_ch3coo_new/orca/start_freq_D/start_f_D.gbw
Electron density                                ... /home/rudenko/mop_saddle_orca_4_serv/for_orca/ch3no2_ch3coo_new/orca/start_freq_D/start_f_D.scfp
The origin for moment calculation is the CENTER OF MASS  = (-0.082897,  1.297923 -2.657379)

-------------
DIPOLE MOMENT
-------------
                                X             Y             Z
Electronic contribution:     -1.58267      -8.10111       7.04000
Nuclear contribution   :      0.96680       6.09640      -2.11105
                        -----------------------------------------
Total Dipole Moment    :     -0.61587      -2.00471       4.92895
                        -----------------------------------------
Magnitude (a.u.)       :      5.35656
Magnitude (Debye)      :     13.61528



--------------------
Rotational spectrum 
--------------------
 
Rotational constants in cm-1:     0.110853     0.011846     0.011217 
Rotational constants in MHz :  3323.290673   355.131989   336.275873 

 Dipole components along the rotational axes: 
x,y,z [a.u.] :     5.130624     0.751670    -1.343270 
x,y,z [Debye]:    13.041010     1.910592    -3.414320 

 

----------------------------------------------------------------------------
                           ORCA NUMERICAL FREQUENCIES
                              (102-process run)
----------------------------------------------------------------------------

Number of atoms                ... 17
Central differences            ... used
Number of displacements        ... 102
Numerical increment            ... 5.000e-03 bohr
IR-spectrum generation         ... on
Raman-spectrum generation      ... off
Surface Crossing Hessian       ... off

The output will be reduced. Please look at the following files:
SCF program output             ... >/home/rudenko/mop_saddle_orca_4_serv/for_orca/ch3no2_ch3coo_new/orca/start_freq_D/start_f_D.lastscf
Integral program output        ... >/home/rudenko/mop_saddle_orca_4_serv/for_orca/ch3no2_ch3coo_new/orca/start_freq_D/start_f_D.lastint
Gradient program output        ... >/home/rudenko/mop_saddle_orca_4_serv/for_orca/ch3no2_ch3coo_new/orca/start_freq_D/start_f_D.lastgrad
Dipole moment program output   ... >/home/rudenko/mop_saddle_orca_4_serv/for_orca/ch3no2_ch3coo_new/orca/start_freq_D/start_f_D.lastmom
AutoCI program output          ... >/home/rudenko/mop_saddle_orca_4_serv/for_orca/ch3no2_ch3coo_new/orca/start_freq_D/start_f_D.lastautoci

	<< Calculating on displaced geometry  37 (of 102) >>
	<< Calculating on displaced geometry  23 (of 102) >>
	<< Calculating on displaced geometry  39 (of 102) >>
	<< Calculating on displaced geometry  29 (of 102) >>
	<< Calculating on displaced geometry  52 (of 102) >>
	<< Calculating on displaced geometry 102 (of 102) >>
	<< Calculating on displaced geometry  74 (of 102) >>
	<< Calculating on displaced geometry  27 (of 102) >>
	<< Calculating on displaced geometry  70 (of 102) >>
	<< Calculating on displaced geometry   7 (of 102) >>
	<< Calculating on displaced geometry  76 (of 102) >>
	<< Calculating on displaced geometry  88 (of 102) >>
	<< Calculating on displaced geometry  93 (of 102) >>
	<< Calculating on displaced geometry  55 (of 102) >>
	<< Calculating on displaced geometry  58 (of 102) >>
	<< Calculating on displaced geometry  22 (of 102) >>
	<< Calculating on displaced geometry  68 (of 102) >>
	<< Calculating on displaced geometry  33 (of 102) >>
	<< Calculating on displaced geometry  90 (of 102) >>
	<< Calculating on displaced geometry  11 (of 102) >>
	<< Calculating on displaced geometry  86 (of 102) >>
	<< Calculating on displaced geometry  66 (of 102) >>
	<< Calculating on displaced geometry  64 (of 102) >>
	<< Calculating on displaced geometry   1 (of 102) >>
	<< Calculating on displaced geometry  45 (of 102) >>
	<< Calculating on displaced geometry  28 (of 102) >>
	<< Calculating on displaced geometry  60 (of 102) >>
	<< Calculating on displaced geometry  46 (of 102) >>
[...]
     26       0.001051   0.000204   0.029555   0.003563  -0.008656   0.165333
     27       0.000522   0.000303  -0.008135   0.003425   0.006925  -0.104024
     28      -0.000881  -0.000429   0.013024  -0.000968  -0.010793   0.161303
     29      -0.000856  -0.000443   0.017844  -0.001924  -0.014703   0.224005
     30       0.000497   0.000177   0.009719  -0.042979   0.001036  -0.015868
     31      -0.000482  -0.000073  -0.014493  -0.035496  -0.001778   0.024230
     32       0.000085  -0.000157   0.066181   0.000869  -0.001181   0.024666
     33      -0.001065  -0.001116  -0.296854   0.569340  -0.016766   0.275817
     34      -0.000652  -0.001891   0.311706   0.439539   0.024120  -0.343623
     35       0.000151  -0.000365   0.104406   0.065704   0.004441  -0.059689
     36      -0.001839  -0.001090   0.417966  -0.027236   0.022508  -0.307388
     37      -0.000101  -0.000947   0.064965   0.242695  -0.005439   0.092523
     38       0.001378   0.002369  -0.434043  -0.456881  -0.012010   0.135267
     39       0.000007  -0.000046  -0.166252   0.133582  -0.001809   0.025715
     40       0.002389   0.001417  -0.307010  -0.184745  -0.020439   0.261603
     41      -0.000137  -0.000085  -0.552524   0.392712  -0.014943   0.208004
     42      -0.004617  -0.003227  -0.005010  -0.001125   0.077045  -0.176383
     43      -0.001264  -0.001031   0.005454   0.000760   0.000622   0.048507
     44       0.003322   0.002212  -0.001627   0.001623  -0.047163   0.041745
     45       0.000523   0.000368   0.000533   0.000168  -0.003594   0.017131
     46       0.000229   0.000247  -0.000908  -0.000140   0.006571  -0.016158
     47      -0.000524  -0.000335   0.000295  -0.000039  -0.001426   0.000753
     48      -0.002175  -0.001667  -0.001841  -0.001013   0.012170  -0.082514
     49      -0.001042  -0.000483   0.002842   0.001757  -0.065570   0.122945
     50       0.002010   0.001802  -0.000372  -0.000376   0.009966  -0.023707
                 42         43         44         45         46         47    
      0       0.000376  -0.104267   0.000002   0.000000  -0.012198   0.000001
      1      -0.000696   0.013206   0.000012  -0.000007  -0.034088  -0.000000
      2       0.000058   0.122056   0.000005  -0.000007  -0.062541   0.000007
      3      -0.005196   0.574122   0.000002  -0.000005  -0.021033   0.000001
      4       0.003528  -0.076109  -0.000070   0.000001  -0.001340   0.000055
      5      -0.003183  -0.782781   0.000027  -0.000008   0.027043  -0.000047
      6      -0.000988   0.025238  -0.000019   0.000010   0.172373   0.000005
      7      -0.001387   0.086710  -0.000065   0.000015   0.762734   0.000033
      8       0.002001   0.056895  -0.000035   0.000008   0.441668   0.000011
      9      -0.000369   0.025574   0.000006  -0.000004   0.020897  -0.000005
     10       0.003297  -0.095664   0.000013  -0.000033  -0.350186   0.000087
     11       0.004834   0.068420  -0.000011   0.000015   0.252952  -0.000040
     12       0.003899   0.001856  -0.000001  -0.000006  -0.000943  -0.000006
     13       0.003736  -0.001738  -0.000005   0.000004   0.000346   0.000021
     14      -0.005432  -0.000796   0.000009  -0.000004  -0.000717  -0.000034
     15      -0.002672   0.002217   0.000004  -0.000003   0.000247  -0.000008
     16      -0.001544   0.001231   0.000002   0.000006  -0.000153  -0.000009
     17       0.001789  -0.000227  -0.000005  -0.000000  -0.000140   0.000007
     18      -0.001339  -0.000604   0.000002   0.000000   0.000187  -0.000006
     19      -0.000891   0.000577   0.000005   0.000004  -0.000379  -0.000014
     20       0.002547  -0.000819  -0.000010   0.000002   0.000573   0.000025
     21       0.006511   0.000045   0.000936  -0.000969  -0.000001  -0.001020
     22      -0.010446  -0.000068  -0.001601  -0.000155   0.000001   0.001566
     23      -0.018779  -0.000245   0.001103  -0.000152  -0.000008   0.001826
     24      -0.005255   0.000001  -0.000109   0.000178   0.000005   0.000262
     25       0.000650   0.000018   0.000203   0.000059  -0.000007  -0.000518
     26       0.009587   0.000069  -0.000338   0.000088   0.000007  -0.000153
     27      -0.004249  -0.000053  -0.000128  -0.000042  -0.000005   0.000147
     28       0.005757   0.000048   0.000174  -0.000082   0.000003  -0.000189
     29       0.006556   0.000059  -0.000092  -0.000028   0.000003  -0.000704
     30      -0.000338   0.000014  -0.034928  -0.073103   0.000002  -0.004932
     31       0.001523   0.000028   0.036563  -0.054734   0.000008   0.009660
     32       0.001001   0.000052   0.004605   0.000817   0.000004   0.092110
     33       0.009902   0.000090   0.000464  -0.017474   0.000034  -0.013637
     34      -0.009003  -0.000028  -0.063448   0.008193  -0.000018   0.141122
     35      -0.001594   0.000053   0.436795  -0.122204   0.000117  -0.875959
     36      -0.008951   0.000013  -0.233560   0.271430  -0.000011  -0.151699
     37       0.004597   0.000049  -0.450529   0.575415  -0.000049  -0.301288
     38       0.002098  -0.000004  -0.266790   0.346145  -0.000024  -0.161929
     39       0.001501   0.000017   0.641550   0.626648   0.000025   0.231635
     40       0.004398   0.000073   0.092219   0.070416   0.000003   0.033532
     41       0.006491   0.000021  -0.231499  -0.232565   0.000002  -0.066051
     42       0.641591   0.000323  -0.004735   0.001773   0.000386   0.021967
     43       0.079213   0.000601   0.012820  -0.004423  -0.001098  -0.060996
     44      -0.439838  -0.000565  -0.005151   0.001828   0.000413   0.024479
     45      -0.056169  -0.000052   0.000325  -0.000119  -0.000021  -0.001539
     46       0.026151  -0.000093  -0.000828   0.000283   0.000069   0.003931
     47       0.017604   0.000075   0.000322  -0.000112  -0.000040  -0.001512
     48       0.341444   0.001596  -0.000155   0.000106  -0.000069   0.000893
     49      -0.503532  -0.001714  -0.000488   0.000199  -0.000054   0.002547
     50       0.114486   0.000699   0.000395  -0.000206   0.000048  -0.002232
                 48         49         50    
      0      -0.000002  -0.003320  -0.000038
      1       0.000314  -0.088144   0.000087
      2      -0.000211   0.030403   0.000057
      3      -0.000017   0.007327  -0.000145
      4      -0.000438  -0.006780   0.000037
      5       0.000617  -0.011830  -0.000113
      6      -0.000170   0.079054   0.000315
      7      -0.000437   0.351083  -0.000784
      8      -0.000275   0.217289  -0.000035
      9       0.000166  -0.041808   0.000589
     10      -0.003280   0.713688  -0.000611
     11       0.002323  -0.550648   0.000801
     12       0.000006  -0.001306  -0.000146
     13      -0.000204  -0.000505   0.001029
     14       0.000330   0.000679  -0.001681
     15       0.000093   0.000410  -0.000410
     16       0.000114   0.000322  -0.000477
     17      -0.000139  -0.000490   0.000661
     18       0.000100  -0.000055   0.000472
     19       0.000165   0.000062  -0.000399
     20      -0.000357  -0.000451   0.000877
     21      -0.000397   0.000001   0.000012
     22       0.000784   0.000001  -0.000026
     23       0.010032   0.000042  -0.000517
     24      -0.001589  -0.000004   0.000135
     25       0.002981   0.000006  -0.000405
     26      -0.004692  -0.000012   0.000375
     27       0.000844   0.000007  -0.000048
     28      -0.001257  -0.000008   0.000052
     29      -0.002802  -0.000006   0.000153
     30      -0.000486   0.000000   0.000007
     31       0.000178  -0.000002  -0.000016
     32       0.004830   0.000015   0.000025
     33      -0.004404  -0.000019   0.000335
     34       0.015384   0.000044  -0.000331
     35      -0.066830  -0.000174   0.000496
     36      -0.004688  -0.000004  -0.000049
     37      -0.010930  -0.000020   0.000093
     38      -0.005753  -0.000003   0.000066
     39       0.008741   0.000045   0.000064
     40       0.001229   0.000003  -0.000026
     41      -0.003018  -0.000013   0.000059
     42      -0.314848  -0.001260   0.031688
     43       0.874206   0.003473  -0.022903
     44      -0.352589  -0.001439  -0.005496
     45       0.022152   0.000152   0.041145
     46      -0.055460  -0.000188   0.024141
     47       0.021201   0.000032  -0.039787
     48      -0.017151  -0.000954  -0.685815
     49      -0.039208  -0.000575  -0.354011
     50       0.036046   0.000815   0.631592


-----------
IR SPECTRUM
-----------

 Mode   freq       eps      Int      T**2         TX        TY        TZ
       cm**-1   L/(mol*cm) km/mol    a.u.
----------------------------------------------------------------------------
  7:      8.79   0.000058    0.29  0.002044  ( 0.037168 -0.000231 -0.025746)
  8:     16.48   0.002368   11.97  0.044850  (-0.032451 -0.183556  0.100519)
  9:     20.10   0.001064    5.38  0.016511  ( 0.098634  0.082154 -0.005729)
 10:     34.70   0.000743    3.76  0.006685  (-0.046116  0.066741 -0.010193)
 11:     43.24   0.001350    6.82  0.009746  ( 0.077726  0.060230  0.008783)
 12:     51.65   0.000239    1.21  0.001446  ( 0.021255 -0.005123  0.031115)
 13:     57.20   0.001899    9.60  0.010362  (-0.023347  0.000058  0.099082)
 14:     70.55   0.000351    1.77  0.001550  (-0.012060  0.024228 -0.028601)
 15:    116.87   0.002170   10.97  0.005795  ( 0.000598  0.004836 -0.075967)
 16:    218.57   0.004726   23.88  0.006748  (-0.021741  0.074446 -0.027076)
 17:    340.46   0.032898  166.26  0.030155  ( 0.069497  0.095433  0.127347)
 18:    465.36   0.002614   13.21  0.001753  (-0.007782  0.022668 -0.034325)
 19:    466.61   0.000058    0.29  0.000039  ( 0.001406  0.005014  0.003411)
 20:    544.90   0.025792  130.34  0.014771  (-0.002281 -0.088192  0.083594)
 21:    607.42   0.001207    6.10  0.000620  ( 0.003471  0.013141  0.020868)
 22:    622.58   0.002775   14.02  0.001391  (-0.023784 -0.024185  0.015496)
 23:    640.20   0.008646   43.70  0.004215  ( 0.045119 -0.037295  0.028071)
 24:    650.00   0.006309   31.88  0.003029  (-0.053298  0.005156 -0.012712)
 25:    815.72   0.027554  139.25  0.010541  ( 0.055252  0.035279  0.079017)
 26:    914.87   0.003923   19.83  0.001338  ( 0.025727 -0.018143  0.018633)
 27:    915.62   0.005945   30.04  0.002026  (-0.004837  0.040485  0.019072)
 28:    966.25   0.004144   20.94  0.001338  (-0.024639 -0.019793  0.018429)
 29:   1021.38   0.004740   23.95  0.001448  ( 0.000712  0.000383 -0.038048)
 30:   1055.10   0.002005   10.13  0.000593  ( 0.021032  0.012273  0.000313)
 31:   1079.10   0.001638    8.28  0.000474  ( 0.005998  0.008645  0.019048)
 32:   1281.02   0.006752   34.12  0.001645  (-0.023030 -0.027307  0.019201)
 33:   1318.98   0.002579   13.03  0.000610  ( 0.007176 -0.021726  0.009314)
 34:   1351.84   0.014860   75.10  0.003430  ( 0.019109 -0.033958  0.043727)
 35:   1394.26   0.088277  446.11  0.019758  (-0.068018  0.106667 -0.061270)
 36:   1416.00   0.029039  146.75  0.006400  ( 0.039449 -0.017317  0.067407)
 37:   1442.62   0.012483   63.09  0.002700  ( 0.051639 -0.004786 -0.003293)
 38:   1449.70   0.022669  114.56  0.004880  ( 0.004169 -0.004026 -0.069615)
 39:   1465.19   0.001911    9.66  0.000407  ( 0.014420  0.014056 -0.001253)
 40:   1558.74   0.151660  766.43  0.030363  (-0.062264 -0.082674  0.140182)
 41:   1577.95   0.166045  839.12  0.032838  ( 0.020618 -0.038775 -0.175810)
 42:   1649.28   0.029413  148.64  0.005565  ( 0.060008 -0.028407 -0.034019)
 43:   2323.73   0.000010    0.05  0.000001  (-0.001016 -0.000513  0.000085)
 44:   3029.88   0.004119   20.81  0.000424  (-0.012338  0.016344 -0.002206)
 45:   3086.52   0.005264   26.60  0.000532  (-0.016791 -0.015770  0.001285)
 46:   3104.91   0.000521    2.63  0.000052  ( 0.005288  0.003111  0.003839)
 47:   3117.79   0.014988   75.74  0.001500  ( 0.004692 -0.011951  0.036542)
 48:   3166.09   0.343628  1736.56  0.033869  (-0.056622  0.151915 -0.087094)
 49:   3183.64   0.000339    1.71  0.000033  ( 0.004733  0.002498  0.002140)
 50:   3751.56   0.069878  353.13  0.005813  (-0.035519 -0.037068  0.056365)

* The epsilon (eps) is given for a Dirac delta lineshape.
** The dipole moment derivative (T) already includes vibrational overlap.

The first frequency considered to be a vibration is 7
The total number of vibrations considered is 44


--------------------------
THERMOCHEMISTRY AT 298.15K
--------------------------

Temperature         ... 298.15 K
Pressure            ... 1.00 atm
Total Mass          ... 139.09 AMU

Throughout the following assumptions are being made:
  (1) The electronic state is orbitally nondegenerate
  (2) There are no thermally accessible electronically excited states
  (3) Hindered rotations indicated by low frequency modes are not
      treated as such but are treated as vibrations and this may
      cause some error
  (4) All equations used are the standard statistical mechanics
      equations for an ideal gas
  (5) All vibrations are strictly harmonic

freq.       8.79  E(vib)   ...       0.58 
freq.      16.48  E(vib)   ...       0.57 
freq.      20.10  E(vib)   ...       0.56 
freq.      34.70  E(vib)   ...       0.54 
freq.      43.24  E(vib)   ...       0.53 
freq.      51.65  E(vib)   ...       0.52 
freq.      57.20  E(vib)   ...       0.51 
freq.      70.55  E(vib)   ...       0.50 
freq.     116.87  E(vib)   ...       0.44 
freq.     218.57  E(vib)   ...       0.33 
freq.     340.46  E(vib)   ...       0.23 
freq.     465.36  E(vib)   ...       0.16 
freq.     466.61  E(vib)   ...       0.16 
freq.     544.90  E(vib)   ...       0.12 
freq.     607.42  E(vib)   ...       0.10 
freq.     622.58  E(vib)   ...       0.09 
freq.     640.20  E(vib)   ...       0.09 
freq.     650.00  E(vib)   ...       0.08 
freq.     815.72  E(vib)   ...       0.05 
freq.     914.87  E(vib)   ...       0.03 
freq.     915.62  E(vib)   ...       0.03 
freq.     966.25  E(vib)   ...       0.03 
freq.    1021.38  E(vib)   ...       0.02 
freq.    1055.10  E(vib)   ...       0.02 
freq.    1079.10  E(vib)   ...       0.02 
freq.    1281.02  E(vib)   ...       0.01 
freq.    1318.98  E(vib)   ...       0.01 
freq.    1351.84  E(vib)   ...       0.01 
freq.    1394.26  E(vib)   ...       0.00 
freq.    1416.00  E(vib)   ...       0.00 
freq.    1442.62  E(vib)   ...       0.00 
freq.    1449.70  E(vib)   ...       0.00 
freq.    1465.19  E(vib)   ...       0.00 
freq.    1558.74  E(vib)   ...       0.00 
freq.    1577.95  E(vib)   ...       0.00 
freq.    1649.28  E(vib)   ...       0.00 
freq.    2323.73  E(vib)   ...       0.00 
freq.    3029.88  E(vib)   ...       0.00 
freq.    3086.52  E(vib)   ...       0.00 
freq.    3104.91  E(vib)   ...       0.00 
freq.    3117.79  E(vib)   ...       0.00 
freq.    3166.09  E(vib)   ...       0.00 
freq.    3183.64  E(vib)   ...       0.00 
freq.    3751.56  E(vib)   ...       0.00 

------------
INNER ENERGY
------------

The inner energy is: U= E(el) + E(ZPE) + E(vib) + E(rot) + E(trans)
    E(el)   - is the total energy from the electronic structure calculation
              = E(kin-el) + E(nuc-el) + E(el-el) + E(nuc-nuc)
    E(ZPE)  - the the zero temperature vibrational energy from the frequency calculation
    E(vib)  - the the finite temperature correction to E(ZPE) due to population
              of excited vibrational states
    E(rot)  - is the rotational thermal energy
    E(trans)- is the translational thermal energy

Summary of contributions to the inner energy U:
Electronic energy                ...   -550.09001687 Eh
Zero point energy                ...      0.11940652 Eh      74.93 kcal/mol
Thermal vibrational correction   ...      0.01015252 Eh       6.37 kcal/mol
Thermal rotational correction    ...      0.00141627 Eh       0.89 kcal/mol
Thermal translational correction ...      0.00141627 Eh       0.89 kcal/mol
-----------------------------------------------------------------------
Total thermal energy                   -549.95762529 Eh


Summary of corrections to the electronic energy:
(perhaps to be used in another calculation)
Total thermal correction                  0.01298506 Eh       8.15 kcal/mol
Non-thermal (ZPE) correction              0.11940652 Eh      74.93 kcal/mol
-----------------------------------------------------------------------
Total correction                          0.13239158 Eh      83.08 kcal/mol


--------
ENTHALPY
--------

The enthalpy is H = U + kB*T
                kB is Boltzmann's constant
Total free energy                 ...   -549.95762529 Eh 
Thermal Enthalpy correction       ...      0.00094421 Eh       0.59 kcal/mol
-----------------------------------------------------------------------
Total Enthalpy                    ...   -549.95668108 Eh


Note: Only C1 symmetry has been detected, increase convergence thresholds 
      if your molecule has a higher symmetry. Symmetry factor of 1.0 is   
      used for the rotational entropy correction. 
 

Note: Rotational entropy computed according to Herzberg 
Infrared and Raman Spectra, Chapter V,1, Van Nostrand Reinhold, 1945 
Point Group:  C1, Symmetry Number:   1  
Rotational constants in cm-1:     0.110853     0.011846     0.011217 

Vibrational entropy computed according to the QRRHO of S. Grimme
Chem.Eur.J. 2012 18 9955


-------
ENTROPY
-------

The entropy contributions are T*S = T*(S(el)+S(vib)+S(rot)+S(trans))
     S(el)   - electronic entropy
     S(vib)  - vibrational entropy
     S(rot)  - rotational entropy
     S(trans)- translational entropy
The entropies will be listed as multiplied by the temperature to get
units of energy

Electronic entropy                ...      0.00000000 Eh      0.00 kcal/mol
Vibrational entropy               ...      0.02060243 Eh     12.93 kcal/mol
Rotational entropy                ...      0.01476312 Eh      9.26 kcal/mol
Translational entropy             ...      0.01933855 Eh     12.14 kcal/mol
-----------------------------------------------------------------------
Final entropy term                ...      0.05470411 Eh     34.33 kcal/mol

In case the symmetry of your molecule has not been determined correctly
or in case you have a reason to use a different symmetry number we print 
out the resulting rotational entropy values for sn=1,12 :
 --------------------------------------------------------
|  sn= 1 | S(rot)=       0.01476312 Eh      9.26 kcal/mol|
|  sn= 2 | S(rot)=       0.01410867 Eh      8.85 kcal/mol|
|  sn= 3 | S(rot)=       0.01372583 Eh      8.61 kcal/mol|
|  sn= 4 | S(rot)=       0.01345421 Eh      8.44 kcal/mol|
|  sn= 5 | S(rot)=       0.01324352 Eh      8.31 kcal/mol|
|  sn= 6 | S(rot)=       0.01307138 Eh      8.20 kcal/mol|
|  sn= 7 | S(rot)=       0.01292583 Eh      8.11 kcal/mol|
|  sn= 8 | S(rot)=       0.01279975 Eh      8.03 kcal/mol|
|  sn= 9 | S(rot)=       0.01268855 Eh      7.96 kcal/mol|
|  sn=10 | S(rot)=       0.01258907 Eh      7.90 kcal/mol|
|  sn=11 | S(rot)=       0.01249908 Eh      7.84 kcal/mol|
|  sn=12 | S(rot)=       0.01241692 Eh      7.79 kcal/mol|
 --------------------------------------------------------


-------------------
GIBBS FREE ENERGY
-------------------

The Gibbs free energy is G = H - T*S

Total enthalpy                    ...   -549.95668108 Eh 
Total entropy correction          ...     -0.05470411 Eh    -34.33 kcal/mol
-----------------------------------------------------------------------
Final Gibbs free energy         ...   -550.01138518 Eh

For completeness - the Gibbs free energy minus the electronic energy
G-E(el)                           ...      0.07863168 Eh     49.34 kcal/mol



Timings for individual modules:

Sum of individual times         ...      412.958 sec (=   6.883 min)
GTO integral calculation        ...       11.168 sec (=   0.186 min)   2.7 %
SCF iterations                  ...       61.787 sec (=   1.030 min)  15.0 %
SCF Gradient evaluation         ...       13.972 sec (=   0.233 min)   3.4 %
Numerical frequency calculation ...      326.031 sec (=   5.434 min)  78.9 %
                             ****ORCA TERMINATED NORMALLY****
TOTAL RUN TIME: 0 days 0 hours 6 minutes 4 seconds 756 msec
