
                                 *****************
                                 * O   R   C   A *
                                 *****************

                                            #,                                       
                                            ###                                      
                                            ####                                     
                                            #####                                    
                                            ######                                   
                                           ########,                                 
                                     ,,################,,,,,                         
                               ,,#################################,,                 
                          ,,##########################################,,             
                       ,#########################################, ''#####,          
                    ,#############################################,,   '####,        
                  ,##################################################,,,,####,       
                ,###########''''           ''''###############################       
              ,#####''   ,,,,##########,,,,          '''####'''          '####       
            ,##' ,,,,###########################,,,                        '##       
           ' ,,###''''                  '''############,,,                           
         ,,##''                                '''############,,,,        ,,,,,,###''
      ,#''                                            '''#######################'''  
     '                                                          ''''####''''         
             ,#######,   #######,   ,#######,      ##                                
            ,#'     '#,  ##    ##  ,#'     '#,    #''#        ######   ,####,        
            ##       ##  ##   ,#'  ##            #'  '#       #        #'  '#        
            ##       ##  #######   ##           ,######,      #####,   #    #        
            '#,     ,#'  ##    ##  '#,     ,#' ,#      #,         ##   #,  ,#        
             '#######'   ##     ##  '#######'  #'      '#     #####' # '####'        



                  #######################################################
                  #                        -***-                        #
                  #          Department of theory and spectroscopy      #
                  #    Directorship and core code : Frank Neese         #
                  #        Max Planck Institute fuer Kohlenforschung    #
                  #                Kaiser Wilhelm Platz 1               #
                  #                 D-45470 Muelheim/Ruhr               #
                  #                      Germany                        #
                  #                                                     #
                  #                  All rights reserved                #
                  #                        -***-                        #
                  #######################################################


                         Program Version 5.0.4 -  RELEASE  -


 With contributions from (in alphabetic order):
   Daniel Aravena         : Magnetic Suceptibility
   Michael Atanasov       : Ab Initio Ligand Field Theory (pilot matlab implementation)
   Alexander A. Auer      : GIAO ZORA, VPT2 properties, NMR spectrum
   Ute Becker             : Parallelization
   Giovanni Bistoni       : ED, misc. LED, open-shell LED, HFLD
   Martin Brehm           : Molecular dynamics
   Dmytro Bykov           : SCF Hessian
   Vijay G. Chilkuri      : MRCI spin determinant printing, contributions to CSF-ICE
   Dipayan Datta          : RHF DLPNO-CCSD density
   Achintya Kumar Dutta   : EOM-CC, STEOM-CC
   Dmitry Ganyushin       : Spin-Orbit,Spin-Spin,Magnetic field MRCI
   Miquel Garcia          : C-PCM and meta-GGA Hessian, CC/C-PCM, Gaussian charge scheme
   Yang Guo               : DLPNO-NEVPT2, F12-NEVPT2, CIM, IAO-localization
   Andreas Hansen         : Spin unrestricted coupled pair/coupled cluster methods
   Benjamin Helmich-Paris : MC-RPA, TRAH-SCF, COSX integrals
   Lee Huntington         : MR-EOM, pCC
   Robert Izsak           : Overlap fitted RIJCOSX, COSX-SCS-MP3, EOM
   Marcus Kettner         : VPT2
   Christian Kollmar      : KDIIS, OOCD, Brueckner-CCSD(T), CCSD density, CASPT2, CASPT2-K
   Simone Kossmann        : Meta GGA functionals, TD-DFT gradient, OOMP2, MP2 Hessian
   Martin Krupicka        : Initial AUTO-CI
   Lucas Lang             : DCDCAS
   Marvin Lechner         : AUTO-CI (C++ implementation), FIC-MRCC
   Dagmar Lenk            : GEPOL surface, SMD
   Dimitrios Liakos       : Extrapolation schemes; Compound Job, initial MDCI parallelization
   Dimitrios Manganas     : Further ROCIS development; embedding schemes
   Dimitrios Pantazis     : SARC Basis sets
   Anastasios Papadopoulos: AUTO-CI, single reference methods and gradients
   Taras Petrenko         : DFT Hessian,TD-DFT gradient, ASA, ECA, R-Raman, ABS, FL, XAS/XES, NRVS
   Peter Pinski           : DLPNO-MP2, DLPNO-MP2 Gradient
   Christoph Reimann      : Effective Core Potentials
   Marius Retegan         : Local ZFS, SOC
   Christoph Riplinger    : Optimizer, TS searches, QM/MM, DLPNO-CCSD(T), (RO)-DLPNO pert. Triples
   Tobias Risthaus        : Range-separated hybrids, TD-DFT gradient, RPA, STAB
   Michael Roemelt        : Original ROCIS implementation
   Masaaki Saitow         : Open-shell DLPNO-CCSD energy and density
   Barbara Sandhoefer     : DKH picture change effects
   Avijit Sen             : IP-ROCIS
   Kantharuban Sivalingam : CASSCF convergence, NEVPT2, FIC-MRCI
   Bernardo de Souza      : ESD, SOC TD-DFT
   Georgi Stoychev        : AutoAux, RI-MP2 NMR, DLPNO-MP2 response
   Willem Van den Heuvel  : Paramagnetic NMR
   Boris Wezisla          : Elementary symmetry handling
   Frank Wennmohs         : Technical directorship


 We gratefully acknowledge several colleagues who have allowed us to
 interface, adapt or use parts of their codes:
   Stefan Grimme, W. Hujo, H. Kruse, P. Pracht,  : VdW corrections, initial TS optimization,
                  C. Bannwarth, S. Ehlert          DFT functionals, gCP, sTDA/sTD-DF
   Ed Valeev, F. Pavosevic, A. Kumar             : LibInt (2-el integral package), F12 methods
   Garnet Chan, S. Sharma, J. Yang, R. Olivares  : DMRG
   Ulf Ekstrom                                   : XCFun DFT Library
   Mihaly Kallay                                 : mrcc  (arbitrary order and MRCC methods)
   Jiri Pittner, Ondrej Demel                    : Mk-CCSD
   Frank Weinhold                                : gennbo (NPA and NBO analysis)
   Christopher J. Cramer and Donald G. Truhlar   : smd solvation model
   Lars Goerigk                                  : TD-DFT with DH, B97 family of functionals
   V. Asgeirsson, H. Jonsson                     : NEB implementation
   FAccTs GmbH                                   : IRC, NEB, NEB-TS, DLPNO-Multilevel, CI-OPT
                                                   MM, QMMM, 2- and 3-layer-ONIOM, Crystal-QMMM,
                                                   LR-CPCM, SF, NACMEs, symmetry and pop. for TD-DFT,
                                                   nearIR, NL-DFT gradient (VV10), updates on ESD,
                                                   ML-optimized integration grids
   S Lehtola, MJT Oliveira, MAL Marques          : LibXC Library
   Liviu Ungur et al                             : ANISO software


 Your calculation uses the libint2 library for the computation of 2-el integrals
 For citations please refer to: http://libint.valeyev.net

 Your ORCA version has been built with support for libXC version: 5.1.0
 For citations please refer to: https://tddft.org/programs/libxc/

 This ORCA versions uses:
   CBLAS   interface :  Fast vector & matrix operations
   LAPACKE interface :  Fast linear algebra routines
   SCALAPACK package :  Parallel linear algebra routines
   Shared memory     :  Shared parallel matrices
   BLAS/LAPACK       :  OpenBLAS 0.3.15  USE64BITINT DYNAMIC_ARCH NO_AFFINITY Prescott SINGLE_THREADED
        Core in use  :  Prescott
   Copyright (c) 2011-2014, The OpenBLAS Project


Your calculation utilizes the atom-pairwise dispersion correction
with the Becke-Johnson damping scheme (D3BJ)
Cite in your paper:
S.Grimme, S.Ehrlich, L.Goerigk, J Comput Chem, (2011), 32, 1456–1465 
S.Grimme, J.Antony, S.Ehrlich and H.Krieg, J.Chem.Phys., 132, (2010), 154104 
   

================================================================================

----- Orbital basis set information -----
Your calculation utilizes the basis: def2-TZVP
   F. Weigend and R. Ahlrichs, Phys. Chem. Chem. Phys. 7, 3297 (2005).

----- AuxJ basis set information -----
Your calculation utilizes the auxiliary basis: def2/J
   F. Weigend, Phys. Chem. Chem. Phys. 8, 1057 (2006).

================================================================================
                                        WARNINGS
                       Please study these warnings very carefully!
================================================================================

WARNING: Gradients needed for Numerical Frequencies
  ===> : Setting RunTyp to EnGrad

INFO   : the flag for use of the SHARK integral package has been found!

================================================================================
                                       INPUT FILE
================================================================================
NAME = /home/rudenko/mop_saddle_orca_4_serv/for_orca/CH3NO2_ch2clcoo_near_freez/orca/freq_D/f_D.inp
|  1> !  NUMFREQ B3LYP def2-TZVP CPCM D3 
|  2> %pal nprocs 102 end
|  3> %cpcm epsilon 78.4 end 
|  4> *xyz -1 1 
|  5> C   -2.18091304322271 -0.8211857453779 -0.10711869953461
|  6> H   -3.09037530235985 -0.47127583326458 -0.5817602992628
|  7> H   -1.12639879590771 -0.54437667114699 -0.99367632617575 M = 2
|  8> H   -2.13751353719883 -1.8801790704357 0.11881127789852
|  9> N   -1.87232377094995 -0.05076536116006 1.02427781727404
| 10> O   -1.13879712650197 -0.53253611904378 1.91315137491914
| 11> O   -2.25293400704438 1.13493315270564 1.08557132095332
| 12> C   1.89560551752709 1.27426389333676 0.23591743574729
| 13> O   2.53133153677964 2.1425666974133 0.81602453778664
| 14> O   1.14851417288094 1.5181471027778 -0.80074234806671
| 15> C   1.96535849960825 -0.16909903025522 0.72347530751884
| 16> Cl   3.05651646046298 -1.12309112481237 -0.36674874344687
| 17> H   0.99681800332688 -0.6585788628463 0.71229766882925
| 18> H   2.40593312991389 -0.20533032629269 1.71311147657261
| 19> H   -0.56523381489332 0.02242212638502 -2.55823495308662
| 20> O   -0.18339311725382 -0.30429854538813 -1.73269921339703
| 21> H   0.54780519483287 0.6683837174052 -1.20165763452926
| 22> *
| 23> 
| 24>                          ****END OF INPUT****
================================================================================

                     *******************************
                     * Energy+Gradient Calculation *
                     *******************************

---------------------------------
CARTESIAN COORDINATES (ANGSTROEM)
---------------------------------
  C     -2.180913   -0.821186   -0.107119
  H     -3.090375   -0.471276   -0.581760
  H     -1.126399   -0.544377   -0.993676
  H     -2.137514   -1.880179    0.118811
  N     -1.872324   -0.050765    1.024278
  O     -1.138797   -0.532536    1.913151
  O     -2.252934    1.134933    1.085571
  C      1.895606    1.274264    0.235917
  O      2.531332    2.142567    0.816025
  O      1.148514    1.518147   -0.800742
  C      1.965358   -0.169099    0.723475
  Cl     3.056516   -1.123091   -0.366749
  H      0.996818   -0.658579    0.712298
  H      2.405933   -0.205330    1.713111
  H     -0.565234    0.022422   -2.558235
  O     -0.183393   -0.304299   -1.732699
  H      0.547805    0.668384   -1.201658

----------------------------
CARTESIAN COORDINATES (A.U.)
----------------------------
  NO LB      ZA    FRAG     MASS         X           Y           Z
   0 C     6.0000    0    12.011   -4.121328   -1.551816   -0.202425
   1 H     1.0000    0     1.008   -5.839963   -0.890582   -1.099368
   2 H     1.0000    0     2.000   -2.128585   -1.028723   -1.877776
   3 H     1.0000    0     1.008   -4.039315   -3.553024    0.224521
   4 N     7.0000    0    14.007   -3.538179   -0.095933    1.935605
   5 O     8.0000    0    15.999   -2.152015   -1.006347    3.615332
   6 O     8.0000    0    15.999   -4.257428    2.144713    2.051432
   7 C     6.0000    0    12.011    3.582175    2.408010    0.445819
   8 O     8.0000    0    15.999    4.783523    4.048864    1.542063
   9 O     8.0000    0    15.999    2.170377    2.868882   -1.513184
  10 C     6.0000    0    12.011    3.713989   -0.319551    1.367170
  11 Cl   17.0000    0    35.453    5.775979   -2.122335   -0.693055
  12 H     1.0000    0     1.008    1.883713   -1.244534    1.346048
  13 H     1.0000    0     1.008    4.546555   -0.388018    3.237312
  14 H     1.0000    0     1.008   -1.068137    0.042372   -4.834363
  15 O     8.0000    0    15.999   -0.346563   -0.575041   -3.274327
  16 H     1.0000    0     1.008    1.035202    1.263062   -2.270804

--------------------------------
INTERNAL COORDINATES (ANGSTROEM)
--------------------------------
 C      0   0   0     0.000000000000     0.00000000     0.00000000
 H      1   0   0     1.083901838536     0.00000000     0.00000000
 H      1   2   0     1.405207453269   106.84555620     0.00000000
 H      1   2   3     1.083694945242   116.12701808   240.61831621
 N      1   2   3     1.403151091518   111.12298528   112.38190473
 O      5   1   2     1.249103919915   119.41737253   157.71650002
 O      5   1   2     1.246796700026   119.64738116   332.62080514
 C      3   1   2     3.735219457082   119.69389677   128.91547145
 O      8   3   1     1.222547169216   157.32732640   312.52333152
 O      8   3   1     1.300879704073    50.52905271   230.82234763
 C      8   3   1     1.525081862077    71.42430265    76.22942753
 Cl    11   8   3     1.813646904256   109.46099023    98.94075042
 H     11   8   3     1.085258558620   112.50398097   340.03757773
 H     11   8   3     1.083881201415   110.00624586   215.83039743
 H      3   1   2     1.756135162749   149.93516359   354.17680387
 O     15   3   1     0.966466747096    41.93899126   178.90958255
 H     10   8   3     1.115204983107   116.93479958   337.80038186

---------------------------
INTERNAL COORDINATES (A.U.)
---------------------------
 C      0   0   0     0.000000000000     0.00000000     0.00000000
 H      1   0   0     2.048277630887     0.00000000     0.00000000
 H      1   2   0     2.655457248023   106.84555620     0.00000000
 H      1   2   3     2.047886659222   116.12701808   240.61831621
 N      1   2   3     2.651571287481   111.12298528   112.38190473
 O      5   1   2     2.360464321447   119.41737253   157.71650002
 O      5   1   2     2.356104307726   119.64738116   332.62080514
 C      3   1   2     7.058541823979   119.69389677   128.91547145
 O      8   3   1     2.310279335619   157.32732640   312.52333152
 O      8   3   1     2.458306373875    50.52905271   230.82234763
 C      8   3   1     2.881987051136    71.42430265    76.22942753
 Cl    11   8   3     3.427295952678   109.46099023    98.94075042
 H     11   8   3     2.050841460285   112.50398097   340.03757773
 H     11   8   3     2.048238632380   110.00624586   215.83039743
 H      3   1   2     3.318614511744   149.93516359   354.17680387
 O     15   3   1     1.826357469553    41.93899126   178.90958255
 H     10   8   3     2.107432001257   116.93479958   337.80038186

---------------------
BASIS SET INFORMATION
---------------------
There are 5 groups of distinct atoms

 Group   1 Type C   : 11s6p2d1f contracted to 5s3p2d1f pattern {62111/411/11/1}
 Group   2 Type H   : 5s1p contracted to 3s1p pattern {311/1}
 Group   3 Type N   : 11s6p2d1f contracted to 5s3p2d1f pattern {62111/411/11/1}
 Group   4 Type O   : 11s6p2d1f contracted to 5s3p2d1f pattern {62111/411/11/1}
 Group   5 Type Cl  : 14s9p3d1f contracted to 5s5p2d1f pattern {73211/51111/21/1}

Atom   0C    basis set group =>   1
Atom   1H    basis set group =>   2
Atom   2H    basis set group =>   2
Atom   3H    basis set group =>   2
Atom   4N    basis set group =>   3
Atom   5O    basis set group =>   4
Atom   6O    basis set group =>   4
Atom   7C    basis set group =>   1
Atom   8O    basis set group =>   4
Atom   9O    basis set group =>   4
Atom  10C    basis set group =>   1
Atom  11Cl   basis set group =>   5
Atom  12H    basis set group =>   2
Atom  13H    basis set group =>   2
Atom  14H    basis set group =>   2
Atom  15O    basis set group =>   4
Atom  16H    basis set group =>   2
---------------------------------
AUXILIARY/J BASIS SET INFORMATION
---------------------------------
There are 5 groups of distinct atoms

 Group   1 Type C   : 12s5p4d2f1g contracted to 6s4p3d1f1g pattern {711111/2111/211/2/1}
 Group   2 Type H   : 5s2p1d contracted to 3s1p1d pattern {311/2/1}
 Group   3 Type N   : 12s5p4d2f1g contracted to 6s4p3d1f1g pattern {711111/2111/211/2/1}
 Group   4 Type O   : 12s5p4d2f1g contracted to 6s4p3d1f1g pattern {711111/2111/211/2/1}
 Group   5 Type Cl  : 14s5p5d2f1g contracted to 8s4p3d1f1g pattern {71111111/2111/311/2/1}

Atom   0C    basis set group =>   1
Atom   1H    basis set group =>   2
Atom   2H    basis set group =>   2
Atom   3H    basis set group =>   2
Atom   4N    basis set group =>   3
Atom   5O    basis set group =>   4
Atom   6O    basis set group =>   4
Atom   7C    basis set group =>   1
Atom   8O    basis set group =>   4
Atom   9O    basis set group =>   4
Atom  10C    basis set group =>   1
Atom  11Cl   basis set group =>   5
Atom  12H    basis set group =>   2
Atom  13H    basis set group =>   2
Atom  14H    basis set group =>   2
Atom  15O    basis set group =>   4
Atom  16H    basis set group =>   2


           ************************************************************
           *        Program running with 102 parallel MPI-processes   *
           *              working on a common directory               *
           ************************************************************
------------------------------------------------------------------------------
                           ORCA GTO INTEGRAL CALCULATION
                           -- RI-GTO INTEGRALS CHOSEN --
------------------------------------------------------------------------------
------------------------------------------------------------------------------
                   ___                                                        
                  /   \      - P O W E R E D   B Y -                         
                 /     \                                                     
                 |  |  |   _    _      __       _____    __    __             
                 |  |  |  | |  | |    /  \     |  _  \  |  |  /  |          
                  \  \/   | |  | |   /    \    | | | |  |  | /  /          
                 / \  \   | |__| |  /  /\  \   | |_| |  |  |/  /          
                |  |  |   |  __  | /  /__\  \  |    /   |      \           
                |  |  |   | |  | | |   __   |  |    \   |  |\   \          
                \     /   | |  | | |  |  |  |  | |\  \  |  | \   \       
                 \___/    |_|  |_| |__|  |__|  |_| \__\ |__|  \__/        
                                                                              
                      - O R C A' S   B I G   F R I E N D -                    
                                      &                                       
                       - I N T E G R A L  F E E D E R -                       
                                                                              
 v1 FN, 2020, v2 2021                                                         
------------------------------------------------------------------------------


Reading SHARK input file /home/rudenko/mop_saddle_orca_4_serv/for_orca/CH3NO2_ch2clcoo_near_freez/orca/freq_D/f_D.SHARKINP.tmp ... ok
----------------------
SHARK INTEGRAL PACKAGE
----------------------

Number of atoms                             ...     17
Number of basis functions                   ...    358
Number of shells                            ...    140
Maximum angular momentum                    ...      3
Integral batch strategy                     ... SHARK/LIBINT Hybrid
RI-J (if used) integral strategy            ... SPLIT-RIJ (Revised 2003 algorithm where possible)
Printlevel                                  ...      1
Contraction scheme used                     ... SEGMENTED contraction
Coulomb Range Separation                    ... NOT USED
Exchange Range Separation                   ... NOT USED
Finite Nucleus Model                        ... NOT USED
Auxiliary Coulomb fitting basis             ... AVAILABLE
   # of basis functions in Aux-J            ...    569
   # of shells in Aux-J                     ...    187
   Maximum angular momentum in Aux-J        ...      4
Auxiliary J/K fitting basis                 ... NOT available
Auxiliary Correlation fitting basis         ... NOT available
Auxiliary 'external' fitting basis          ... NOT available
Integral threshold                          ...     2.500000e-11
Primitive cut-off                           ...     2.500000e-12
Primitive pair pre-selection threshold      ...     2.500000e-12

Calculating pre-screening integrals         ... done (  0.1 sec) Dimension = 140
Organizing shell pair data                  ... done (  0.2 sec)
Shell pair information
Total number of shell pairs                 ...      9870
Shell pairs after pre-screening             ...      8145
Total number of primitive shell pairs       ...     31380
Primitive shell pairs kept                  ...     17918
          la=0 lb=0:   2046 shell pairs
          la=1 lb=0:   2341 shell pairs
          la=1 lb=1:    702 shell pairs
          la=2 lb=0:   1133 shell pairs
          la=2 lb=1:    676 shell pairs
          la=2 lb=2:    176 shell pairs
          la=3 lb=0:    544 shell pairs
          la=3 lb=1:    325 shell pairs
          la=3 lb=2:    158 shell pairs
          la=3 lb=3:     44 shell pairs

Calculating one electron integrals          ... done (  0.0 sec)
Calculating RI/J V-Matrix + Cholesky decomp.... done (  0.0 sec)
Calculating Nuclear repulsion               ... done (  0.0 sec) ENN=    639.820916562993 Eh

SHARK setup successfully completed in   0.6 seconds

Maximum memory used throughout the entire GTOINT-calculation: 22.7 MB


           ************************************************************
           *        Program running with 102 parallel MPI-processes   *
           *              working on a common directory               *
           ************************************************************
-------------------------------------------------------------------------------
                                 ORCA SCF
-------------------------------------------------------------------------------

------------
SCF SETTINGS
------------
Hamiltonian:
 Density Functional     Method          .... DFT(GTOs)
 Exchange Functional    Exchange        .... B88
   X-Alpha parameter    XAlpha          ....  0.666667
   Becke's b parameter  XBeta           ....  0.004200
 Correlation Functional Correlation     .... LYP
 LDA part of GGA corr.  LDAOpt          .... VWN-5
 Gradients option       PostSCFGGA      .... off
 Hybrid DFT is turned on
   Fraction HF Exchange ScalHFX         ....  0.200000
   Scaling of DF-GGA-X  ScalDFX         ....  0.720000
   Scaling of DF-GGA-C  ScalDFC         ....  0.810000
   Scaling of DF-LDA-C  ScalLDAC        ....  1.000000
   Perturbative correction              ....  0.000000
   Density functional embedding theory  .... OFF
   NL short-range parameter             ....  4.800000
 RI-approximation to the Coulomb term is turned on
   Number of AuxJ basis functions       .... 569
   RIJ-COSX (HFX calculated with COS-X)).... on


General Settings:
 Integral files         IntName         .... /home/rudenko/mop_saddle_orca_4_serv/for_orca/CH3NO2_ch2clcoo_near_freez/orca/freq_D/f_D
 Hartree-Fock type      HFTyp           .... RHF
 Total Charge           Charge          ....   -1
 Multiplicity           Mult            ....    1
 Number of Electrons    NEL             ....   90
 Basis Dimension        Dim             ....  358
 Nuclear Repulsion      ENuc            ....    639.8209165630 Eh

Convergence Acceleration:
 DIIS                   CNVDIIS         .... on
   Start iteration      DIISMaxIt       ....    12
   Startup error        DIISStart       ....  0.200000
   # of expansion vecs  DIISMaxEq       ....     5
   Bias factor          DIISBfac        ....   1.050
   Max. coefficient     DIISMaxC        ....  10.000
 Trust-Rad. Augm. Hess. CNVTRAH         .... auto
   Auto Start mean grad. ratio tolernc. ....  1.125000
   Auto Start start iteration           ....    20
   Auto Start num. interpolation iter.  ....    10
   Max. Number of Micro iterations      ....    16
   Max. Number of Macro iterations      .... Maxiter - #DIIS iter
   Number of Davidson start vectors     ....     2
   Converg. threshold I  (grad. norm)   ....   1.000e-05
   Converg. threshold II (energy diff.) ....   1.000e-08
   Grad. Scal. Fac. for Micro threshold ....   0.100
   Minimum threshold for Micro iter.    ....   0.010
   NR start threshold (gradient norm)   ....   0.001
   Initial trust radius                 ....   0.400
   Minimum AH scaling param. (alpha)    ....   1.000
   Maximum AH scaling param. (alpha)    .... 1000.000
   Orbital update algorithm             .... Taylor
   White noise on init. David. guess    .... on
   Maximum white noise                  ....   0.010
   Quad. conv. algorithm                .... NR
 SOSCF                  CNVSOSCF        .... on
   Start iteration      SOSCFMaxIt      ....   150
   Startup grad/error   SOSCFStart      ....  0.003300
 Level Shifting         CNVShift        .... on
   Level shift para.    LevelShift      ....    0.2500
   Turn off err/grad.   ShiftErr        ....    0.0010
 Zerner damping         CNVZerner       .... off
 Static damping         CNVDamp         .... on
   Fraction old density DampFac         ....    0.7000
   Max. Damping (<1)    DampMax         ....    0.9800
   Min. Damping (>=0)   DampMin         ....    0.0000
   Turn off err/grad.   DampErr         ....    0.1000
 Fernandez-Rico         CNVRico         .... off

SCF Procedure:
 Maximum # iterations   MaxIter         ....   125
 SCF integral mode      SCFMode         .... Direct
   Integral package                     .... SHARK and LIBINT hybrid scheme
 Reset frequency        DirectResetFreq ....    20
 Integral Threshold     Thresh          ....  2.500e-11 Eh
 Primitive CutOff       TCut            ....  2.500e-12 Eh

Convergence Tolerance:
 Convergence Check Mode ConvCheckMode   .... Total+1el-Energy
 Convergence forced     ConvForced      .... 0
 Energy Change          TolE            ....  1.000e-08 Eh
 1-El. energy change                    ....  1.000e-05 Eh
 Orbital Gradient       TolG            ....  1.000e-05
 Orbital Rotation angle TolX            ....  1.000e-05
 DIIS Error             TolErr          ....  5.000e-07


Diagonalization of the overlap matrix:
Smallest eigenvalue                        ... 3.889e-04
Time for diagonalization                   ...    0.032 sec
Threshold for overlap eigenvalues          ... 1.000e-08
Number of eigenvalues below threshold      ... 0
Time for construction of square roots      ...    0.067 sec
Total time needed                          ...    0.101 sec

Time for model grid setup =    0.134 sec

------------------------------
INITIAL GUESS: MODEL POTENTIAL
------------------------------
Loading Hartree-Fock densities                     ... done
Calculating cut-offs                               ... done
Initializing the effective Hamiltonian             ... done
Setting up the integral package (SHARK)            ... done
Starting the Coulomb interaction                   ... done (   0.0 sec)
Reading the grid                                   ... done
Mapping shells                                     ... done
Starting the XC term evaluation                    ... done (   0.0 sec)
  promolecular density results
     # of electrons  =     88.994832520
     EX              =    -92.524674337
     EC              =     -3.237338834
     EX+EC           =    -95.762013171
Transforming the Hamiltonian                       ... done (   0.1 sec)
Diagonalizing the Hamiltonian                      ... done (   0.0 sec)
Back transforming the eigenvectors                 ... done (   0.0 sec)
Now organizing SCF variables                       ... done
                      ------------------
                      INITIAL GUESS DONE (   0.3 sec)
                      ------------------
-------------------
DFT GRID GENERATION
-------------------

General Integration Accuracy     IntAcc      ... 4.388
Radial Grid Type                 RadialGrid  ... OptM3 with GC (2021)
Angular Grid (max. ang.)         AngularGrid ... 4 (Lebedev-302)
Angular grid pruning method      GridPruning ... 4 (adaptive)
Weight generation scheme         WeightScheme... Becke
Basis function cutoff            BFCut       ... 1.0000e-11
Integration weight cutoff        WCut        ... 1.0000e-14
Angular grids for H and He will be reduced by one unit
Partially contracted basis set               ... off
Rotationally invariant grid construction     ... off

Total number of grid points                  ...    84485
Total number of batches                      ...     1329
Average number of points per batch           ...       63
Average number of grid points per atom       ...     4970
Time for grid setup =    0.683 sec

--------------------
COSX GRID GENERATION
--------------------

GRIDX 1
-------
General Integration Accuracy     IntAcc      ... 3.816
Radial Grid Type                 RadialGrid  ... OptM3 with GC (2021)
Angular Grid (max. ang.)         AngularGrid ... 1 (Lebedev-50)
Angular grid pruning method      GridPruning ... 4 (adaptive)
Weight generation scheme         WeightScheme... Becke
Basis function cutoff            BFCut       ... 1.0000e-11
Integration weight cutoff        WCut        ... 1.0000e-14
Angular grids for H and He will be reduced by one unit
Partially contracted basis set               ... on
Rotationally invariant grid construction     ... off

Total number of grid points                  ...    10673
Total number of batches                      ...      175
Average number of points per batch           ...       60
Average number of grid points per atom       ...      628
UseSFitting                                  ... on

GRIDX 2
-------
General Integration Accuracy     IntAcc      ... 4.020
Radial Grid Type                 RadialGrid  ... OptM3 with GC (2021)
Angular Grid (max. ang.)         AngularGrid ... 2 (Lebedev-110)
Angular grid pruning method      GridPruning ... 4 (adaptive)
Weight generation scheme         WeightScheme... Becke
Basis function cutoff            BFCut       ... 1.0000e-11
Integration weight cutoff        WCut        ... 1.0000e-14
Angular grids for H and He will be reduced by one unit
Partially contracted basis set               ... on
Rotationally invariant grid construction     ... off

Total number of grid points                  ...    23643
Total number of batches                      ...      379
Average number of points per batch           ...       62
Average number of grid points per atom       ...     1391
UseSFitting                                  ... on

GRIDX 3
-------
General Integration Accuracy     IntAcc      ... 4.338
Radial Grid Type                 RadialGrid  ... OptM3 with GC (2021)
Angular Grid (max. ang.)         AngularGrid ... 3 (Lebedev-194)
Angular grid pruning method      GridPruning ... 4 (adaptive)
Weight generation scheme         WeightScheme... Becke
Basis function cutoff            BFCut       ... 1.0000e-11
Integration weight cutoff        WCut        ... 1.0000e-14
Angular grids for H and He will be reduced by one unit
Partially contracted basis set               ... on
Rotationally invariant grid construction     ... off

Total number of grid points                  ...    52600
Total number of batches                      ...      830
Average number of points per batch           ...       63
Average number of grid points per atom       ...     3094
UseSFitting                                  ... on

Time for X-Grid setup             =    0.799 sec


--------------------
CPCM SOLVATION MODEL
--------------------
CPCM parameters:
  Epsilon                                         ...      78.4000
  Refrac                                          ...       1.3300
  Rsolv                                           ...       1.3000
  Surface type                                    ... GAUSSIAN VDW
  Epsilon function type                           ...         CPCM
Radii:
 Radius for C  used is    3.8550 Bohr (=   2.0400 Ang.)
 Radius for H  used is    2.4944 Bohr (=   1.3200 Ang.)
 Radius for N  used is    3.5149 Bohr (=   1.8600 Ang.)
 Radius for O  used is    3.4469 Bohr (=   1.8240 Ang.)
 Radius for Cl used is    3.9684 Bohr (=   2.1000 Ang.)
Calculating surface                               ...        done! (  0.0s)
GEPOL surface points                              ...         1029
GEPOL Volume                                      ...    1272.8766
GEPOL Surface-area                                ...     752.0918
Calculating surface distance matrix               ...        done! (  0.1s)
Performing Cholesky decomposition & store         ...        done! (  0.2s)
Overall time for CPCM initialization              ...                 0.3s
--------------
SCF ITERATIONS
--------------
ITER       Energy         Delta-E        Max-DP      RMS-DP      [F,P]     Damp
               ***  Starting incremental Fock matrix formation  ***
  0  -1009.1599275690   0.000000000000 0.11333334  0.00130853  0.3229864 0.7000
  1  -1009.3765504439  -0.216622874912 0.10952159  0.00098350  0.1257210 0.7000
                               ***Turning on DIIS***
  2  -1009.4474804238  -0.070929979894 0.14243208  0.00144227  0.0383469 0.0000
  3  -1009.5776521414  -0.130171717629 0.09257200  0.00072419  0.0698913 0.0000
  4  -1009.5986799877  -0.021027846292 0.03385911  0.00027742  0.0177675 0.0000
                      *** Initiating the SOSCF procedure ***
                           *** Shutting down DIIS ***
                      *** Re-Reading the Fockian *** 
                      *** Removing any level shift *** 
ITER      Energy       Delta-E        Grad      Rot      Max-DP    RMS-DP
  5  -1009.60041690  -0.0017369077  0.000584  0.000584  0.013540  0.000097
               *** Restarting incremental Fock matrix formation ***
  6  -1009.60048116  -0.0000642615  0.000507  0.002735  0.005872  0.000055
  7  -1009.60045994   0.0000212191  0.000764  0.001246  0.001452  0.000020
  8  -1009.60049517  -0.0000352322  0.000119  0.000339  0.000875  0.000007
  9  -1009.60049451   0.0000006642  0.000196  0.000196  0.000534  0.000004
 10  -1009.60049552  -0.0000010155  0.000017  0.000043  0.000085  0.000001
 11  -1009.60049550   0.0000000230  0.000023  0.000032  0.000043  0.000001
 12  -1009.60049553  -0.0000000330  0.000004  0.000014  0.000019  0.000000
 13  -1009.60049553   0.0000000042  0.000008  0.000011  0.000009  0.000000
                  ***Gradient check signals convergence***
              ***Rediagonalizing the Fockian in SOSCF/NRSCF***

               *****************************************************
               *                     SUCCESS                       *
               *           SCF CONVERGED AFTER  14 CYCLES          *
               *****************************************************

Old exchange energy                            =    -18.677349280 Eh
New exchange energy                            =    -18.677326683 Eh
Exchange energy change after final integration =      0.000022597 Eh
Total energy after final integration           =  -1009.600472929 Eh
Final COS-X integration done in                =     0.675 sec

----------------
TOTAL SCF ENERGY
----------------

Total Energy       :        -1009.60047293 Eh          -27472.62555 eV

Components:
Nuclear Repulsion  :          639.82091656 Eh           17410.41227 eV
Electronic Energy  :        -1649.42138949 Eh          -44883.03782 eV
One Electron Energy:        -2675.07630014 Eh          -72792.52683 eV
Two Electron Energy:         1025.65491065 Eh           27909.48901 eV
Max COSX asymmetry :            0.00000133 Eh               0.00004 eV
CPCM Dielectric    :           -0.09259341 Eh              -2.51959 eV

Virial components:
Potential Energy   :        -2016.48902123 Eh          -54871.45588 eV
Kinetic Energy     :         1006.88854830 Eh           27398.83033 eV
Virial Ratio       :            2.00269337


DFT components:
N(Alpha)           :       45.000022188401 electrons
N(Beta)            :       45.000022188401 electrons
N(Total)           :       90.000044376802 electrons
E(X)               :      -74.398736804455 Eh       
E(C)               :       -3.842281398817 Eh       
E(XC)              :      -78.241018203272 Eh       
DFET-embed. en.    :        0.000000000000 Eh       
CPCM Solvation Model Properties:
Surface-charge          :            0.97691943
Charge-correction       :           -0.00290301 Eh              -0.07899 eV
Free-energy (cav+disp)  :  This term is not implemented in the current solvation scheme

---------------
SCF CONVERGENCE
---------------

  Last Energy change         ...    1.5810e-09  Tolerance :   1.0000e-08
  Last MAX-Density change    ...    1.7764e-15  Tolerance :   1.0000e-07
  Last RMS-Density change    ...    2.1340e-17  Tolerance :   5.0000e-09
  Last Orbital Gradient      ...    1.2888e-06  Tolerance :   1.0000e-05
  Last Orbital Rotation      ...    3.6960e-06  Tolerance :   1.0000e-05

             **** THE GBW FILE WAS UPDATED (/home/rudenko/mop_saddle_orca_4_serv/for_orca/CH3NO2_ch2clcoo_near_freez/orca/freq_D/f_D.gbw) ****
             **** DENSITY /home/rudenko/mop_saddle_orca_4_serv/for_orca/CH3NO2_ch2clcoo_near_freez/orca/freq_D/f_D.scfp WAS UPDATED ****
             **** ENERGY FILE WAS UPDATED (/home/rudenko/mop_saddle_orca_4_serv/for_orca/CH3NO2_ch2clcoo_near_freez/orca/freq_D/f_D.en.tmp) ****
             **** THE GBW FILE WAS UPDATED (/home/rudenko/mop_saddle_orca_4_serv/for_orca/CH3NO2_ch2clcoo_near_freez/orca/freq_D/f_D.gbw) ****
             **** DENSITY /home/rudenko/mop_saddle_orca_4_serv/for_orca/CH3NO2_ch2clcoo_near_freez/orca/freq_D/f_D.scfp WAS UPDATED ****
----------------
ORBITAL ENERGIES
----------------

  NO   OCC          E(Eh)            E(eV) 
   0   2.0000    -101.518175     -2762.4500 
   1   2.0000     -19.128506      -520.5131 
   2   2.0000     -19.124262      -520.3976 
   3   2.0000     -19.124091      -520.3930 
   4   2.0000     -19.101111      -519.7677 
   5   2.0000     -19.100834      -519.7601 
   6   2.0000     -14.517436      -395.0395 
   7   2.0000     -10.295355      -280.1508 
   8   2.0000     -10.227511      -278.3047 
   9   2.0000     -10.166890      -276.6552 
  10   2.0000      -9.450197      -257.1529 
  11   2.0000      -7.211750      -196.2417 
  12   2.0000      -7.203197      -196.0089 
  13   2.0000      -7.203034      -196.0045 
  14   2.0000      -1.188307       -32.3355 
  15   2.0000      -1.079431       -29.3728 
  16   2.0000      -1.010627       -27.5006 
  17   2.0000      -0.998243       -27.1636 
  18   2.0000      -0.964172       -26.2364 
  19   2.0000      -0.854271       -23.2459 
  20   2.0000      -0.789248       -21.4765 
  21   2.0000      -0.702371       -19.1125 
  22   2.0000      -0.587480       -15.9862 
  23   2.0000      -0.581900       -15.8343 
  24   2.0000      -0.519525       -14.1370 
  25   2.0000      -0.515477       -14.0268 
  26   2.0000      -0.504633       -13.7318 
  27   2.0000      -0.498967       -13.5776 
  28   2.0000      -0.476208       -12.9583 
  29   2.0000      -0.460799       -12.5390 
  30   2.0000      -0.456124       -12.4118 
  31   2.0000      -0.432907       -11.7800 
  32   2.0000      -0.405512       -11.0345 
  33   2.0000      -0.400716       -10.9040 
  34   2.0000      -0.394888       -10.7454 
  35   2.0000      -0.350190        -9.5292 
  36   2.0000      -0.322604        -8.7785 
  37   2.0000      -0.308543        -8.3959 
  38   2.0000      -0.301818        -8.2129 
  39   2.0000      -0.298003        -8.1091 
  40   2.0000      -0.293587        -7.9889 
  41   2.0000      -0.291259        -7.9256 
  42   2.0000      -0.269304        -7.3281 
  43   2.0000      -0.266754        -7.2588 
  44   2.0000      -0.231422        -6.2973 
  45   0.0000      -0.045768        -1.2454 
  46   0.0000      -0.020890        -0.5685 
  47   0.0000       0.045870         1.2482 
  48   0.0000       0.063110         1.7173 
  49   0.0000       0.093652         2.5484 
  50   0.0000       0.096689         2.6310 
  51   0.0000       0.116240         3.1630 
  52   0.0000       0.125645         3.4190 
  53   0.0000       0.130100         3.5402 
  54   0.0000       0.140313         3.8181 
  55   0.0000       0.148636         4.0446 
  56   0.0000       0.169248         4.6055 
  57   0.0000       0.181426         4.9369 
  58   0.0000       0.198533         5.4024 
  59   0.0000       0.227106         6.1799 
  60   0.0000       0.235790         6.4162 
  61   0.0000       0.242909         6.6099 
  62   0.0000       0.255747         6.9592 
  63   0.0000       0.266819         7.2605 
  64   0.0000       0.274092         7.4584 
  65   0.0000       0.282666         7.6917 
  66   0.0000       0.302523         8.2321 
  67   0.0000       0.318420         8.6646 
  68   0.0000       0.325518         8.8578 
  69   0.0000       0.332219         9.0402 
  70   0.0000       0.336720         9.1626 
  71   0.0000       0.354228         9.6390 
  72   0.0000       0.360411         9.8073 
  73   0.0000       0.367816        10.0088 
  74   0.0000       0.381583        10.3834 
  75   0.0000       0.399129        10.8608 
  76   0.0000       0.409425        11.1410 
  77   0.0000       0.416487        11.3332 
  78   0.0000       0.418113        11.3774 
  79   0.0000       0.429825        11.6961 
  80   0.0000       0.436265        11.8714 
  81   0.0000       0.448112        12.1937 
  82   0.0000       0.453812        12.3488 
  83   0.0000       0.464897        12.6505 
  84   0.0000       0.466235        12.6869 
  85   0.0000       0.476616        12.9694 
  86   0.0000       0.485413        13.2088 
  87   0.0000       0.499428        13.5901 
  88   0.0000       0.510333        13.8869 
  89   0.0000       0.523520        14.2457 
  90   0.0000       0.529659        14.4127 
  91   0.0000       0.531426        14.4608 
  92   0.0000       0.542266        14.7558 
  93   0.0000       0.543143        14.7797 
  94   0.0000       0.567013        15.4292 
  95   0.0000       0.579185        15.7604 
  96   0.0000       0.588896        16.0247 
  97   0.0000       0.595756        16.2114 
  98   0.0000       0.617202        16.7949 
  99   0.0000       0.629388        17.1265 
 100   0.0000       0.651229        17.7208 
 101   0.0000       0.657953        17.9038 
 102   0.0000       0.690369        18.7859 
 103   0.0000       0.706238        19.2177 
 104   0.0000       0.723974        19.7003 
 105   0.0000       0.752919        20.4880 
 106   0.0000       0.770594        20.9689 
 107   0.0000       0.777421        21.1547 
 108   0.0000       0.806181        21.9373 
 109   0.0000       0.820350        22.3229 
 110   0.0000       0.836929        22.7740 
 111   0.0000       0.852479        23.1971 
 112   0.0000       0.870300        23.6821 
 113   0.0000       0.898003        24.4359 
 114   0.0000       0.919007        25.0074 
 115   0.0000       0.940556        25.5938 
 116   0.0000       0.946731        25.7619 
 117   0.0000       0.978095        26.6153 
 118   0.0000       0.996808        27.1245 
 119   0.0000       0.998847        27.1800 
 120   0.0000       1.033174        28.1141 
 121   0.0000       1.063923        28.9508 
 122   0.0000       1.088987        29.6328 
 123   0.0000       1.100246        29.9392 
 124   0.0000       1.108091        30.1527 
 125   0.0000       1.132085        30.8056 
 126   0.0000       1.198398        32.6101 
 127   0.0000       1.205293        32.7977 
 128   0.0000       1.226799        33.3829 
 129   0.0000       1.252585        34.0846 
 130   0.0000       1.262719        34.3603 
 131   0.0000       1.305516        35.5249 
 132   0.0000       1.371705        37.3260 
 133   0.0000       1.378210        37.5030 
 134   0.0000       1.401941        38.1488 
 135   0.0000       1.415061        38.5058 
 136   0.0000       1.430433        38.9241 
 137   0.0000       1.467578        39.9348 
 138   0.0000       1.495492        40.6944 
 139   0.0000       1.516638        41.2698 
 140   0.0000       1.529300        41.6144 
 141   0.0000       1.541652        41.9505 
 142   0.0000       1.546369        42.0788 
 143   0.0000       1.572719        42.7959 
 144   0.0000       1.595739        43.4223 
 145   0.0000       1.611695        43.8564 
 146   0.0000       1.627357        44.2826 
 147   0.0000       1.641708        44.6731 
 148   0.0000       1.649966        44.8979 
 149   0.0000       1.662276        45.2328 
 150   0.0000       1.681329        45.7513 
 151   0.0000       1.687186        45.9107 
 152   0.0000       1.702317        46.3224 
 153   0.0000       1.729378        47.0588 
 154   0.0000       1.754964        47.7550 
 155   0.0000       1.768824        48.1321 
 156   0.0000       1.782781        48.5119 
 157   0.0000       1.789379        48.6915 
 158   0.0000       1.801750        49.0281 
 159   0.0000       1.806886        49.1679 
 160   0.0000       1.814471        49.3743 
 161   0.0000       1.842123        50.1267 
 162   0.0000       1.862567        50.6830 
 163   0.0000       1.881442        51.1966 
 164   0.0000       1.908723        51.9390 
 165   0.0000       1.915348        52.1193 
 166   0.0000       1.936902        52.7058 
 167   0.0000       1.949230        53.0412 
 168   0.0000       1.961990        53.3885 
 169   0.0000       1.978127        53.8276 
 170   0.0000       1.991143        54.1817 
 171   0.0000       2.001555        54.4651 
 172   0.0000       2.009245        54.6743 
 173   0.0000       2.035037        55.3762 
 174   0.0000       2.050432        55.7951 
 175   0.0000       2.072026        56.3827 
 176   0.0000       2.077108        56.5210 
 177   0.0000       2.091033        56.8999 
 178   0.0000       2.098616        57.1063 
 179   0.0000       2.120674        57.7065 
 180   0.0000       2.125118        57.8274 
 181   0.0000       2.144275        58.3487 
 182   0.0000       2.164780        58.9067 
 183   0.0000       2.191867        59.6437 
 184   0.0000       2.207736        60.0756 
 185   0.0000       2.222829        60.4862 
 186   0.0000       2.226531        60.5870 
 187   0.0000       2.244745        61.0826 
 188   0.0000       2.249121        61.2017 
 189   0.0000       2.259652        61.4883 
 190   0.0000       2.284290        62.1587 
 191   0.0000       2.293875        62.4195 
 192   0.0000       2.308730        62.8237 
 193   0.0000       2.320408        63.1415 
 194   0.0000       2.353343        64.0377 
 195   0.0000       2.373757        64.5932 
 196   0.0000       2.383794        64.8663 
 197   0.0000       2.408309        65.5334 
 198   0.0000       2.425444        65.9997 
 199   0.0000       2.464845        67.0719 
 200   0.0000       2.489107        67.7320 
 201   0.0000       2.515997        68.4638 
 202   0.0000       2.526410        68.7471 
 203   0.0000       2.569105        69.9089 
 204   0.0000       2.581729        70.2524 
 205   0.0000       2.603423        70.8427 
 206   0.0000       2.613153        71.1075 
 207   0.0000       2.630274        71.5734 
 208   0.0000       2.645143        71.9780 
 209   0.0000       2.653502        72.2055 
 210   0.0000       2.679349        72.9088 
 211   0.0000       2.713929        73.8498 
 212   0.0000       2.727448        74.2176 
 213   0.0000       2.744648        74.6857 
 214   0.0000       2.767340        75.3032 
 215   0.0000       2.787685        75.8568 
 216   0.0000       2.812576        76.5341 
 217   0.0000       2.814894        76.5972 
 218   0.0000       2.838768        77.2468 
 219   0.0000       2.889702        78.6328 
 220   0.0000       2.908945        79.1564 
 221   0.0000       2.918001        79.4028 
 222   0.0000       2.930141        79.7332 
 223   0.0000       2.965332        80.6908 
 224   0.0000       2.980536        81.1045 
 225   0.0000       2.997290        81.5604 
 226   0.0000       3.003604        81.7322 
 227   0.0000       3.018830        82.1465 
 228   0.0000       3.043387        82.8148 
 229   0.0000       3.067958        83.4834 
 230   0.0000       3.088113        84.0318 
 231   0.0000       3.129126        85.1478 
 232   0.0000       3.140016        85.4442 
 233   0.0000       3.153211        85.8032 
 234   0.0000       3.195850        86.9635 
 235   0.0000       3.206294        87.2477 
 236   0.0000       3.247346        88.3648 
 237   0.0000       3.275484        89.1305 
 238   0.0000       3.283626        89.3520 
 239   0.0000       3.288081        89.4732 
 240   0.0000       3.301801        89.8466 
 241   0.0000       3.331789        90.6626 
 242   0.0000       3.366533        91.6080 
 243   0.0000       3.378060        91.9217 
 244   0.0000       3.409237        92.7701 
 245   0.0000       3.436808        93.5203 
 246   0.0000       3.484273        94.8119 
 247   0.0000       3.501815        95.2892 
 248   0.0000       3.517241        95.7090 
 249   0.0000       3.559662        96.8633 
 250   0.0000       3.580784        97.4381 
 251   0.0000       3.622802        98.5814 
 252   0.0000       3.653093        99.4057 
 253   0.0000       3.667073        99.7861 
 254   0.0000       3.755129       102.1823 
 255   0.0000       3.767618       102.5221 
 256   0.0000       3.795281       103.2749 
 257   0.0000       3.823852       104.0523 
 258   0.0000       3.849389       104.7472 
 259   0.0000       3.906521       106.3018 
 260   0.0000       3.966142       107.9242 
 261   0.0000       4.031178       109.6939 
 262   0.0000       4.040379       109.9443 
 263   0.0000       4.041660       109.9792 
 264   0.0000       4.114684       111.9663 
 265   0.0000       4.119202       112.0892 
 266   0.0000       4.140199       112.6605 
 267   0.0000       4.185819       113.9019 
 268   0.0000       4.308294       117.2347 
 269   0.0000       4.375177       119.0546 
 270   0.0000       4.400069       119.7320 
 271   0.0000       4.431555       120.5887 
 272   0.0000       4.461395       121.4007 
 273   0.0000       4.491514       122.2203 
 274   0.0000       4.606524       125.3499 
 275   0.0000       4.624475       125.8383 
 276   0.0000       4.662807       126.8814 
 277   0.0000       4.707713       128.1034 
 278   0.0000       4.720784       128.4591 
 279   0.0000       4.746591       129.1613 
 280   0.0000       4.904730       133.4645 
 281   0.0000       4.949592       134.6852 
 282   0.0000       5.131265       139.6288 
 283   0.0000       5.132924       139.6740 
 284   0.0000       5.138377       139.8223 
 285   0.0000       5.154317       140.2561 
 286   0.0000       5.166329       140.5830 
 287   0.0000       5.169020       140.6562 
 288   0.0000       5.190964       141.2533 
 289   0.0000       5.193572       141.3243 
 290   0.0000       5.220529       142.0578 
 291   0.0000       5.271879       143.4551 
 292   0.0000       5.279977       143.6755 
 293   0.0000       5.286502       143.8530 
 294   0.0000       5.351434       145.6199 
 295   0.0000       5.363682       145.9532 
 296   0.0000       5.378120       146.3461 
 297   0.0000       5.416745       147.3971 
 298   0.0000       5.432988       147.8391 
 299   0.0000       5.521465       150.2467 
 300   0.0000       5.589117       152.0876 
 301   0.0000       5.600305       152.3920 
 302   0.0000       5.615947       152.8177 
 303   0.0000       5.636577       153.3791 
 304   0.0000       5.701118       155.1353 
 305   0.0000       5.797720       157.7640 
 306   0.0000       5.893005       160.3568 
 307   0.0000       5.929577       161.3520 
 308   0.0000       5.963042       162.2626 
 309   0.0000       5.977378       162.6527 
 310   0.0000       6.145198       167.2193 
 311   0.0000       6.181806       168.2155 
 312   0.0000       6.257216       170.2675 
 313   0.0000       6.273117       170.7002 
 314   0.0000       6.308746       171.6697 
 315   0.0000       6.315866       171.8634 
 316   0.0000       6.328076       172.1957 
 317   0.0000       6.360741       173.0846 
 318   0.0000       6.375639       173.4900 
 319   0.0000       6.384428       173.7291 
 320   0.0000       6.399535       174.1402 
 321   0.0000       6.414787       174.5552 
 322   0.0000       6.455983       175.6762 
 323   0.0000       6.475506       176.2075 
 324   0.0000       6.501293       176.9092 
 325   0.0000       6.660482       181.2409 
 326   0.0000       6.695069       182.1821 
 327   0.0000       6.754427       183.7973 
 328   0.0000       6.769210       184.1996 
 329   0.0000       6.823928       185.6885 
 330   0.0000       6.850143       186.4019 
 331   0.0000       6.861698       186.7163 
 332   0.0000       6.875835       187.1010 
 333   0.0000       6.898785       187.7255 
 334   0.0000       6.970003       189.6634 
 335   0.0000       7.040042       191.5693 
 336   0.0000       7.080045       192.6578 
 337   0.0000       7.100443       193.2129 
 338   0.0000       7.131558       194.0595 
 339   0.0000       7.199520       195.9089 
 340   0.0000       7.216896       196.3817 
 341   0.0000       7.236883       196.9256 
 342   0.0000       7.372870       200.6260 
 343   0.0000       7.431987       202.2347 
 344   0.0000       7.480757       203.5618 
 345   0.0000      10.720872       291.7298 
 346   0.0000      10.738295       292.2039 
 347   0.0000      11.200950       304.7933 
 348   0.0000      22.159022       602.9776 
 349   0.0000      22.434312       610.4687 
 350   0.0000      23.341397       635.1517 
 351   0.0000      25.291822       688.2255 
 352   0.0000      32.232163       877.0817 
 353   0.0000      43.658883      1188.0186 
 354   0.0000      43.796253      1191.7566 
 355   0.0000      43.897392      1194.5088 
 356   0.0000      43.936715      1195.5788 
 357   0.0000      43.989150      1197.0056 

                    ********************************
                    * MULLIKEN POPULATION ANALYSIS *
                    ********************************

-----------------------
MULLIKEN ATOMIC CHARGES
-----------------------
   0 C :   -0.458883
   1 H :    0.141797
   2 H :    0.342633
   3 H :    0.136448
   4 N :    0.421409
   5 O :   -0.464375
   6 O :   -0.465278
   7 C :    0.293209
   8 O :   -0.436049
   9 O :   -0.435777
  10 C :   -0.131618
  11 Cl:   -0.205935
  12 H :    0.156022
  13 H :    0.154701
  14 H :    0.340021
  15 O :   -0.743005
  16 H :    0.354680
Sum of atomic charges:   -1.0000000

--------------------------------
MULLIKEN REDUCED ORBITAL CHARGES
--------------------------------
  0 C s       :     3.332342  s :     3.332342
      pz      :     0.917910  p :     3.061073
      px      :     1.172580
      py      :     0.970583
      dz2     :     0.012970  d :     0.058902
      dxz     :     0.014944
      dyz     :     0.011940
      dx2y2   :     0.012222
      dxy     :     0.006827
      f0      :     0.001144  f :     0.006566
      f+1     :     0.000588
      f-1     :     0.001437
      f+2     :     0.001496
      f-2     :     0.001019
      f+3     :     0.000232
      f-3     :     0.000649
  1 H s       :     0.835823  s :     0.835823
      pz      :     0.006787  p :     0.022380
      px      :     0.011199
      py      :     0.004393
  2 H s       :     0.596098  s :     0.596098
      pz      :     0.022936  p :     0.061269
      px      :     0.030713
      py      :     0.007620
  3 H s       :     0.841105  s :     0.841105
      pz      :     0.004418  p :     0.022447
      px      :     0.005147
      py      :     0.012881
  4 N s       :     3.316143  s :     3.316143
      pz      :     1.015929  p :     3.015013
      px      :     1.049583
      py      :     0.949502
      dz2     :     0.048979  d :     0.233399
      dxz     :     0.027556
      dyz     :     0.063312
      dx2y2   :     0.044999
      dxy     :     0.048552
      f0      :     0.002396  f :     0.014036
      f+1     :     0.001768
      f-1     :     0.001473
      f+2     :     0.002736
      f-2     :     0.001672
      f+3     :     0.001969
      f-3     :     0.002023
  5 O s       :     3.888292  s :     3.888292
      pz      :     1.415407  p :     4.535463
      px      :     1.377636
      py      :     1.742420
      dz2     :     0.008193  d :     0.037585
      dxz     :     0.011236
      dyz     :     0.007803
      dx2y2   :     0.005256
      dxy     :     0.005098
      f0      :     0.000369  f :     0.003035
      f+1     :     0.000595
      f-1     :     0.000447
      f+2     :     0.000517
      f-2     :     0.000705
      f+3     :     0.000187
      f-3     :     0.000215
  6 O s       :     3.877455  s :     3.877455
      pz      :     1.792403  p :     4.547054
      px      :     1.583908
      py      :     1.170743
      dz2     :     0.005131  d :     0.037706
      dxz     :     0.001131
      dyz     :     0.007321
      dx2y2   :     0.012750
      dxy     :     0.011373
      f0      :     0.000287  f :     0.003062
      f+1     :     0.000111
      f-1     :     0.000570
      f+2     :     0.000270
      f-2     :     0.000181
      f+3     :     0.000854
      f-3     :     0.000789
  7 C s       :     3.074747  s :     3.074747
      pz      :     0.742183  p :     2.363252
      px      :     0.732183
      py      :     0.888886
      dz2     :     0.062699  d :     0.243270
      dxz     :     0.031821
      dyz     :     0.053577
      dx2y2   :     0.053389
      dxy     :     0.041782
      f0      :     0.003132  f :     0.025523
      f+1     :     0.002850
      f-1     :     0.004785
      f+2     :     0.003991
      f-2     :     0.004218
      f+3     :     0.003167
      f-3     :     0.003379
  8 O s       :     3.787013  s :     3.787013
      pz      :     1.576625  p :     4.619134
      px      :     1.475380
      py      :     1.567128
      dz2     :     0.004778  d :     0.028118
      dxz     :     0.003808
      dyz     :     0.006522
      dx2y2   :     0.006384
      dxy     :     0.006627
      f0      :     0.000126  f :     0.001785
      f+1     :     0.000156
      f-1     :     0.000346
      f+2     :     0.000272
      f-2     :     0.000316
      f+3     :     0.000232
      f-3     :     0.000337
  9 O s       :     3.757165  s :     3.757165
      pz      :     1.453090  p :     4.648708
      px      :     1.520655
      py      :     1.674962
      dz2     :     0.006865  d :     0.028256
      dxz     :     0.005725
      dyz     :     0.006212
      dx2y2   :     0.002912
      dxy     :     0.006541
      f0      :     0.000311  f :     0.001648
      f+1     :     0.000437
      f-1     :     0.000104
      f+2     :     0.000287
      f-2     :     0.000335
      f+3     :     0.000144
      f-3     :     0.000028
 10 C s       :     3.224681  s :     3.224681
      pz      :     0.940871  p :     2.812827
      px      :     0.974082
      py      :     0.897873
      dz2     :     0.020729  d :     0.088321
      dxz     :     0.013716
      dyz     :     0.016622
      dx2y2   :     0.017876
      dxy     :     0.019378
      f0      :     0.000658  f :     0.005788
      f+1     :     0.000951
      f-1     :     0.000692
      f+2     :     0.000950
      f-2     :     0.000669
      f+3     :     0.000746
      f-3     :     0.001122
 11 Cls       :     5.913704  s :     5.913704
      pz      :     3.727071  p :    11.234715
      px      :     3.730212
      py      :     3.777432
      dz2     :     0.009016  d :     0.052831
      dxz     :     0.012710
      dyz     :     0.011035
      dx2y2   :     0.008649
      dxy     :     0.011422
      f0      :     0.000572  f :     0.004684
      f+1     :     0.000569
      f-1     :     0.000533
      f+2     :     0.000581
      f-2     :     0.001415
      f+3     :     0.000542
      f-3     :     0.000472
 12 H s       :     0.821248  s :     0.821248
      pz      :     0.004008  p :     0.022730
      px      :     0.012487
      py      :     0.006234
 13 H s       :     0.823016  s :     0.823016
      pz      :     0.012782  p :     0.022283
      px      :     0.005508
      py      :     0.003993
 14 H s       :     0.614613  s :     0.614613
      pz      :     0.018130  p :     0.045367
      px      :     0.013067
      py      :     0.014169
 15 O s       :     3.803108  s :     3.803108
      pz      :     1.458055  p :     4.920812
      px      :     1.665304
      py      :     1.797454
      dz2     :     0.001906  d :     0.018126
      dxz     :     0.006775
      dyz     :     0.003620
      dx2y2   :     0.002763
      dxy     :     0.003061
      f0      :     0.000102  f :     0.000959
      f+1     :     0.000262
      f-1     :     0.000225
      f+2     :     0.000084
      f-2     :     0.000175
      f+3     :     0.000073
      f-3     :     0.000038
 16 H s       :     0.565654  s :     0.565654
      pz      :     0.016576  p :     0.079666
      px      :     0.026129
      py      :     0.036962


                     *******************************
                     * LOEWDIN POPULATION ANALYSIS *
                     *******************************

----------------------
LOEWDIN ATOMIC CHARGES
----------------------
   0 C :   -0.397733
   1 H :    0.114178
   2 H :    0.153380
   3 H :    0.113509
   4 N :   -0.086725
   5 O :   -0.169474
   6 O :   -0.175099
   7 C :   -0.609819
   8 O :    0.002126
   9 O :    0.055212
  10 C :   -0.432618
  11 Cl:    0.228425
  12 H :    0.127467
  13 H :    0.134274
  14 H :    0.149471
  15 O :   -0.349311
  16 H :    0.142737

-------------------------------
LOEWDIN REDUCED ORBITAL CHARGES
-------------------------------
  0 C s       :     2.905508  s :     2.905508
      pz      :     1.005328  p :     3.175019
      px      :     1.136263
      py      :     1.033429
      dz2     :     0.058086  d :     0.276914
      dxz     :     0.066424
      dyz     :     0.066065
      dx2y2   :     0.061321
      dxy     :     0.025018
      f0      :     0.007893  f :     0.040292
      f+1     :     0.003829
      f-1     :     0.010757
      f+2     :     0.006295
      f-2     :     0.006649
      f+3     :     0.001587
      f-3     :     0.003282
  1 H s       :     0.818328  s :     0.818328
      pz      :     0.018672  p :     0.067494
      px      :     0.034779
      py      :     0.014044
  2 H s       :     0.637957  s :     0.637957
      pz      :     0.076896  p :     0.208663
      px      :     0.109329
      py      :     0.022437
  3 H s       :     0.818929  s :     0.818929
      pz      :     0.013961  p :     0.067562
      px      :     0.016752
      py      :     0.036849
  4 N s       :     2.945709  s :     2.945709
      pz      :     1.135801  p :     3.316804
      px      :     1.056917
      py      :     1.124086
      dz2     :     0.155956  d :     0.753315
      dxz     :     0.101034
      dyz     :     0.195649
      dx2y2   :     0.143450
      dxy     :     0.157227
      f0      :     0.012735  f :     0.070896
      f+1     :     0.009197
      f-1     :     0.007705
      f+2     :     0.013255
      f-2     :     0.008201
      f+3     :     0.010334
      f-3     :     0.009468
  5 O s       :     3.519028  s :     3.519028
      pz      :     1.450429  p :     4.547797
      px      :     1.410660
      py      :     1.686708
      dz2     :     0.018719  d :     0.092649
      dxz     :     0.029679
      dyz     :     0.018871
      dx2y2   :     0.011754
      dxy     :     0.013626
      f0      :     0.001165  f :     0.010000
      f+1     :     0.002186
      f-1     :     0.001238
      f+2     :     0.001684
      f-2     :     0.002460
      f+3     :     0.000591
      f-3     :     0.000676
  6 O s       :     3.518887  s :     3.518887
      pz      :     1.698041  p :     4.553220
      px      :     1.541196
      py      :     1.313984
      dz2     :     0.013043  d :     0.092914
      dxz     :     0.002409
      dyz     :     0.018693
      dx2y2   :     0.032299
      dxy     :     0.026470
      f0      :     0.000906  f :     0.010078
      f+1     :     0.000324
      f-1     :     0.001855
      f+2     :     0.000983
      f-2     :     0.000563
      f+3     :     0.002855
      f-3     :     0.002592
  7 C s       :     2.779389  s :     2.779389
      pz      :     0.862202  p :     2.699709
      px      :     0.815211
      py      :     1.022296
      dz2     :     0.226243  d :     0.972253
      dxz     :     0.163237
      dyz     :     0.210981
      dx2y2   :     0.211635
      dxy     :     0.160157
      f0      :     0.018947  f :     0.158468
      f+1     :     0.018084
      f-1     :     0.031271
      f+2     :     0.020865
      f-2     :     0.027973
      f+3     :     0.019797
      f-3     :     0.021531
  8 O s       :     3.411466  s :     3.411466
      pz      :     1.514108  p :     4.517167
      px      :     1.437808
      py      :     1.565252
      dz2     :     0.009605  d :     0.063385
      dxz     :     0.010168
      dyz     :     0.014436
      dx2y2   :     0.013280
      dxy     :     0.015896
      f0      :     0.000576  f :     0.005856
      f+1     :     0.000481
      f-1     :     0.000844
      f+2     :     0.000737
      f-2     :     0.001424
      f+3     :     0.000991
      f-3     :     0.000801
  9 O s       :     3.352908  s :     3.352908
      pz      :     1.470958  p :     4.518142
      px      :     1.471571
      py      :     1.575614
      dz2     :     0.014290  d :     0.068552
      dxz     :     0.018881
      dyz     :     0.015823
      dx2y2   :     0.005944
      dxy     :     0.013614
      f0      :     0.000742  f :     0.005186
      f+1     :     0.001345
      f-1     :     0.000542
      f+2     :     0.000910
      f-2     :     0.000978
      f+3     :     0.000518
      f-3     :     0.000150
 10 C s       :     2.884957  s :     2.884957
      pz      :     1.029921  p :     3.104909
      px      :     1.042909
      py      :     1.032079
      dz2     :     0.091723  d :     0.404411
      dxz     :     0.063707
      dyz     :     0.074841
      dx2y2   :     0.085906
      dxy     :     0.088234
      f0      :     0.003384  f :     0.038342
      f+1     :     0.005433
      f-1     :     0.005225
      f+2     :     0.006981
      f-2     :     0.006178
      f+3     :     0.004527
      f-3     :     0.006614
 11 Cls       :     5.609975  s :     5.609975
      pz      :     3.682402  p :    11.064038
      px      :     3.676922
      py      :     3.704715
      dz2     :     0.016230  d :     0.087887
      dxz     :     0.020893
      dyz     :     0.018004
      dx2y2   :     0.015233
      dxy     :     0.017527
      f0      :     0.001059  f :     0.009675
      f+1     :     0.001365
      f-1     :     0.001210
      f+2     :     0.001474
      f-2     :     0.002478
      f+3     :     0.001085
      f-3     :     0.001005
 12 H s       :     0.805461  s :     0.805461
      pz      :     0.012223  p :     0.067072
      px      :     0.037482
      py      :     0.017368
 13 H s       :     0.802010  s :     0.802010
      pz      :     0.035916  p :     0.063715
      px      :     0.016450
      py      :     0.011350
 14 H s       :     0.683027  s :     0.683027
      pz      :     0.073463  p :     0.167502
      px      :     0.046066
      py      :     0.047973
 15 O s       :     3.515190  s :     3.515190
      pz      :     1.431703  p :     4.796814
      px      :     1.614915
      py      :     1.750196
      dz2     :     0.004043  d :     0.034777
      dxz     :     0.013852
      dyz     :     0.006517
      dx2y2   :     0.003873
      dxy     :     0.006491
      f0      :     0.000308  f :     0.002531
      f+1     :     0.000626
      f-1     :     0.000377
      f+2     :     0.000298
      f-2     :     0.000576
      f+3     :     0.000259
      f-3     :     0.000086
 16 H s       :     0.598493  s :     0.598493
      pz      :     0.047861  p :     0.258770
      px      :     0.082154
      py      :     0.128754


                      *****************************
                      * MAYER POPULATION ANALYSIS *
                      *****************************

  NA   - Mulliken gross atomic population
  ZA   - Total nuclear charge
  QA   - Mulliken gross atomic charge
  VA   - Mayer's total valence
  BVA  - Mayer's bonded valence
  FA   - Mayer's free valence

  ATOM       NA         ZA         QA         VA         BVA        FA
  0 C      6.4589     6.0000    -0.4589     3.5479     3.5479     0.0000
  1 H      0.8582     1.0000     0.1418     0.9715     0.9715     0.0000
  2 H      0.6574     1.0000     0.3426     0.9442     0.9442     0.0000
  3 H      0.8636     1.0000     0.1364     0.9775     0.9775    -0.0000
  4 N      6.5786     7.0000     0.4214     4.0638     4.0638     0.0000
  5 O      8.4644     8.0000    -0.4644     1.7498     1.7498    -0.0000
  6 O      8.4653     8.0000    -0.4653     1.7464     1.7464    -0.0000
  7 C      5.7068     6.0000     0.2932     4.3866     4.3866    -0.0000
  8 O      8.4360     8.0000    -0.4360     2.0329     2.0329    -0.0000
  9 O      8.4358     8.0000    -0.4358     1.9422     1.9422     0.0000
 10 C      6.1316     6.0000    -0.1316     3.7328     3.7328    -0.0000
 11 Cl    17.2059    17.0000    -0.2059     1.0571     1.0571     0.0000
 12 H      0.8440     1.0000     0.1560     0.9930     0.9930    -0.0000
 13 H      0.8453     1.0000     0.1547     0.9893     0.9893     0.0000
 14 H      0.6600     1.0000     0.3400     0.9073     0.9073     0.0000
 15 O      8.7430     8.0000    -0.7430     1.7284     1.7284    -0.0000
 16 H      0.6453     1.0000     0.3547     0.9732     0.9732     0.0000

  Mayer bond orders larger than 0.100000
B(  0-C ,  1-H ) :   0.9448 B(  0-C ,  2-H ) :   0.4332 B(  0-C ,  3-H ) :   0.9458 
B(  0-C ,  4-N ) :   1.0871 B(  2-H , 15-O ) :   0.4603 B(  4-N ,  5-O ) :   1.4605 
B(  4-N ,  6-O ) :   1.4650 B(  5-O ,  6-O ) :   0.1230 B(  7-C ,  8-O ) :   1.9902 
B(  7-C ,  9-O ) :   1.3847 B(  7-C , 10-C ) :   0.9427 B(  9-O , 16-H ) :   0.5583 
B( 10-C , 11-Cl) :   0.9612 B( 10-C , 12-H ) :   0.9367 B( 10-C , 13-H ) :   0.9594 
B( 14-H , 15-O ) :   0.8816 B( 15-O , 16-H ) :   0.3866 

-------
TIMINGS
-------

Total SCF time: 0 days 0 hours 0 min 18 sec 

Total time                  ....      18.961 sec
Sum of individual times     ....      17.723 sec  ( 93.5%)

Fock matrix formation       ....      13.289 sec  ( 70.1%)
  Split-RI-J                ....       2.413 sec  ( 18.2% of F)
  Chain of spheres X        ....       5.032 sec  ( 37.9% of F)
  XC integration            ....       1.800 sec  ( 13.5% of F)
    Basis function eval.    ....       0.158 sec  (  8.8% of XC)
    Density eval.           ....       0.376 sec  ( 20.9% of XC)
    XC-Functional eval.     ....       0.016 sec  (  0.9% of XC)
    XC-Potential eval.      ....       0.189 sec  ( 10.5% of XC)
Diagonalization             ....       0.744 sec  (  3.9%)
Density matrix formation    ....       0.150 sec  (  0.8%)
Population analysis         ....       0.144 sec  (  0.8%)
Initial guess               ....       0.186 sec  (  1.0%)
Orbital Transformation      ....       0.000 sec  (  0.0%)
Orbital Orthonormalization  ....       0.000 sec  (  0.0%)
DIIS solution               ....       0.424 sec  (  2.2%)
SOSCF solution              ....       1.170 sec  (  6.2%)
Grid generation             ....       1.617 sec  (  8.5%)

Maximum memory used throughout the entire SCF-calculation: 81.4 MB


-------------------------------------------------------------------------------
                          DFT DISPERSION CORRECTION                            
                                                                               
                              DFTD3 V3.1  Rev 1                                
                          USING Becke-Johnson damping                          
-------------------------------------------------------------------------------
The B3LYP functional is recognized
Active option DFTDOPT                   ...         4   

molecular C6(AA) [au] = 3178.699750 


            DFT-D V3
 parameters
 s6 scaling factor         :     1.0000 
 a1 scaling factor         :     0.3981 
 s8 scaling factor         :     1.9889 
 a2 scaling factor         :     4.4211 
 ad hoc parameters k1-k3   :    16.0000     1.3333    -4.0000 

 Edisp/kcal,au: -15.178456271537  -0.024188407155 
 E6   /kcal   :  -7.412686524 
 E8   /kcal   :  -7.765769748 
 % E8         :  51.163106502 

-------------------------   ----------------
Dispersion correction           -0.024188407
-------------------------   ----------------


-------------------------   --------------------
FINAL SINGLE POINT ENERGY     -1009.624661335666
-------------------------   --------------------



           ************************************************************
           *        Program running with 102 parallel MPI-processes   *
           *              working on a common directory               *
           ************************************************************
------------------------------------------------------------------------------
                         ORCA SCF GRADIENT CALCULATION
------------------------------------------------------------------------------

 ... reading COSX grid (gridx3)
Gradient of the Kohn-Sham DFT energy:
Kohn-Sham wavefunction type      ... RKS
Hartree-Fock exchange scaling    ...    0.200
Number of operators              ...    1
Number of atoms                  ...   17
Basis set dimensions             ...  358
Integral neglect threshold       ... 2.5e-11
Integral primitive cutoff        ... 2.5e-12
SHARK Integral package           ... ON

Nuc. rep. gradient       (SHARK) ... done (  0.0 sec)
HCore & Overlap gradient (SHARK) ... done (  0.1 sec)
RI-J gradient            (SHARK) ... done (  0.3 sec)
COSX-gradient                    ... done (  0.9 sec)
Exchange-correlation gradient    ... done
Dispersion correction            ... done

------------------
CARTESIAN GRADIENT
------------------

   1   C   :    0.000003838   -0.000005915   -0.000021446
   2   H   :   -0.000030515   -0.000019764    0.000005220
   3   H   :   -0.000013512    0.000001783   -0.000067874
   4   H   :    0.000017339    0.000006837    0.000052098
   5   N   :    0.000022052    0.000072421   -0.000011071
   6   O   :    0.000007231    0.000018175    0.000028519
   7   O   :   -0.000010451    0.000014003    0.000023279
   8   C   :    0.000016064    0.000062103   -0.000135850
   9   O   :    0.000077852   -0.000005157    0.000010898
  10   O   :    0.000892941   -0.000210965   -0.000358452
  11   C   :    0.000062785   -0.000015594   -0.000006086
  12   Cl  :   -0.000001809   -0.000020230   -0.000009960
  13   H   :   -0.000012919    0.000018727   -0.000021385
  14   H   :    0.000016596   -0.000036763   -0.000004624
  15   H   :    0.000090112    0.000160525   -0.000034369
  16   O   :    0.000624460   -0.000306177   -0.000409226
  17   H   :   -0.001474192    0.000313128    0.000802419

Difference to translation invariance:
           :    0.0002878721    0.0000471355   -0.0001579113

Difference to rotation invariance:
           :   -0.0000858802    0.0003502550   -0.0011879873

Norm of the cartesian gradient     ...    0.0021506929
RMS gradient                       ...    0.0003011572
MAX gradient                       ...    0.0014741923

-------
TIMINGS
-------

Total SCF gradient time            ...        3.212 sec

One electron gradient       ....       0.051 sec  (  1.6%)
RI-J Coulomb gradient       ....       0.291 sec  (  9.1%)
COSX gradient               ....       0.867 sec  ( 27.0%)
XC gradient                 ....       0.432 sec  ( 13.4%)
CPCM gradient               ....       0.186 sec  (  5.8%)
   A-Matrix (El+Nuc)        ....       0.091 sec  (  2.8%)
   Potential                ....       0.095 sec  (  3.0%)

Maximum memory used throughout the entire SCFGRAD-calculation: 54.4 MB

                            ***************************************
                            *     ORCA property calculations      *
                            ***************************************

                                    ---------------------
                                    Active property flags
                                    ---------------------
   (+) Dipole Moment


------------------------------------------------------------------------------
                       ORCA ELECTRIC PROPERTIES CALCULATION
------------------------------------------------------------------------------

Dipole Moment Calculation                       ... on
Quadrupole Moment Calculation                   ... off
Polarizability Calculation                      ... off
GBWName                                         ... /home/rudenko/mop_saddle_orca_4_serv/for_orca/CH3NO2_ch2clcoo_near_freez/orca/freq_D/f_D.gbw
Electron density                                ... /home/rudenko/mop_saddle_orca_4_serv/for_orca/CH3NO2_ch2clcoo_near_freez/orca/freq_D/f_D.scfp
The origin for moment calculation is the CENTER OF MASS  = ( 1.087663,  0.245955  0.307976)

-------------
DIPOLE MOMENT
-------------
                                X             Y             Z
Electronic contribution:      8.01656      -0.73772       0.49813
Nuclear contribution   :     -8.35594      -1.37225      -1.88306
                        -----------------------------------------
Total Dipole Moment    :     -0.33938      -2.10997      -1.38493
                        -----------------------------------------
Magnitude (a.u.)       :      2.54660
Magnitude (Debye)      :      6.47295



--------------------
Rotational spectrum 
--------------------
 
Rotational constants in cm-1:     0.044762     0.019051     0.017440 
Rotational constants in MHz :  1341.931229   571.143057   522.846865 

 Dipole components along the rotational axes: 
x,y,z [a.u.] :     0.081588    -2.527833    -0.297638 
x,y,z [Debye]:     0.207380    -6.425241    -0.756535 

 

----------------------------------------------------------------------------
                           ORCA NUMERICAL FREQUENCIES
                              (102-process run)
----------------------------------------------------------------------------

Number of atoms                ... 17
Central differences            ... used
Number of displacements        ... 102
Numerical increment            ... 5.000e-03 bohr
[...]
     25       0.009611  -0.016062  -0.013428  -0.098952   0.055635  -0.000497
     26       0.021367  -0.016325   0.000538  -0.024613   0.014529  -0.000348
     27      -0.107942   0.031336  -0.022036   0.066040  -0.035702  -0.000163
     28      -0.060743   0.035793  -0.022544  -0.064735   0.035548  -0.001610
     29      -0.091552   0.068963  -0.017585   0.098474  -0.053007   0.000316
     30      -0.002154  -0.002087  -0.052802   0.038149  -0.020549  -0.000441
     31      -0.030557   0.021703   0.098093  -0.061768   0.042116  -0.013429
     32      -0.011220   0.014587   0.022697   0.023525  -0.014548   0.001890
     33       0.000344  -0.001255  -0.007333   0.001889  -0.001782   0.001449
     34      -0.001530   0.000892  -0.000578   0.000983  -0.000631   0.000121
     35      -0.004442   0.004093   0.010311  -0.001413   0.001028  -0.000771
     36      -0.002242   0.035124   0.297169  -0.087496   0.077786  -0.053614
     37      -0.031794  -0.048007  -0.554134   0.146666  -0.132591   0.098090
     38       0.022646  -0.053756  -0.245357   0.190144  -0.097645   0.000061
     39      -0.110497   0.117783   0.392480  -0.170714   0.074233   0.015230
     40       0.332859  -0.257222  -0.480664  -0.227575   0.089594   0.047928
     41       0.055531  -0.053948  -0.211587   0.116891  -0.058088  -0.002893
     42      -0.158756  -0.159477   0.008073  -0.038975   0.069852  -0.012649
     43      -0.082446  -0.003511  -0.021860  -0.108604   0.074139   0.000349
     44       0.068333   0.089911  -0.012686  -0.040112  -0.008434   0.006587
     45       0.049665  -0.010802   0.011232   0.016896   0.007457   0.003553
     46       0.054230  -0.008122   0.012405   0.018871  -0.004318  -0.000217
     47       0.016288   0.026085  -0.005108  -0.024321  -0.004308   0.000042
     48       0.782453   0.458062   0.080289   0.323231  -0.193727   0.002456
     49       0.192793  -0.389081   0.158767   0.132862  -0.072112   0.013410
     50       0.172981  -0.612613   0.244214   0.651677  -0.372278  -0.016516
                 42         43         44         45         46         47    
      0      -0.050783  -0.002089  -0.000369   0.000001  -0.045825   0.001503
      1      -0.075201  -0.001390   0.000245   0.000969  -0.038355   0.001292
      2      -0.080509  -0.002472   0.003184   0.001800  -0.017905   0.000474
      3       0.134114   0.005911   0.001726   0.000790   0.590322  -0.019300
      4       0.675796   0.011531  -0.002718   0.000886  -0.240109   0.007556
      5       0.131710  -0.007850  -0.003159   0.000238   0.321361  -0.010163
      6       0.036633  -0.006188   0.022027   0.016616   0.000327  -0.000104
      7       0.016696   0.001251   0.031176  -0.011794   0.000086  -0.000123
      8      -0.007489  -0.011276  -0.032818  -0.022954  -0.000063   0.000666
      9       0.544696   0.013355  -0.006369   0.002164  -0.043663   0.001376
     10       0.063758   0.002614   0.000361  -0.000011   0.681074  -0.022868
     11       0.429153   0.013624   0.003995  -0.003007  -0.140899   0.004711
     12      -0.002211   0.004008  -0.000946  -0.002394  -0.000531   0.000428
     13       0.032590  -0.001899  -0.003472   0.000075   0.000882  -0.000139
     14       0.057738   0.007817  -0.003116  -0.002182   0.002499   0.000051
     15      -0.007763  -0.002979   0.000974   0.001610   0.000275   0.000028
     16       0.000591   0.001582  -0.000088  -0.000569  -0.000026   0.000078
     17      -0.017526  -0.003982   0.001289   0.001082   0.000077  -0.000093
     18       0.004826  -0.000558  -0.000346   0.000213   0.000060  -0.000045
     19      -0.019686   0.000465   0.002131   0.000209   0.000257   0.000054
     20      -0.008887  -0.000855   0.000329   0.000132  -0.000079  -0.000016
     21      -0.000138   0.022795   0.051649   0.253774  -0.000002  -0.000322
     22       0.003491  -0.026700   0.003177   0.304469  -0.000041  -0.001345
     23      -0.000828   0.017261   0.069152   0.237797   0.000011   0.000412
     24      -0.000817  -0.001137  -0.031532  -0.137909   0.000007   0.000192
     25      -0.001534   0.003901  -0.030562  -0.191601  -0.000004  -0.000070
     26      -0.000525  -0.000573  -0.032154  -0.124393   0.000001   0.000007
     27       0.000245  -0.008641   0.003289  -0.021899   0.000014   0.000094
     28      -0.000956   0.009043   0.069175  -0.026517   0.000010  -0.000045
     29      -0.000014  -0.011423  -0.025831  -0.015960   0.000010   0.000060
     30      -0.000386   0.019074  -0.005826  -0.019217   0.001159   0.030706
     31      -0.002413   0.068579  -0.000468  -0.028468   0.001107   0.032330
     32       0.001956  -0.064280  -0.002467  -0.016170  -0.001503  -0.048744
     33      -0.000032   0.001656  -0.000115  -0.000049   0.000002   0.000016
     34       0.000040  -0.001423  -0.000017  -0.000662  -0.000004  -0.000161
     35       0.000063  -0.002428   0.000036  -0.000788   0.000001   0.000048
     36      -0.004656   0.154860  -0.006349   0.033031  -0.022547  -0.659883
     37       0.007028  -0.252686   0.005152  -0.109690  -0.011794  -0.340397
     38      -0.017365   0.665924  -0.049270   0.052533  -0.001070  -0.028522
     39       0.015087  -0.536210   0.032070  -0.012148   0.008789   0.285812
     40       0.009880  -0.365630   0.065134   0.181085  -0.000658  -0.021575
     41      -0.004849   0.182277  -0.016152   0.010387   0.018517   0.600220
     42       0.001552  -0.008159  -0.121676   0.072444  -0.000026   0.000002
     43      -0.001955  -0.006475  -0.155071   0.113131   0.000541   0.000191
     44      -0.000851   0.001410  -0.023125   0.023532  -0.000965  -0.000185
     45      -0.004211   0.000437  -0.002381  -0.001318   0.000038   0.000091
     46      -0.001362   0.000711   0.013786  -0.013674  -0.000028  -0.000034
     47       0.001407   0.000335  -0.015473   0.015081  -0.000019   0.000117
     48       0.002257  -0.001023   0.008558  -0.360723  -0.000216  -0.000001
     49       0.005553  -0.047068  -0.825183   0.244694  -0.000301   0.000601
     50       0.023863  -0.004691   0.502569  -0.673311  -0.000300  -0.000719
                 48         49         50    
      0       0.000069   0.050908   0.000253
      1      -0.000309  -0.076618   0.000033
      2       0.000187   0.037593  -0.000493
      3      -0.000563  -0.584189  -0.001180
      4       0.000425   0.224010   0.000009
      5      -0.000554  -0.301640   0.000254
      6       0.000304   0.001247  -0.000570
      7       0.000182  -0.001840  -0.002637
      8      -0.000626   0.000862   0.004994
      9      -0.000129  -0.027417  -0.000067
     10       0.003452   0.695984  -0.000524
     11      -0.000723  -0.150041  -0.000030
     12      -0.000342   0.001153   0.000141
     13       0.000105  -0.001741   0.000270
     14      -0.000091   0.000889   0.000273
     15      -0.000052  -0.000438  -0.000111
     16      -0.000063   0.000530   0.000040
     17       0.000100  -0.000569  -0.000135
     18       0.000048  -0.000424   0.000048
     19      -0.000046   0.000785  -0.000174
     20       0.000016  -0.000079  -0.000016
     21      -0.001342   0.000009   0.000136
     22      -0.001180  -0.000006  -0.000007
     23      -0.001489   0.000014   0.000171
     24       0.000354  -0.000001  -0.000066
     25       0.000548  -0.000001  -0.000051
     26       0.000611   0.000003  -0.000074
     27       0.000303  -0.000000  -0.000399
     28      -0.000103   0.000004  -0.000326
     29       0.000288  -0.000000  -0.000275
     30      -0.075103   0.000245  -0.000052
     31      -0.022566   0.000085  -0.000032
     32      -0.058059   0.000150  -0.000007
     33       0.000231  -0.000000  -0.000005
     34       0.000027  -0.000001   0.000002
     35       0.000116  -0.000004  -0.000006
     36       0.586137  -0.002354   0.000563
     37       0.307162  -0.001079   0.000218
     38       0.014174  -0.000075   0.000024
     39       0.309606  -0.000812   0.000099
     40      -0.032497   0.000104   0.000066
     41       0.674848  -0.001760   0.000072
     42      -0.000034   0.000215  -0.390707
     43      -0.000348   0.000034   0.330587
     44       0.000338   0.000115  -0.856774
     45      -0.000131   0.000014   0.024427
     46       0.000014  -0.000007  -0.020257
     47      -0.000134  -0.000008   0.053425
     48       0.002781  -0.000081   0.007321
     49       0.000108   0.000027   0.000749
     50       0.003678  -0.000058   0.006876


-----------
IR SPECTRUM
-----------

 Mode   freq       eps      Int      T**2         TX        TY        TZ
       cm**-1   L/(mol*cm) km/mol    a.u.
----------------------------------------------------------------------------
  8:     15.91   0.000309    1.56  0.006057  ( 0.026201 -0.067506 -0.028512)
  9:     51.57   0.000161    0.81  0.000974  ( 0.009183  0.012924 -0.026882)
 10:     65.41   0.000942    4.76  0.004495  ( 0.062803 -0.017520 -0.015610)
 11:     75.99   0.000806    4.07  0.003310  ( 0.050250 -0.011213 -0.025683)
 12:     83.74   0.002005   10.13  0.007472  ( 0.051947  0.005677 -0.068860)
 13:    116.27   0.000439    2.22  0.001179  ( 0.007700 -0.003228  0.033307)
 14:    143.03   0.001470    7.43  0.003206  ( 0.051450  0.023206  0.004573)
 15:    199.82   0.004037   20.40  0.006304  (-0.022137  0.023746  0.072460)
 16:    342.54   0.123462  623.93  0.112478  ( 0.101965  0.170135  0.270435)
 17:    400.05   0.009652   48.78  0.007529  ( 0.056342 -0.054640 -0.037002)
 18:    444.67   0.005936   30.00  0.004166  ( 0.009726  0.041368  0.048577)
 19:    485.20   0.012294   62.13  0.007907  ( 0.086289  0.016802  0.013386)
 20:    515.06   0.003715   18.78  0.002251  ( 0.017064  0.035332  0.026672)
 21:    554.05   0.012750   64.43  0.007181  ( 0.046278  0.070035 -0.011611)
 22:    578.39   0.069300  350.22  0.037390  ( 0.030180  0.078326  0.174196)
 23:    650.41   0.042864  216.62  0.020566  (-0.108968  0.000610 -0.093229)
 24:    672.85   0.013304   67.23  0.006170  (-0.062892 -0.047038 -0.001538)
 25:    709.08   0.010530   53.21  0.004634  ( 0.038394  0.041222  0.038221)
 26:    778.66   0.011301   57.11  0.004529  ( 0.056135  0.036950 -0.003548)
 27:    807.30   0.008475   42.83  0.003276  ( 0.020901  0.030368  0.043782)
 28:    892.87   0.049843  251.88  0.017420  (-0.053526 -0.067033 -0.100309)
 29:    937.44   0.008777   44.35  0.002922  ( 0.018243  0.020991  0.046349)
 30:    945.62   0.002463   12.44  0.000813  (-0.021956 -0.006959 -0.016798)
 31:   1003.41   0.024953  126.10  0.007760  (-0.026007 -0.048826 -0.068557)
 32:   1036.15   0.015579   78.73  0.004692  (-0.031232 -0.045393 -0.040695)
 33:   1133.84   0.022718  114.81  0.006253  (-0.011415  0.077287 -0.012201)
 34:   1153.77   0.026891  135.90  0.007273  (-0.040067 -0.024757 -0.071099)
 35:   1199.05   0.073660  372.25  0.019171  (-0.127330  0.005272 -0.054130)
 36:   1229.55   0.384050  1940.83  0.097473  ( 0.208470  0.133978  0.189904)
 37:   1258.00   0.144055  727.99  0.035735  (-0.076492 -0.075924 -0.155303)
 38:   1287.60   0.109815  554.96  0.026615  ( 0.077039  0.080002  0.119497)
 39:   1388.48   0.042542  214.99  0.009562  ( 0.014607  0.096630  0.003275)
 40:   1390.59   0.144160  728.53  0.032351  (-0.070900 -0.123976 -0.109336)
 41:   1430.94   0.113665  574.42  0.024788  ( 0.084861 -0.123654  0.047923)
 42:   1458.44   0.015953   80.62  0.003413  ( 0.029695  0.039487  0.031185)
 43:   1476.68   0.010400   52.56  0.002198  ( 0.001283 -0.039155  0.025748)
 44:   1659.55   0.075219  380.13  0.014144  (-0.043720 -0.110529  0.004024)
 45:   1727.62   0.049252  248.90  0.008896  ( 0.040283  0.072519  0.044884)
 46:   3113.08   0.000819    4.14  0.000082  (-0.003177 -0.005373 -0.006566)
 47:   3120.07   0.000555    2.81  0.000056  (-0.003275 -0.002622 -0.006158)
 48:   3191.45   0.000834    4.21  0.000082  ( 0.006637  0.000998 -0.006038)
 49:   3209.21   0.001353    6.84  0.000132  ( 0.005852 -0.008817  0.004425)
 50:   3778.73   0.014677   74.17  0.001212  (-0.007622  0.008031 -0.033008)

* The epsilon (eps) is given for a Dirac delta lineshape.
** The dipole moment derivative (T) already includes vibrational overlap.

The first frequency considered to be a vibration is 8
The total number of vibrations considered is 43


--------------------------
THERMOCHEMISTRY AT 298.15K
--------------------------

Temperature         ... 298.15 K
Pressure            ... 1.00 atm
Total Mass          ... 173.54 AMU

Throughout the following assumptions are being made:
  (1) The electronic state is orbitally nondegenerate
  (2) There are no thermally accessible electronically excited states
  (3) Hindered rotations indicated by low frequency modes are not
      treated as such but are treated as vibrations and this may
      cause some error
  (4) All equations used are the standard statistical mechanics
      equations for an ideal gas
  (5) All vibrations are strictly harmonic

freq.      15.91  E(vib)   ...       0.57 
freq.      51.57  E(vib)   ...       0.52 
freq.      65.41  E(vib)   ...       0.50 
freq.      75.99  E(vib)   ...       0.49 
freq.      83.74  E(vib)   ...       0.48 
freq.     116.27  E(vib)   ...       0.44 
freq.     143.03  E(vib)   ...       0.41 
freq.     199.82  E(vib)   ...       0.35 
freq.     342.54  E(vib)   ...       0.23 
freq.     400.05  E(vib)   ...       0.19 
freq.     444.67  E(vib)   ...       0.17 
freq.     485.20  E(vib)   ...       0.15 
freq.     515.06  E(vib)   ...       0.13 
freq.     554.05  E(vib)   ...       0.12 
freq.     578.39  E(vib)   ...       0.11 
freq.     650.41  E(vib)   ...       0.08 
freq.     672.85  E(vib)   ...       0.08 
freq.     709.08  E(vib)   ...       0.07 
freq.     778.66  E(vib)   ...       0.05 
freq.     807.30  E(vib)   ...       0.05 
freq.     892.87  E(vib)   ...       0.03 
freq.     937.44  E(vib)   ...       0.03 
freq.     945.62  E(vib)   ...       0.03 
freq.    1003.41  E(vib)   ...       0.02 
freq.    1036.15  E(vib)   ...       0.02 
freq.    1133.84  E(vib)   ...       0.01 
freq.    1153.77  E(vib)   ...       0.01 
freq.    1199.05  E(vib)   ...       0.01 
freq.    1229.55  E(vib)   ...       0.01 
freq.    1258.00  E(vib)   ...       0.01 
freq.    1287.60  E(vib)   ...       0.01 
freq.    1388.48  E(vib)   ...       0.00 
freq.    1390.59  E(vib)   ...       0.00 
freq.    1430.94  E(vib)   ...       0.00 
freq.    1458.44  E(vib)   ...       0.00 
freq.    1476.68  E(vib)   ...       0.00 
freq.    1659.55  E(vib)   ...       0.00 
freq.    1727.62  E(vib)   ...       0.00 
freq.    3113.08  E(vib)   ...       0.00 
freq.    3120.07  E(vib)   ...       0.00 
freq.    3191.45  E(vib)   ...       0.00 
freq.    3209.21  E(vib)   ...       0.00 
freq.    3778.73  E(vib)   ...       0.00 

------------
INNER ENERGY
------------

The inner energy is: U= E(el) + E(ZPE) + E(vib) + E(rot) + E(trans)
    E(el)   - is the total energy from the electronic structure calculation
              = E(kin-el) + E(nuc-el) + E(el-el) + E(nuc-nuc)
    E(ZPE)  - the the zero temperature vibrational energy from the frequency calculation
    E(vib)  - the the finite temperature correction to E(ZPE) due to population
              of excited vibrational states
    E(rot)  - is the rotational thermal energy
    E(trans)- is the translational thermal energy

Summary of contributions to the inner energy U:
Electronic energy                ...  -1009.62466134 Eh
Zero point energy                ...      0.10641809 Eh      66.78 kcal/mol
Thermal vibrational correction   ...      0.00864786 Eh       5.43 kcal/mol
Thermal rotational correction    ...      0.00141627 Eh       0.89 kcal/mol
Thermal translational correction ...      0.00141627 Eh       0.89 kcal/mol
-----------------------------------------------------------------------
Total thermal energy                  -1009.50676285 Eh


Summary of corrections to the electronic energy:
(perhaps to be used in another calculation)
Total thermal correction                  0.01148040 Eh       7.20 kcal/mol
Non-thermal (ZPE) correction              0.10641809 Eh      66.78 kcal/mol
-----------------------------------------------------------------------
Total correction                          0.11789849 Eh      73.98 kcal/mol


--------
ENTHALPY
--------

The enthalpy is H = U + kB*T
                kB is Boltzmann's constant
Total free energy                 ...  -1009.50676285 Eh 
Thermal Enthalpy correction       ...      0.00094421 Eh       0.59 kcal/mol
-----------------------------------------------------------------------
Total Enthalpy                    ...  -1009.50581864 Eh


Note: Only C1 symmetry has been detected, increase convergence thresholds 
      if your molecule has a higher symmetry. Symmetry factor of 1.0 is   
      used for the rotational entropy correction. 
 

Note: Rotational entropy computed according to Herzberg 
Infrared and Raman Spectra, Chapter V,1, Van Nostrand Reinhold, 1945 
Point Group:  C1, Symmetry Number:   1  
Rotational constants in cm-1:     0.044762     0.019051     0.017440 

Vibrational entropy computed according to the QRRHO of S. Grimme
Chem.Eur.J. 2012 18 9955


-------
ENTROPY
-------

The entropy contributions are T*S = T*(S(el)+S(vib)+S(rot)+S(trans))
     S(el)   - electronic entropy
     S(vib)  - vibrational entropy
     S(rot)  - rotational entropy
     S(trans)- translational entropy
The entropies will be listed as multiplied by the temperature to get
units of energy

Electronic entropy                ...      0.00000000 Eh      0.00 kcal/mol
Vibrational entropy               ...      0.01607824 Eh     10.09 kcal/mol
Rotational entropy                ...      0.01475856 Eh      9.26 kcal/mol
Translational entropy             ...      0.01965191 Eh     12.33 kcal/mol
-----------------------------------------------------------------------
Final entropy term                ...      0.05048871 Eh     31.68 kcal/mol

In case the symmetry of your molecule has not been determined correctly
or in case you have a reason to use a different symmetry number we print 
out the resulting rotational entropy values for sn=1,12 :
 --------------------------------------------------------
|  sn= 1 | S(rot)=       0.01475856 Eh      9.26 kcal/mol|
|  sn= 2 | S(rot)=       0.01410411 Eh      8.85 kcal/mol|
|  sn= 3 | S(rot)=       0.01372127 Eh      8.61 kcal/mol|
|  sn= 4 | S(rot)=       0.01344965 Eh      8.44 kcal/mol|
|  sn= 5 | S(rot)=       0.01323896 Eh      8.31 kcal/mol|
|  sn= 6 | S(rot)=       0.01306682 Eh      8.20 kcal/mol|
|  sn= 7 | S(rot)=       0.01292127 Eh      8.11 kcal/mol|
|  sn= 8 | S(rot)=       0.01279519 Eh      8.03 kcal/mol|
|  sn= 9 | S(rot)=       0.01268398 Eh      7.96 kcal/mol|
|  sn=10 | S(rot)=       0.01258451 Eh      7.90 kcal/mol|
|  sn=11 | S(rot)=       0.01249452 Eh      7.84 kcal/mol|
|  sn=12 | S(rot)=       0.01241236 Eh      7.79 kcal/mol|
 --------------------------------------------------------


-------------------
GIBBS FREE ENERGY
-------------------

The Gibbs free energy is G = H - T*S

Total enthalpy                    ...  -1009.50581864 Eh 
Total entropy correction          ...     -0.05048871 Eh    -31.68 kcal/mol
-----------------------------------------------------------------------
Final Gibbs free energy         ...  -1009.55630735 Eh

For completeness - the Gibbs free energy minus the electronic energy
G-E(el)                           ...      0.06835398 Eh     42.89 kcal/mol



Timings for individual modules:

Sum of individual times         ...      433.419 sec (=   7.224 min)
GTO integral calculation        ...        8.422 sec (=   0.140 min)   1.9 %
SCF iterations                  ...       45.742 sec (=   0.762 min)  10.6 %
SCF Gradient evaluation         ...       14.304 sec (=   0.238 min)   3.3 %
Numerical frequency calculation ...      364.951 sec (=   6.083 min)  84.2 %
                             ****ORCA TERMINATED NORMALLY****
TOTAL RUN TIME: 0 days 0 hours 6 minutes 43 seconds 175 msec
