
                                 *****************
                                 * O   R   C   A *
                                 *****************

                                            #,                                       
                                            ###                                      
                                            ####                                     
                                            #####                                    
                                            ######                                   
                                           ########,                                 
                                     ,,################,,,,,                         
                               ,,#################################,,                 
                          ,,##########################################,,             
                       ,#########################################, ''#####,          
                    ,#############################################,,   '####,        
                  ,##################################################,,,,####,       
                ,###########''''           ''''###############################       
              ,#####''   ,,,,##########,,,,          '''####'''          '####       
            ,##' ,,,,###########################,,,                        '##       
           ' ,,###''''                  '''############,,,                           
         ,,##''                                '''############,,,,        ,,,,,,###''
      ,#''                                            '''#######################'''  
     '                                                          ''''####''''         
             ,#######,   #######,   ,#######,      ##                                
            ,#'     '#,  ##    ##  ,#'     '#,    #''#        ######   ,####,        
            ##       ##  ##   ,#'  ##            #'  '#       #        #'  '#        
            ##       ##  #######   ##           ,######,      #####,   #    #        
            '#,     ,#'  ##    ##  '#,     ,#' ,#      #,         ##   #,  ,#        
             '#######'   ##     ##  '#######'  #'      '#     #####' # '####'        



                  #######################################################
                  #                        -***-                        #
                  #          Department of theory and spectroscopy      #
                  #    Directorship and core code : Frank Neese         #
                  #        Max Planck Institute fuer Kohlenforschung    #
                  #                Kaiser Wilhelm Platz 1               #
                  #                 D-45470 Muelheim/Ruhr               #
                  #                      Germany                        #
                  #                                                     #
                  #                  All rights reserved                #
                  #                        -***-                        #
                  #######################################################


                         Program Version 5.0.4 -  RELEASE  -


 With contributions from (in alphabetic order):
   Daniel Aravena         : Magnetic Suceptibility
   Michael Atanasov       : Ab Initio Ligand Field Theory (pilot matlab implementation)
   Alexander A. Auer      : GIAO ZORA, VPT2 properties, NMR spectrum
   Ute Becker             : Parallelization
   Giovanni Bistoni       : ED, misc. LED, open-shell LED, HFLD
   Martin Brehm           : Molecular dynamics
   Dmytro Bykov           : SCF Hessian
   Vijay G. Chilkuri      : MRCI spin determinant printing, contributions to CSF-ICE
   Dipayan Datta          : RHF DLPNO-CCSD density
   Achintya Kumar Dutta   : EOM-CC, STEOM-CC
   Dmitry Ganyushin       : Spin-Orbit,Spin-Spin,Magnetic field MRCI
   Miquel Garcia          : C-PCM and meta-GGA Hessian, CC/C-PCM, Gaussian charge scheme
   Yang Guo               : DLPNO-NEVPT2, F12-NEVPT2, CIM, IAO-localization
   Andreas Hansen         : Spin unrestricted coupled pair/coupled cluster methods
   Benjamin Helmich-Paris : MC-RPA, TRAH-SCF, COSX integrals
   Lee Huntington         : MR-EOM, pCC
   Robert Izsak           : Overlap fitted RIJCOSX, COSX-SCS-MP3, EOM
   Marcus Kettner         : VPT2
   Christian Kollmar      : KDIIS, OOCD, Brueckner-CCSD(T), CCSD density, CASPT2, CASPT2-K
   Simone Kossmann        : Meta GGA functionals, TD-DFT gradient, OOMP2, MP2 Hessian
   Martin Krupicka        : Initial AUTO-CI
   Lucas Lang             : DCDCAS
   Marvin Lechner         : AUTO-CI (C++ implementation), FIC-MRCC
   Dagmar Lenk            : GEPOL surface, SMD
   Dimitrios Liakos       : Extrapolation schemes; Compound Job, initial MDCI parallelization
   Dimitrios Manganas     : Further ROCIS development; embedding schemes
   Dimitrios Pantazis     : SARC Basis sets
   Anastasios Papadopoulos: AUTO-CI, single reference methods and gradients
   Taras Petrenko         : DFT Hessian,TD-DFT gradient, ASA, ECA, R-Raman, ABS, FL, XAS/XES, NRVS
   Peter Pinski           : DLPNO-MP2, DLPNO-MP2 Gradient
   Christoph Reimann      : Effective Core Potentials
   Marius Retegan         : Local ZFS, SOC
   Christoph Riplinger    : Optimizer, TS searches, QM/MM, DLPNO-CCSD(T), (RO)-DLPNO pert. Triples
   Tobias Risthaus        : Range-separated hybrids, TD-DFT gradient, RPA, STAB
   Michael Roemelt        : Original ROCIS implementation
   Masaaki Saitow         : Open-shell DLPNO-CCSD energy and density
   Barbara Sandhoefer     : DKH picture change effects
   Avijit Sen             : IP-ROCIS
   Kantharuban Sivalingam : CASSCF convergence, NEVPT2, FIC-MRCI
   Bernardo de Souza      : ESD, SOC TD-DFT
   Georgi Stoychev        : AutoAux, RI-MP2 NMR, DLPNO-MP2 response
   Willem Van den Heuvel  : Paramagnetic NMR
   Boris Wezisla          : Elementary symmetry handling
   Frank Wennmohs         : Technical directorship


 We gratefully acknowledge several colleagues who have allowed us to
 interface, adapt or use parts of their codes:
   Stefan Grimme, W. Hujo, H. Kruse, P. Pracht,  : VdW corrections, initial TS optimization,
                  C. Bannwarth, S. Ehlert          DFT functionals, gCP, sTDA/sTD-DF
   Ed Valeev, F. Pavosevic, A. Kumar             : LibInt (2-el integral package), F12 methods
   Garnet Chan, S. Sharma, J. Yang, R. Olivares  : DMRG
   Ulf Ekstrom                                   : XCFun DFT Library
   Mihaly Kallay                                 : mrcc  (arbitrary order and MRCC methods)
   Jiri Pittner, Ondrej Demel                    : Mk-CCSD
   Frank Weinhold                                : gennbo (NPA and NBO analysis)
   Christopher J. Cramer and Donald G. Truhlar   : smd solvation model
   Lars Goerigk                                  : TD-DFT with DH, B97 family of functionals
   V. Asgeirsson, H. Jonsson                     : NEB implementation
   FAccTs GmbH                                   : IRC, NEB, NEB-TS, DLPNO-Multilevel, CI-OPT
                                                   MM, QMMM, 2- and 3-layer-ONIOM, Crystal-QMMM,
                                                   LR-CPCM, SF, NACMEs, symmetry and pop. for TD-DFT,
                                                   nearIR, NL-DFT gradient (VV10), updates on ESD,
                                                   ML-optimized integration grids
   S Lehtola, MJT Oliveira, MAL Marques          : LibXC Library
   Liviu Ungur et al                             : ANISO software


 Your calculation uses the libint2 library for the computation of 2-el integrals
 For citations please refer to: http://libint.valeyev.net

 Your ORCA version has been built with support for libXC version: 5.1.0
 For citations please refer to: https://tddft.org/programs/libxc/

 This ORCA versions uses:
   CBLAS   interface :  Fast vector & matrix operations
   LAPACKE interface :  Fast linear algebra routines
   SCALAPACK package :  Parallel linear algebra routines
   Shared memory     :  Shared parallel matrices
   BLAS/LAPACK       :  OpenBLAS 0.3.15  USE64BITINT DYNAMIC_ARCH NO_AFFINITY Prescott SINGLE_THREADED
        Core in use  :  Prescott
   Copyright (c) 2011-2014, The OpenBLAS Project




***************************************
The coordinates will be read from file: start.xyz
***************************************


Your calculation utilizes the atom-pairwise dispersion correction
with the Becke-Johnson damping scheme (D3BJ)
Cite in your paper:
S.Grimme, S.Ehrlich, L.Goerigk, J Comput Chem, (2011), 32, 1456–1465 
S.Grimme, J.Antony, S.Ehrlich and H.Krieg, J.Chem.Phys., 132, (2010), 154104 
   

Your calculation utilizes a Nudged-Elastic-Band implementation
 by V.Asgeirsson, C. Riplinger & H. Jonsson
Please cite in your paper:
 V. Asgeirsson et al., in prep. (2019)
   

================================================================================

----- Orbital basis set information -----
Your calculation utilizes the basis: def2-TZVP
   F. Weigend and R. Ahlrichs, Phys. Chem. Chem. Phys. 7, 3297 (2005).

----- AuxJ basis set information -----
Your calculation utilizes the auxiliary basis: def2/J
   F. Weigend, Phys. Chem. Chem. Phys. 8, 1057 (2006).

================================================================================
                                        WARNINGS
                       Please study these warnings very carefully!
================================================================================


WARNING: Geometry Optimization
  ===> : Switching off AutoStart
         For restart on a previous wavefunction, please use MOREAD

INFO   : the flag for use of the SHARK integral package has been found!

================================================================================
                                       INPUT FILE
================================================================================
NAME = neb.inp
|  1> ! NEB-TS b3lyp D3 def2-TZVP CPCM
|  2> 
|  3> %pal
|  4> nprocs 102
|  5> end
|  6> 
|  7> %cpcm
|  8> epsilon 78.4
|  9> end
| 10> 
| 11> %neb
| 12> NEB_End_XYZFile "end.xyz"
| 13> Nimages 6
| 14> end
| 15> 
| 16> 
| 17> *XYZfile -1 1 start.xyz
| 18> 
| 19>                          ****END OF INPUT****
================================================================================


--------------------------------------------------------------------------------
                        Nudged Elastic Band Calculation
--------------------------------------------------------------------------------

Number of images (incl. end points)     ....  8
Number of intermediate images           ....  6
Number of optimized images              ....  6
Optimization of end points before NEB   ....  NO
Use existing gbw files for MO input     ....  NO
Number of atoms                         ....  29
Number of (active) degrees of freedom   ....  87
Constrained atoms                       ....  None

-----------------------------------------
  REACTANT (ANGSTROEM)
-----------------------------------------
C     -0.802383     0.769331     1.040249 
C      0.542726     0.708438     1.376943 
C      1.390071    -0.107483     0.629602 
C      0.877902    -0.848120    -0.431215 
C     -0.472142    -0.746144    -0.733802 
C     -1.340208     0.058461    -0.016137 
H      0.968511     1.264127     2.212962 
H      1.508603    -1.490831    -1.024861 
H     -2.385472     0.124484    -0.269234 
N     -1.008656    -1.513709    -1.866313 
O     -2.195503    -1.394335    -2.130898 
O     -0.237739    -2.232539    -2.486315 
C      2.840343    -0.161448     1.034504 
H      2.960812     0.448941     1.940819 
C      3.395187    -1.567267     1.235595 
H      4.439421    -1.523945     1.541268 
H      3.311496    -2.166668     0.328809 
H      2.822217    -2.053849     2.025087 
N      3.722058     0.550684     0.009334 
O      4.838083     0.865563     0.390260 
O      3.299285     0.762413    -1.114289 
O      2.199330     4.038198     4.495175 
H      3.025480     4.286953     4.923464 
N     -1.695089     1.629019     1.832633 
O     -2.862282     1.727325     1.478797 
O     -1.225927     2.199487     2.805357 
H      2.479349     1.076889     4.149868 
H      2.367006     3.090895     4.096559 
O      2.571341     1.738862     3.455800 

-----------------------------------------
  PRODUCT (ANGSTROEM)
-----------------------------------------
C      0.999584     1.144432     0.209224 
C      1.435319     0.517193    -0.943558 
C      0.960799    -0.770146    -1.281551 
C      0.033742    -1.347587    -0.387019 
C     -0.374553    -0.670939     0.749063 
C      0.086464     0.589276     1.090549 
H      2.152359     1.003086    -1.577498 
H     -0.387703    -2.319537    -0.580983 
H     -0.243494     1.101797     1.977054 
N     -1.356301    -1.313378     1.635900 
O     -1.710201    -0.706368     2.637670 
O     -1.772644    -2.423150     1.333141 
C      1.384497    -1.532662    -2.436530 
H      3.486808    -1.626992    -1.592251 
C      1.115352    -3.005701    -2.529448 
H      1.892793    -3.492266    -3.114717 
H      0.158464    -3.229369    -3.015960 
H      1.099331    -3.459906    -1.538918 
N      1.904669    -0.936537    -3.540064 
O      2.160744    -1.640086    -4.571516 
O      2.139524     0.316621    -3.585554 
O      5.695825     0.423741    -2.950857 
H      6.531462     0.597548    -2.502832 
N      1.547038     2.473710     0.528689 
O      1.202782     2.998887     1.578811 
O      2.321040     2.989074    -0.265136 
H      4.217291    -1.024577    -0.386934 
H      5.226472    -0.207753    -2.371234 
O      4.374905    -1.425028    -1.252275 



----------------------
NEB settings
----------------------
Method type                             ....  climbing image
Threshold for climbing image            ....  2.00e-02 Eh/Bohr 
Free endpoints                          ....  off 
Tangent type                            ....  improved 
Number of intermediate images           ....  6 
Number of images free to move           ....  6 
Spring type for image distribution      ....  distance between adjacent images 
Spring constant                         ....  energy weighted (0.0100 -to- 0.1000) Eh/Bohr^2 
Spring force perp. to the path          ....  none 
Generation of initial path              ....  image dependent pair potential 
Initial path via TS guess               ....  off 

Minimization of RMSD: Rotation          ....  always 
Minimization of RMSD: Translation type  ....  centroid 
Center fixed to origin                  ....  true 
Remove external force                   ....  true 

Reparametrization of the path           ....  off 
Convergence thresholds:
Convergence monitored for               ....  all images
Scaling factor                          ....  10.00

Convergence parameters for regular images:
               Max(|Fp|)                ....  2.00e-02 Eh/Bohr
               RMS(Fp)                  ....  1.00e-02 Eh/Bohr

Convergence parameters for climbing image:
               Max(|F|)                 ....  2.00e-03 Eh/Bohr
               RMS(F)                   ....  1.00e-03 Eh/Bohr
Optimization method:
Method                                  ....  L-BFGS
Max. iterations                         ....  500 
Step size                               ....  1.00 
Maximum allowed step size               ....  0.10 Bohr

LBFGS parameters: 
               Memory                   ....  20 
               Initial step size        ....  0.0010 
               Estimate curvature       ....  YES 
               Reset on maxmove         ....  YES 
               Reparam. on reset        ....  NO 
Generation of  the initial path:
Minimize RMSD between reactant and product configurations     .... done
       RMSD before minimization         ....  5.1062 Bohr
       RMSD after minimization          ....  1.1882 Bohr
Performing linear interpolation         ....  done
Interpolation using                     ....  IDPP (Image Dependent Pair Potential)
IDPP-Settings:
       Remove global transl. and rot.   ...   true
       Convergence tolerance            ....  0.0100 1/Ang.^3
       Max. numer of iterations         ....    7000
       Spring constant                  ....  1.0000 1/Ang.^4
       Time step                        ....  0.0100 fs
       Max. movement per iteration      ....  0.0500 Ang.
       Full print                       ....  false 
idpp initial path generation successfully converged in 88 iterations
Displacement along initial path:             11.3079 Bohr
Writing initial trajectory to file      ....  neb_initial_path_trj.xyz



----------------------
NEB OPTIMIZATION      
----------------------

Following output files will be written:
Energy profile during opt. written to    ....  neb.interp
Optimization log-file                    ....  neb.NEB.log
Current trajectory will be written to    ....  neb_MEP_trj.xyz
       and to allxyz file                ....  neb_MEP.allxyz
       and individual images to xyz file ....  neb_im{NIm}.xyz
Trajectory history will be written to    ....  neb_MEP_ALL_trj.xyz
Converged CI will be written to          ....  neb_NEB-CI_converged.xyz
Converged TS will be written to          ....  neb_NEB-TS_converged.xyz

Single point energy and gradient calculation of reactant and
product configurations (have to be performed only once)
Properties of fixed NEB end points:
               Reactant:
                         E               ....  -1076.753986 Eh
                         RMS(F)          ....      0.000452 Eh/Bohr
                         MAX(|F|)        ....      0.002095 Eh/Bohr
               Product:
                         E               ....  -1076.780256 Eh
                         RMS(F)          ....      0.000200 Eh/Bohr
                         MAX(|F|)        ....      0.000478 Eh/Bohr



Starting iterations:

Optim.  Iteration  HEI  E(HEI)-E(0)  max(|Fp|)   RMS(Fp)    dS
Switch-on CI threshold               0.020000 
   LBFGS     0      3    0.037485    0.075409   0.009431  11.3079       
   LBFGS     1      3    0.027741    0.055364   0.006701  11.3164       
   LBFGS     2      3    0.022002    0.039462   0.005486  11.3492       
   LBFGS     3      3    0.018349    0.055066   0.006496  11.4020       
   LBFGS     4      3    0.014755    0.047675   0.006006  11.4940       
   LBFGS     5      3    0.013178    0.031915   0.004770  11.4993       
   LBFGS     6      3    0.011223    0.032158   0.003771  11.5389       
   LBFGS     7      3    0.008031    0.016558   0.002511  11.6906       

Image  3 will be converted to a climbing image in the next iteration (max(|Fp|) < 0.0200) 

Optim.  Iteration  CI   E(CI)-E(0)   max(|Fp|)   RMS(Fp)    dS     max(|FCI|)   RMS(FCI)
Convergence thresholds               0.020000   0.010000            0.002000    0.001000 
   LBFGS     8      3    0.007770    0.014507   0.001969  11.6995    0.019015    0.003144       
   LBFGS     9      3    0.007324    0.012886   0.002580  11.7958    0.017725    0.004417       
   LBFGS    10      3    0.006082    0.011161   0.001286  11.8301    0.016241    0.002470       
   LBFGS    11      3    0.004605    0.014947   0.002977  12.0162    0.016024    0.004747       
   LBFGS    12      3    0.005206    0.021339   0.004269  12.0909    0.023723    0.006921       
   LBFGS    13      3    0.003660    0.007219   0.000861  12.0614    0.007422    0.001518       
   LBFGS    14      3    0.003574    0.004038   0.000846  12.0420    0.007560    0.001611       
   LBFGS    15      4    0.003756    0.004615   0.001050  12.0368    0.025703    0.004246       
   LBFGS    16      4    0.003756    0.004614   0.001050  12.0368    0.025702    0.004246       
   LBFGS    17      4    0.006305    0.019405   0.002230  12.0013    0.018699    0.003709       
   LBFGS    18      4    0.007612    0.018383   0.001428  11.9783    0.010589    0.002196       
   LBFGS    19      4    0.007990    0.008697   0.001396  11.9679    0.008080    0.001886       
   LBFGS    20      4    0.008073    0.013179   0.002512  12.0010    0.008494    0.002843       
   LBFGS    21      4    0.007787    0.007810   0.001535  12.0171    0.004755    0.001618       
   LBFGS    22      4    0.007694    0.007734   0.001329  12.0303    0.004232    0.001452       
   LBFGS    23      4    0.007092    0.011243   0.001388  12.1856    0.007085    0.001894       
   LBFGS    24      4    0.006943    0.005653   0.000786  12.1802    0.003084    0.001022       
   LBFGS    25      4    0.006893    0.004383   0.000702  12.1763    0.003432    0.001033       
   LBFGS    26      4    0.006017    0.010195   0.000996  12.1645    0.003498    0.000898       
   LBFGS    27      4    0.006050    0.009846   0.001454  12.2276    0.007416    0.002207       
   LBFGS    28      4    0.005906    0.007765   0.001136  12.2179    0.006369    0.001687       
   LBFGS    29      4    0.005827    0.002526   0.000520  12.2062    0.003230    0.000815       
   LBFGS    30      4    0.005756    0.003413   0.000446  12.1963    0.001770    0.000605       

                                .--------------------.
          ----------------------| CI-NEB convergence |-------------------------
          Item                value                   Tolerance       Converged
          ---------------------------------------------------------------------
          RMS(Fp)             0.0004458117            0.0100000000      YES
          MAX(|Fp|)           0.0034125679            0.0200000000      YES
          RMS(FCI)            0.0006049016            0.0010000000      YES
          MAX(|FCI|)          0.0017703724            0.0020000000      YES
          ---------------------------------------------------------------------

The elastic band and climbing image have converged successfully to a MEP in 30 iterations!


                    *********************H U R R A Y*********************
                    ***        THE NEB OPTIMIZATION HAS CONVERGED     ***
                    *****************************************************



---------------------------------------------------------------
                         PATH SUMMARY              
---------------------------------------------------------------
All forces in Eh/Bohr.

Image Dist.(Ang.)    E(Eh)   dE(kcal/mol)  max(|Fp|)  RMS(Fp)
  0     0.000   -1076.75399      0.00       0.00210   0.00045
  1     1.349   -1076.75364      0.22       0.00071   0.00021
  2     2.231   -1076.75310      0.55       0.00072   0.00028
  3     2.691   -1076.75162      1.49       0.00341   0.00078
  4     2.915   -1076.74823      3.61       0.00179   0.00060 <= CI
  5     3.111   -1076.75568     -1.06       0.00241   0.00066
  6     5.006   -1076.77745    -14.73       0.00158   0.00047
  7     6.454   -1076.78026    -16.48       0.00048   0.00020

Straight line distance between images along the path:
        D( 0- 1) =   1.3491 Ang.
        D( 1- 2) =   0.8817 Ang.
        D( 2- 3) =   0.4603 Ang.
        D( 3- 4) =   0.2239 Ang.
        D( 4- 5) =   0.1960 Ang.
        D( 5- 6) =   1.8948 Ang.
        D( 6- 7) =   1.4481 Ang.

---------------------------------------------------------------
               INFORMATION ABOUT SADDLE POINT     
---------------------------------------------------------------

Climbing image                            ....  4 
Energy                                    ....  -1076.74822960 Eh
Max. abs. force                           ....  1.7704e-03 Eh/Bohr

-----------------------------------------
  SADDLE POINT (ANGSTROEM)
-----------------------------------------
C     -2.006320     0.637912    -0.231375 
C     -0.654705     0.636663     0.064840 
C      0.182967    -0.335809    -0.486265 
C     -0.371613    -1.268124    -1.361543 
C     -1.733527    -1.223613    -1.642292 
C     -2.584007    -0.288665    -1.081839 
H     -0.246012     1.360488     0.752775 
H      0.235240    -2.029699    -1.826811 
H     -3.641205    -0.288687    -1.285980 
N     -2.311464    -2.215060    -2.562090 
O     -3.513073    -2.160950    -2.783554 
O     -1.563011    -3.043382    -3.060207 
C      1.613164    -0.382407    -0.029049 
H      1.577719     0.122350     1.187729 
C      2.271302    -1.755275    -0.044475 
H      3.259312    -1.717477     0.407055 
H      2.384296    -2.135066    -1.065863 
H      1.662578    -2.465027     0.514753 
N      2.442181     0.586693    -0.725517 
O      3.658877     0.581896    -0.499962 
O      1.924613     1.427476    -1.471931 
O      1.305493     3.363769     3.223149 
H      1.771447     3.474978     4.059786 
N     -2.875122     1.634923     0.410647 
O     -4.068385     1.611375     0.146757 
O     -2.361939     2.432791     1.182112 
H      0.760297     0.295218     2.854126 
H      1.402050     2.407717     2.973330 
O      1.478848     0.734993     2.381693 

-----------------------------------------
  FORCES (Eh/Bohr)
-----------------------------------------
C     -0.000376    -0.000038    -0.000018 
C     -0.000056     0.000055     0.000418 
C     -0.000253     0.000079     0.000323 
C      0.000166    -0.000050     0.000373 
C     -0.000294     0.000231     0.000212 
C      0.000288    -0.000111    -0.000174 
H     -0.000350    -0.000224     0.000405 
H      0.000043    -0.000175     0.000668 
H     -0.000079     0.000189    -0.000477 
N      0.000264    -0.000109     0.000009 
O      0.000317    -0.000233    -0.000169 
O      0.000454    -0.000025     0.000162 
C     -0.000228     0.000406     0.000357 
H      0.000942    -0.000052    -0.001660 
C     -0.000361     0.000330     0.000313 
H     -0.000513     0.000307     0.001143 
H      0.000082    -0.000339     0.000928 
H     -0.000716     0.000624     0.000709 
N      0.000064     0.000554     0.000057 
O     -0.000294    -0.000304    -0.001035 
O     -0.000830     0.001770     0.001756 
O     -0.000140    -0.001008    -0.000488 
H     -0.000032    -0.001475    -0.000581 
N      0.000712     0.000524     0.000370 
O     -0.000699     0.000183    -0.000275 
O     -0.000315    -0.000027    -0.000518 
H      0.000529    -0.000554    -0.001405 
H      0.000192    -0.000845    -0.001202 
O      0.001379     0.000283    -0.000123 

-----------------------------------------
  UNIT TANGENT
-----------------------------------------
C     -0.002553    -0.001082    -0.008832 
C     -0.000426     0.009685    -0.024005 
C      0.026226     0.015860    -0.015307 
C     -0.004700    -0.003668     0.009558 
C     -0.004992    -0.008398     0.010758 
C     -0.008940    -0.004771    -0.001284 
H     -0.023780     0.031257    -0.040934 
H      0.000067     0.004973    -0.001180 
H     -0.007464    -0.004547    -0.001994 
N      0.000607     0.001973    -0.001999 
O      0.000682     0.006146    -0.011866 
O      0.000896     0.004764    -0.008410 
C      0.029589     0.015977    -0.152820 
H     -0.113212     0.343183     0.623004 
C     -0.002341     0.016948     0.036805 
H      0.000132     0.001877     0.032970 
H      0.020074    -0.030573     0.043539 
H     -0.013555     0.023022     0.033512 
N     -0.076493    -0.066713     0.074201 
O      0.005720    -0.063534    -0.020292 
O     -0.048071     0.085223     0.114801 
O     -0.039069    -0.006137     0.010487 
H      0.004972    -0.009615    -0.011003 
N      0.000135    -0.007535     0.002102 
O     -0.002237    -0.003064     0.005649 
O     -0.001922    -0.011813     0.010447 
H      0.100113    -0.117790    -0.215936 
H      0.064964     0.100559    -0.047415 
O      0.095579    -0.322209    -0.444556 
 => Unit tangent is an approximation to the TS mode at the saddle point

Next a TS optimization is performed on the CI from the NEB run.

         *************************************************************
         *                       TS OPTIMIZATION                     *
         *************************************************************


Following output files will be written:
Converged TS will be written to          ....  neb_NEB-TS_converged.xyz
                                         ....  neb.xyz
Current trajectory will be written to    ....  neb_trj.xyz
Initial Hessian will be stored in        ....  neb.appr.hess
Geometry optimization settings:
Update method            Update   .... Bofill
Choice of coordinates    CoordSys .... Z-matrix Internals
Initial Hessian          InHess   .... Read

Convergence Tolerances:
Energy Change            TolE     ....  5.0000e-06 Eh
Max. Gradient            TolMAXG  ....  3.0000e-04 Eh/bohr
RMS Gradient             TolRMSG  ....  1.0000e-04 Eh/bohr
Max. Displacement        TolMAXD  ....  4.0000e-03 bohr
RMS Displacement         TolRMSD  ....  2.0000e-03 bohr
Strict Convergence                ....  False
------------------------------------------------------------------------------
                        ORCA OPTIMIZATION COORDINATE SETUP
------------------------------------------------------------------------------

The optimization will be done in new redundant internal coordinates
Making redundant internal coordinates   ...  (new redundants) done
Following TS mode number                ...     0
TS-active-atoms for coordinate setup... 13 28 
Evaluating the initial hessian          ... (Reading Exact Hessian)...  
InHessName: neb.appr.hess	The file <neb.appr.hess> is opened as a .hess file
done
done
Diagonalizing the Hessian               .... done
Dimension of the hessian                .... 143
Lowest eigenvalues of the non projected Hessian:
 -0.015239857 -0.000000000 -0.000000000 -0.000000000 -0.000000000
done
Evaluating the coordinates              ...  done
Calculating the B-matrix                .... done
Calculating the G-matrix                .... done
Diagonalizing the G-matrix              .... done
Small eigenvalue found = 4.805e-03
Small eigenvalue found = 1.180e-02
Small eigenvalue found = 2.973e-02
The first mode is                       ....   62
The number of degrees of freedom        ....   81

    -----------------------------------------------------------------
                    Redundant Internal Coordinates


    -----------------------------------------------------------------
         Definition                    Initial Value    d2E/dq (diagonal element)
    -----------------------------------------------------------------
      1. B(C   1,C   0)                  1.3837         0.589852   
      2. B(C   2,C   1)                  1.3968         0.563953   
      3. B(C   3,C   2)                  1.3939         0.569830   
      4. B(C   4,C   3)                  1.3913         0.574179   
      5. B(C   5,C   4)                  1.3826         0.592860   
      6. B(C   5,C   0)                  1.3840         0.589887   
      7. B(H   6,C   1)                  1.0790         0.374994   
      8. B(H   7,C   3)                  1.0792         0.374636   
      9. B(H   8,C   5)                  1.0767         0.378124   
     10. B(N   9,C   4)                  1.4707         0.416016   
     11. B(O  10,N   9)                  1.2230         0.925501   
     12. B(O  11,N   9)                  1.2225         0.927479   
     13. B(C  12,C   2)                  1.5022         0.416373   
     14. B(H  13,C  12)                  1.3178         0.181656   
     15. B(C  14,C  12)                  1.5225         0.383857   
     16. B(H  15,C  14)                  1.0870         0.364224   
     17. B(H  16,C  14)                  1.0956         0.353372   
     18. B(H  17,C  14)                  1.0895         0.360782   
     19. B(N  18,C  12)                  1.4531         0.420529   
     20. B(O  19,N  18)                  1.2374         0.877606   
     21. B(O  20,N  18)                  1.2377         0.875966   
     22. B(H  22,O  21)                  0.9641         0.512274   
     23. B(N  23,C   0)                  1.4700         0.417031   
     24. B(O  24,N  23)                  1.2223         0.927967   
     25. B(O  25,N  23)                  1.2227         0.926529   
     26. B(H  27,H  26)                  2.2110         0.041395   
     27. B(H  27,O  21)                  0.9929         0.460026   
     28. B(O  28,H  27)                  1.7759         0.038574   
     29. B(O  28,H  26)                  0.9659         0.348861   
     30. B(O  28,H  13)                  1.3456         0.119652   
     31. A(C   1,C   0,C   5)          122.5923         0.165861   
     32. A(C   1,C   0,N  23)          118.9744         0.243251   
     33. A(C   5,C   0,N  23)          118.4071         0.243241   
     34. A(C   0,C   1,C   2)          120.1299         0.161667   
     35. A(C   0,C   1,H   6)          120.3897         0.218184   
     36. A(C   2,C   1,H   6)          119.4352         0.217981   
     37. A(C   1,C   2,C   3)          118.3474         0.160430   
     38. A(C   1,C   2,C  12)          118.1939         0.243360   
     39. A(C   3,C   2,C  12)          123.3099         0.242669   
     40. A(C   2,C   3,C   4)          119.6562         0.161186   
     41. A(C   4,C   3,H   7)          119.0793         0.217982   
     42. A(C   2,C   3,H   7)          121.2643         0.217780   
     43. A(C   3,C   4,N   9)          119.2952         0.242637   
     44. A(C   5,C   4,N   9)          117.8823         0.243063   
     45. A(C   3,C   4,C   5)          122.8195         0.165448   
     46. A(C   0,C   5,C   4)          116.4268         0.160286   
     47. A(C   0,C   5,H   8)          121.7584         0.218922   
     48. A(C   4,C   5,H   8)          121.8105         0.218945   
     49. A(C   4,N   9,O  10)          118.0017         0.290876   
     50. A(O  10,N   9,O  11)          123.8978         0.312074   
     51. A(C   4,N   9,O  11)          118.1006         0.290928   
     52. A(H  13,C  12,N  18)          101.6803         0.047779   
     53. A(C   2,C  12,N  18)          112.1229         0.086172   
     54. A(C  14,C  12,N  18)          110.4805         0.103931   
     55. A(H  13,C  12,C  14)          111.4912         0.061070   
     56. A(C   2,C  12,C  14)          115.8758         0.096171   
     57. A(C   2,C  12,H  13)          104.0955         0.061053   
     58. A(C  12,H  13,O  28)          174.6570         0.220966   
     59. A(H  16,C  14,H  17)          108.0790         0.114498   
     60. A(H  15,C  14,H  17)          108.4989         0.114253   
     61. A(C  12,C  14,H  17)          109.9188         0.224973   
     62. A(H  15,C  14,H  16)          107.7937         0.117019   
     63. A(C  12,C  14,H  16)          111.5069         0.228627   
     64. A(C  12,C  14,H  15)          110.9374         0.223968   
     65. A(O  19,N  18,O  20)          121.5817         0.311790   
     66. A(C  12,N  18,O  20)          120.2331         0.291195   
     67. A(C  12,N  18,O  19)          118.0995         0.291936   
     68. A(H  22,O  21,H  27)          106.4053         0.314907   
     69. A(O  24,N  23,O  25)          123.9524         0.312191   
     70. A(C   0,N  23,O  25)          118.0380         0.291052   
     71. A(C   0,N  23,O  24)          118.0083         0.291080   
     72. A(H  27,H  26,O  28)           51.3487         0.027914   
     73. A(H  26,H  27,O  28)           25.1342         0.025980   
     74. A(O  21,H  27,O  28)          174.2663         0.009711   
     75. A(O  21,H  27,H  26)          154.8705         0.026017   
     76. A(H  26,O  28,H  27)          103.5170         0.061368   
     77. A(H  13,O  28,H  27)          136.6862         0.118282   
     78. A(H  13,O  28,H  26)          106.3417         0.093879   
     79. D(C   2,C   1,C   0,C   5)     -0.8836         0.008386   
     80. D(H   6,C   1,C   0,N  23)     -0.3154         0.011035   
     81. D(C   2,C   1,C   0,N  23)    177.2264         0.009029   
     82. D(H   6,C   1,C   0,C   5)   -178.4254         0.009481   
     83. D(C  12,C   2,C   1,H   6)      3.6290         0.009890   
     84. D(C  12,C   2,C   1,C   0)   -173.9362         0.008016   
     85. D(C   3,C   2,C   1,C   0)      1.7779         0.007464   
     86. D(C   3,C   2,C   1,H   6)    179.3432         0.008782   
     87. D(H   7,C   3,C   2,C  12)     -5.5311         0.010043   
     88. D(C   4,C   3,C   2,C  12)    174.3021         0.008022   
     89. D(H   7,C   3,C   2,C   1)    178.9892         0.008809   
     90. D(C   4,C   3,C   2,C   1)     -1.1775         0.007167   
     91. D(N   9,C   4,C   3,C   2)   -179.7170         0.008573   
     92. D(C   5,C   4,C   3,C   2)     -0.3590         0.008067   
     93. D(C   5,C   4,C   3,H   7)    179.4779         0.008850   
     94. D(N   9,C   4,C   3,H   7)      0.1199         0.010257   
     95. D(H   8,C   5,C   4,N   9)      1.3692         0.010893   
     96. D(C   0,C   5,C   4,C   3)      1.2531         0.007994   
     97. D(H   8,C   5,C   0,N  23)      0.5027         0.010940   
     98. D(C   0,C   5,C   4,N   9)   -179.3803         0.008502   
     99. D(H   8,C   5,C   0,C   1)    178.6229         0.009397   
    100. D(C   4,C   5,C   0,N  23)   -178.7483         0.008553   
    101. D(C   4,C   5,C   0,C   1)     -0.6281         0.008001   
    102. D(H   8,C   5,C   4,C   3)   -177.9974         0.009436   
    103. D(O  11,N   9,C   4,C   5)    179.9807         0.008602   
    104. D(O  11,N   9,C   4,C   3)     -0.6297         0.008555   
    105. D(O  10,N   9,C   4,C   5)      0.0178         0.008578   
    106. D(O  10,N   9,C   4,C   3)    179.4075         0.008642   
    107. D(C  14,C  12,C   2,C   1)    149.7184         0.017396   
    108. D(H  13,C  12,C   2,C   3)   -148.5616         0.016770   
    109. D(H  13,C  12,C   2,C   1)     26.9246         0.016770   
    110. D(N  18,C  12,C   2,C   3)    102.3272         0.019398   
    111. D(N  18,C  12,C   2,C   1)    -82.1866         0.019565   
    112. D(C  14,C  12,C   2,C   3)    -25.7677         0.017608   
    113. D(O  28,H  13,C  12,N  18)     65.3655         0.034966   
    114. D(O  28,H  13,C  12,C  14)   -176.8996         0.033671   
    115. D(O  28,H  13,C  12,C   2)    -51.2760         0.033668   
    116. D(H  17,C  14,C  12,N  18)    177.6849         0.029397   
    117. D(H  17,C  14,C  12,H  13)     65.3935         0.027791   
    118. D(H  17,C  14,C  12,C   2)    -53.4149         0.028205   
    119. D(H  16,C  14,C  12,N  18)    -62.4760         0.028410   
    120. D(H  16,C  14,C  12,H  13)   -174.7674         0.028604   
    121. D(H  16,C  14,C  12,C   2)     66.4242         0.027322   
    122. D(H  15,C  14,C  12,N  18)     57.6863         0.027787   
    123. D(H  15,C  14,C  12,H  13)    -54.6051         0.030985   
    124. D(H  15,C  14,C  12,C   2)   -173.4136         0.026879   
    125. D(O  20,N  18,C  12,C  14)    139.0165         0.029012   
    126. D(O  20,N  18,C  12,H  13)   -102.5224         0.020814   
    127. D(O  20,N  18,C  12,C   2)      8.1176         0.028565   
    128. D(O  19,N  18,C  12,C  14)    -44.2965         0.023349   
    129. D(O  19,N  18,C  12,H  13)     74.1646         0.021940   
    130. D(O  19,N  18,C  12,C   2)   -175.1955         0.023557   
    131. D(O  25,N  23,C   0,C   5)    178.5147         0.008758   
    132. D(O  25,N  23,C   0,C   1)      0.3250         0.008696   
    133. D(O  24,N  23,C   0,C   5)     -1.0784         0.008637   
    134. D(O  24,N  23,C   0,C   1)   -179.2681         0.008665   
    135. D(O  21,H  27,H  26,O  28)    166.4737         0.045057   
    136. D(O  28,H  27,O  21,H  22)    179.7777         0.148525   
    137. D(H  26,H  27,O  21,H  22)     95.8586         0.149835   
    138. D(H  13,O  28,H  27,O  21)     36.4204         0.017011   
    139. D(H  13,O  28,H  26,H  27)   -148.2472         0.075359   
    140. D(H  27,O  28,H  13,C  12)    -30.7327         0.013009   
    141. D(H  26,O  28,H  13,C  12)    101.0315         0.014535   
    142. D(H  26,O  28,H  27,O  21)    -96.1751         0.021975   
    143. D(H  13,O  28,H  27,H  26)    132.5955         0.026901   
    -----------------------------------------------------------------

Number of atoms                         .... 29
Number of degrees of freedom            .... 143

         *************************************************************
         *                GEOMETRY OPTIMIZATION CYCLE   1            *
         *************************************************************


           ************************************************************
           *        Program running with 102 parallel MPI-processes   *
           *              working on a common directory               *
           ************************************************************
------------------------------------------------------------------------------
                           ORCA GTO INTEGRAL CALCULATION
                           -- RI-GTO INTEGRALS CHOSEN --
------------------------------------------------------------------------------
------------------------------------------------------------------------------
                   ___                                                        
                  /   \      - P O W E R E D   B Y -                         
                 /     \                                                     
                 |  |  |   _    _      __       _____    __    __             
                 |  |  |  | |  | |    /  \     |  _  \  |  |  /  |          
                  \  \/   | |  | |   /    \    | | | |  |  | /  /          
                 / \  \   | |__| |  /  /\  \   | |_| |  |  |/  /          
                |  |  |   |  __  | /  /__\  \  |    /   |      \           
                |  |  |   | |  | | |   __   |  |    \   |  |\   \          
                \     /   | |  | | |  |  |  |  | |\  \  |  | \   \       
                 \___/    |_|  |_| |__|  |__|  |_| \__\ |__|  \__/        
                                                                              
                      - O R C A' S   B I G   F R I E N D -                    
                                      &                                       
                       - I N T E G R A L  F E E D E R -                       
                                                                              
 v1 FN, 2020, v2 2021                                                         
------------------------------------------------------------------------------


Reading SHARK input file neb.SHARKINP.tmp ... ok
----------------------
SHARK INTEGRAL PACKAGE
----------------------

Number of atoms                             ...     29
Number of basis functions                   ...    649
Number of shells                            ...    249
Maximum angular momentum                    ...      3
Integral batch strategy                     ... SHARK/LIBINT Hybrid
RI-J (if used) integral strategy            ... SPLIT-RIJ (Revised 2003 algorithm where possible)
Printlevel                                  ...      1
Contraction scheme used                     ... SEGMENTED contraction
Coulomb Range Separation                    ... NOT USED
Exchange Range Separation                   ... NOT USED
Finite Nucleus Model                        ... NOT USED
Auxiliary Coulomb fitting basis             ... AVAILABLE
   # of basis functions in Aux-J            ...   1041
   # of shells in Aux-J                     ...    335
   Maximum angular momentum in Aux-J        ...      4
Auxiliary J/K fitting basis                 ... NOT available
Auxiliary Correlation fitting basis         ... NOT available
Auxiliary 'external' fitting basis          ... NOT available
Integral threshold                          ...     2.500000e-11
Primitive cut-off                           ...     2.500000e-12
Primitive pair pre-selection threshold      ...     2.500000e-12

Calculating pre-screening integrals         ... done (  0.1 sec) Dimension = 249
Organizing shell pair data                  ... done (  0.6 sec)
Shell pair information
Total number of shell pairs                 ...     31125
Shell pairs after pre-screening             ...     21981
Total number of primitive shell pairs       ...     97468
Primitive shell pairs kept                  ...     45921
          la=0 lb=0:   5371 shell pairs
          la=1 lb=0:   6268 shell pairs
          la=1 lb=1:   1852 shell pairs
          la=2 lb=0:   3165 shell pairs
          la=2 lb=1:   1899 shell pairs
          la=2 lb=2:    489 shell pairs
          la=3 lb=0:   1489 shell pairs
          la=3 lb=1:    904 shell pairs
          la=3 lb=2:    436 shell pairs
          la=3 lb=3:    108 shell pairs

Calculating one electron integrals          ... done (  0.2 sec)
Calculating RI/J V-Matrix + Cholesky decomp.... done (  0.2 sec)
Calculating Nuclear repulsion               ... done (  0.0 sec) ENN=   1481.497903913596 Eh

SHARK setup successfully completed in   1.6 seconds

Maximum memory used throughout the entire GTOINT-calculation: 36.0 MB


           ************************************************************
           *        Program running with 102 parallel MPI-processes   *
           *              working on a common directory               *
           ************************************************************
-------------------------------------------------------------------------------
                                 ORCA SCF
-------------------------------------------------------------------------------

------------
SCF SETTINGS
------------
Hamiltonian:
 Density Functional     Method          .... DFT(GTOs)
 Exchange Functional    Exchange        .... B88
   X-Alpha parameter    XAlpha          ....  0.666667
   Becke's b parameter  XBeta           ....  0.004200
 Correlation Functional Correlation     .... LYP
 LDA part of GGA corr.  LDAOpt          .... VWN-5
 Gradients option       PostSCFGGA      .... off
 Hybrid DFT is turned on
   Fraction HF Exchange ScalHFX         ....  0.200000
   Scaling of DF-GGA-X  ScalDFX         ....  0.720000
   Scaling of DF-GGA-C  ScalDFC         ....  0.810000
   Scaling of DF-LDA-C  ScalLDAC        ....  1.000000
   Perturbative correction              ....  0.000000
   Density functional embedding theory  .... OFF
   NL short-range parameter             ....  4.800000
 RI-approximation to the Coulomb term is turned on
   Number of AuxJ basis functions       .... 1041
   RIJ-COSX (HFX calculated with COS-X)).... on


General Settings:
 Integral files         IntName         .... neb
 Hartree-Fock type      HFTyp           .... RHF
 Total Charge           Charge          ....   -1
 Multiplicity           Mult            ....    1
 Number of Electrons    NEL             ....  144
 Basis Dimension        Dim             ....  649
 Nuclear Repulsion      ENuc            ....   1481.4979039136 Eh

Convergence Acceleration:
 DIIS                   CNVDIIS         .... on
   Start iteration      DIISMaxIt       ....    12
   Startup error        DIISStart       ....  0.200000
   # of expansion vecs  DIISMaxEq       ....     5
   Bias factor          DIISBfac        ....   1.050
   Max. coefficient     DIISMaxC        ....  10.000
 Trust-Rad. Augm. Hess. CNVTRAH         .... auto
   Auto Start mean grad. ratio tolernc. ....  1.125000
   Auto Start start iteration           ....     1
   Auto Start num. interpolation iter.  ....    10
   Max. Number of Micro iterations      ....    16
   Max. Number of Macro iterations      .... Maxiter - #DIIS iter
   Number of Davidson start vectors     ....     2
   Converg. threshold I  (grad. norm)   ....   1.000e-05
   Converg. threshold II (energy diff.) ....   1.000e-08
   Grad. Scal. Fac. for Micro threshold ....   0.100
   Minimum threshold for Micro iter.    ....   0.010
   NR start threshold (gradient norm)   ....   0.001
   Initial trust radius                 ....   0.400
   Minimum AH scaling param. (alpha)    ....   1.000
   Maximum AH scaling param. (alpha)    .... 1000.000
   Orbital update algorithm             .... Taylor
   White noise on init. David. guess    .... on
   Maximum white noise                  ....   0.010
   Quad. conv. algorithm                .... NR
 SOSCF                  CNVSOSCF        .... on
   Start iteration      SOSCFMaxIt      ....   150
   Startup grad/error   SOSCFStart      ....  0.003300
 Level Shifting         CNVShift        .... on
   Level shift para.    LevelShift      ....    0.2500
   Turn off err/grad.   ShiftErr        ....    0.0010
 Zerner damping         CNVZerner       .... off
 Static damping         CNVDamp         .... on
   Fraction old density DampFac         ....    0.7000
   Max. Damping (<1)    DampMax         ....    0.9800
   Min. Damping (>=0)   DampMin         ....    0.0000
   Turn off err/grad.   DampErr         ....    0.1000
 Fernandez-Rico         CNVRico         .... off

SCF Procedure:
 Maximum # iterations   MaxIter         ....   125
 SCF integral mode      SCFMode         .... Direct
   Integral package                     .... SHARK and LIBINT hybrid scheme
 Reset frequency        DirectResetFreq ....    20
 Integral Threshold     Thresh          ....  2.500e-11 Eh
 Primitive CutOff       TCut            ....  2.500e-12 Eh

Convergence Tolerance:
 Convergence Check Mode ConvCheckMode   .... Total+1el-Energy
 Convergence forced     ConvForced      .... 0
 Energy Change          TolE            ....  1.000e-08 Eh
 1-El. energy change                    ....  1.000e-05 Eh
 Orbital Gradient       TolG            ....  1.000e-05
 Orbital Rotation angle TolX            ....  1.000e-05
 DIIS Error             TolErr          ....  5.000e-07


Diagonalization of the overlap matrix:
Smallest eigenvalue                        ... 6.023e-06
Time for diagonalization                   ...    0.264 sec
Threshold for overlap eigenvalues          ... 1.000e-08
Number of eigenvalues below threshold      ... 0
Time for construction of square roots      ...    0.356 sec
Total time needed                          ...    0.624 sec

---------------------
INITIAL GUESS: MOREAD
---------------------
Guess MOs are being read from file: neb.gbw
Input Geometry matches current geometry (good)
Input basis set matches current basis set (good)
MOs were renormalized
MOs were reorthogonalized (Cholesky)
                      ------------------
                      INITIAL GUESS DONE (   0.9 sec)
                      ------------------
-------------------
DFT GRID GENERATION
-------------------

General Integration Accuracy     IntAcc      ... 4.388
Radial Grid Type                 RadialGrid  ... OptM3 with GC (2021)
Angular Grid (max. ang.)         AngularGrid ... 4 (Lebedev-302)
Angular grid pruning method      GridPruning ... 4 (adaptive)
Weight generation scheme         WeightScheme... Becke
Basis function cutoff            BFCut       ... 1.0000e-11
Integration weight cutoff        WCut        ... 1.0000e-14
Angular grids for H and He will be reduced by one unit
Partially contracted basis set               ... off
Rotationally invariant grid construction     ... off

Total number of grid points                  ...   146514
Total number of batches                      ...     2305
Average number of points per batch           ...       63
Average number of grid points per atom       ...     5052
Time for grid setup =    1.235 sec

--------------------
COSX GRID GENERATION
--------------------

GRIDX 1
-------
General Integration Accuracy     IntAcc      ... 3.816
Radial Grid Type                 RadialGrid  ... OptM3 with GC (2021)
Angular Grid (max. ang.)         AngularGrid ... 1 (Lebedev-50)
Angular grid pruning method      GridPruning ... 4 (adaptive)
Weight generation scheme         WeightScheme... Becke
Basis function cutoff            BFCut       ... 1.0000e-11
Integration weight cutoff        WCut        ... 1.0000e-14
Angular grids for H and He will be reduced by one unit
Partially contracted basis set               ... on
Rotationally invariant grid construction     ... off

Total number of grid points                  ...    18580
Total number of batches                      ...      304
Average number of points per batch           ...       61
Average number of grid points per atom       ...      641
UseSFitting                                  ... on

GRIDX 2
-------
General Integration Accuracy     IntAcc      ... 4.020
Radial Grid Type                 RadialGrid  ... OptM3 with GC (2021)
Angular Grid (max. ang.)         AngularGrid ... 2 (Lebedev-110)
Angular grid pruning method      GridPruning ... 4 (adaptive)
Weight generation scheme         WeightScheme... Becke
Basis function cutoff            BFCut       ... 1.0000e-11
Integration weight cutoff        WCut        ... 1.0000e-14
Angular grids for H and He will be reduced by one unit
Partially contracted basis set               ... on
Rotationally invariant grid construction     ... off

Total number of grid points                  ...    41465
Total number of batches                      ...      662
Average number of points per batch           ...       62
Average number of grid points per atom       ...     1430
UseSFitting                                  ... on

GRIDX 3
-------
General Integration Accuracy     IntAcc      ... 4.338
Radial Grid Type                 RadialGrid  ... OptM3 with GC (2021)
Angular Grid (max. ang.)         AngularGrid ... 3 (Lebedev-194)
Angular grid pruning method      GridPruning ... 4 (adaptive)
Weight generation scheme         WeightScheme... Becke
Basis function cutoff            BFCut       ... 1.0000e-11
Integration weight cutoff        WCut        ... 1.0000e-14
Angular grids for H and He will be reduced by one unit
Partially contracted basis set               ... on
Rotationally invariant grid construction     ... off

Total number of grid points                  ...    91055
Total number of batches                      ...     1438
Average number of points per batch           ...       63
Average number of grid points per atom       ...     3140
UseSFitting                                  ... on

Time for X-Grid setup             =    2.172 sec


--------------------
CPCM SOLVATION MODEL
--------------------
CPCM parameters:
  Epsilon                                         ...      78.4000
  Refrac                                          ...       1.3300
  Rsolv                                           ...       1.3000
  Surface type                                    ... GAUSSIAN VDW
  Epsilon function type                           ...         CPCM
Radii:
 Radius for C  used is    3.8550 Bohr (=   2.0400 Ang.)
 Radius for H  used is    2.4944 Bohr (=   1.3200 Ang.)
 Radius for N  used is    3.5149 Bohr (=   1.8600 Ang.)
 Radius for O  used is    3.4469 Bohr (=   1.8240 Ang.)
Calculating surface                               ...        done! (  0.0s)
GEPOL surface points                              ...         1618
GEPOL Volume                                      ...    2004.0843
GEPOL Surface-area                                ...    1111.4475
Calculating surface distance matrix               ...        done! (  0.1s)
Performing Cholesky decomposition & store         ...        done! (  0.5s)
Overall time for CPCM initialization              ...                 0.6s
--------------
SCF ITERATIONS
--------------
ITER       Energy         Delta-E        Max-DP      RMS-DP      [F,P]     Damp
               ***  Starting incremental Fock matrix formation  ***
                      *** Initiating the SOSCF procedure ***
                      *** Re-Reading the Fockian *** 
                      *** Removing any level shift *** 
ITER      Energy       Delta-E        Grad      Rot      Max-DP    RMS-DP
  0  -1076.69245582 -1076.6924558163  0.000001  0.000001  0.001316  0.000007
               *** Restarting incremental Fock matrix formation ***
                  ***Gradient check signals convergence***
              ***Rediagonalizing the Fockian in SOSCF/NRSCF***

               *****************************************************
               *                     SUCCESS                       *
               *           SCF CONVERGED AFTER   1 CYCLES          *
               *****************************************************

Old exchange energy                            =    -26.110120865 Eh
New exchange energy                            =    -26.110145662 Eh
Exchange energy change after final integration =     -0.000024797 Eh
Total energy after final integration           =  -1076.692480613 Eh
Final COS-X integration done in                =     2.821 sec

----------------
TOTAL SCF ENERGY
----------------

Total Energy       :        -1076.69248061 Eh          -29298.29189 eV

Components:
Nuclear Repulsion  :         1481.49790391 Eh           40313.60747 eV
Electronic Energy  :        -2558.19038453 Eh          -69611.89936 eV
One Electron Energy:        -4434.91682781 Eh         -120680.22215 eV
Two Electron Energy:         1876.72644328 Eh           51068.32279 eV
Max COSX asymmetry :            0.00000168 Eh               0.00005 eV
CPCM Dielectric    :           -0.09727027 Eh              -2.64686 eV

Virial components:
Potential Energy   :        -2149.20104843 Eh          -58482.73373 eV
Kinetic Energy     :         1072.50856782 Eh           29184.44184 eV
Virial Ratio       :            2.00390105


DFT components:
N(Alpha)           :       72.000099175560 electrons
N(Beta)            :       72.000099175560 electrons
N(Total)           :      144.000198351120 electrons
E(X)               :     -104.158514170860 Eh       
E(C)               :       -5.972912285385 Eh       
E(XC)              :     -110.131426456246 Eh       
DFET-embed. en.    :        0.000000000000 Eh       
CPCM Solvation Model Properties:
Surface-charge          :            0.97574273
Charge-correction       :           -0.00261726 Eh              -0.07122 eV
Free-energy (cav+disp)  :  This term is not implemented in the current solvation scheme

---------------
SCF CONVERGENCE
---------------

  Last Energy change         ...   -1.0914e-11  Tolerance :   1.0000e-08
  Last MAX-Density change    ...    2.7756e-15  Tolerance :   1.0000e-07
  Last RMS-Density change    ...    1.7869e-17  Tolerance :   5.0000e-09
  Last Orbital Gradient      ...    5.3736e-07  Tolerance :   1.0000e-05
  Last Orbital Rotation      ...    1.1504e-06  Tolerance :   1.0000e-05

             **** THE GBW FILE WAS UPDATED (neb.gbw) ****
             **** DENSITY neb.scfp WAS UPDATED ****
             **** ENERGY FILE WAS UPDATED (neb.en.tmp) ****
             **** THE GBW FILE WAS UPDATED (neb.gbw) ****
             **** DENSITY neb.scfp WAS UPDATED ****
----------------
ORBITAL ENERGIES
----------------

  NO   OCC          E(Eh)            E(eV) 
   0   2.0000     -19.174812      -521.7732 
   1   2.0000     -19.174342      -521.7604 
   2   2.0000     -19.174303      -521.7593 
   3   2.0000     -19.174221      -521.7571 
   4   2.0000     -19.140540      -520.8406 
   5   2.0000     -19.138808      -520.7934 
   6   2.0000     -19.093597      -519.5632 
   7   2.0000     -19.054074      -518.4877 
   8   2.0000     -14.568319      -396.4241 
   9   2.0000     -14.567906      -396.4129 
  10   2.0000     -14.527825      -395.3222 
  11   2.0000     -10.251167      -278.9484 
  12   2.0000     -10.249692      -278.9083 
  13   2.0000     -10.217857      -278.0420 
  14   2.0000     -10.211878      -277.8793 
  15   2.0000     -10.211307      -277.8638 
  16   2.0000     -10.207228      -277.7528 
  17   2.0000     -10.199317      -277.5375 
  18   2.0000     -10.162434      -276.5339 
  19   2.0000      -1.248939       -33.9854 
  20   2.0000      -1.248721       -33.9794 
  21   2.0000      -1.206534       -32.8315 
  22   2.0000      -1.073954       -29.2238 
  23   2.0000      -1.073737       -29.2179 
  24   2.0000      -1.030145       -28.0317 
  25   2.0000      -0.975958       -26.5572 
  26   2.0000      -0.917018       -24.9533 
  27   2.0000      -0.904894       -24.6234 
  28   2.0000      -0.842084       -22.9143 
  29   2.0000      -0.841243       -22.8914 
  30   2.0000      -0.781450       -21.2643 
  31   2.0000      -0.730376       -19.8745 
  32   2.0000      -0.715764       -19.4769 
  33   2.0000      -0.690415       -18.7871 
  34   2.0000      -0.638151       -17.3650 
  35   2.0000      -0.603639       -16.4259 
  36   2.0000      -0.589534       -16.0420 
  37   2.0000      -0.561594       -15.2817 
  38   2.0000      -0.555842       -15.1252 
  39   2.0000      -0.552924       -15.0458 
  40   2.0000      -0.545878       -14.8541 
  41   2.0000      -0.540493       -14.7076 
  42   2.0000      -0.532133       -14.4801 
  43   2.0000      -0.525063       -14.2877 
  44   2.0000      -0.517079       -14.0704 
  45   2.0000      -0.508675       -13.8418 
  46   2.0000      -0.503670       -13.7056 
  47   2.0000      -0.500405       -13.6167 
  48   2.0000      -0.490661       -13.3516 
  49   2.0000      -0.445928       -12.1343 
  50   2.0000      -0.420333       -11.4378 
  51   2.0000      -0.406622       -11.0648 
  52   2.0000      -0.404950       -11.0192 
  53   2.0000      -0.398159       -10.8344 
  54   2.0000      -0.395697       -10.7675 
  55   2.0000      -0.373553       -10.1649 
  56   2.0000      -0.372248       -10.1294 
  57   2.0000      -0.340961        -9.2780 
  58   2.0000      -0.337307        -9.1786 
  59   2.0000      -0.335824        -9.1382 
  60   2.0000      -0.335244        -9.1224 
  61   2.0000      -0.330921        -9.0048 
  62   2.0000      -0.315554        -8.5866 
  63   2.0000      -0.314570        -8.5599 
  64   2.0000      -0.307961        -8.3800 
  65   2.0000      -0.305857        -8.3228 
  66   2.0000      -0.298678        -8.1274 
  67   2.0000      -0.297298        -8.0899 
  68   2.0000      -0.292733        -7.9657 
  69   2.0000      -0.272749        -7.4219 
  70   2.0000      -0.253832        -6.9071 
  71   2.0000      -0.218109        -5.9350 
  72   0.0000      -0.110712        -3.0126 
  73   0.0000      -0.105399        -2.8681 
  74   0.0000      -0.057944        -1.5767 
  75   0.0000      -0.028426        -0.7735 
  76   0.0000      -0.003013        -0.0820 
  77   0.0000       0.041340         1.1249 
  78   0.0000       0.057934         1.5765 
  79   0.0000       0.070562         1.9201 
  80   0.0000       0.078554         2.1376 
  81   0.0000       0.089855         2.4451 
  82   0.0000       0.106458         2.8969 
  83   0.0000       0.111606         3.0370 
  84   0.0000       0.120259         3.2724 
  85   0.0000       0.125893         3.4257 
  86   0.0000       0.127244         3.4625 
  87   0.0000       0.137645         3.7455 
  88   0.0000       0.144647         3.9360 
  89   0.0000       0.159611         4.3432 
  90   0.0000       0.175173         4.7667 
  91   0.0000       0.178368         4.8536 
  92   0.0000       0.184110         5.0099 
  93   0.0000       0.192270         5.2319 
  94   0.0000       0.202953         5.5226 
  95   0.0000       0.208403         5.6709 
  96   0.0000       0.211821         5.7639 
  97   0.0000       0.214675         5.8416 
  98   0.0000       0.222870         6.0646 
  99   0.0000       0.236167         6.4264 
 100   0.0000       0.239983         6.5303 
 101   0.0000       0.243173         6.6171 
 102   0.0000       0.245720         6.6864 
 103   0.0000       0.253825         6.9069 
 104   0.0000       0.259592         7.0638 
 105   0.0000       0.278221         7.5708 
 106   0.0000       0.279790         7.6135 
 107   0.0000       0.292199         7.9511 
 108   0.0000       0.298026         8.1097 
 109   0.0000       0.302584         8.2337 
 110   0.0000       0.304368         8.2823 
 111   0.0000       0.309896         8.4327 
 112   0.0000       0.323246         8.7960 
 113   0.0000       0.330539         8.9944 
 114   0.0000       0.331401         9.0179 
 115   0.0000       0.338700         9.2165 
 116   0.0000       0.341835         9.3018 
 117   0.0000       0.346317         9.4238 
 118   0.0000       0.356858         9.7106 
 119   0.0000       0.364138         9.9087 
 120   0.0000       0.371421        10.1069 
 121   0.0000       0.379865        10.3367 
 122   0.0000       0.383792        10.4435 
 123   0.0000       0.390229        10.6187 
 124   0.0000       0.392847        10.6899 
 125   0.0000       0.396813        10.7978 
 126   0.0000       0.405925        11.0458 
 127   0.0000       0.408999        11.1294 
 128   0.0000       0.409815        11.1516 
 129   0.0000       0.426348        11.6015 
 130   0.0000       0.433640        11.7999 
 131   0.0000       0.435092        11.8394 
 132   0.0000       0.438037        11.9196 
 133   0.0000       0.439151        11.9499 
 134   0.0000       0.444931        12.1072 
 135   0.0000       0.451913        12.2972 
 136   0.0000       0.454278        12.3615 
 137   0.0000       0.461814        12.5666 
 138   0.0000       0.464834        12.6488 
 139   0.0000       0.479019        13.0348 
 140   0.0000       0.481893        13.1130 
 141   0.0000       0.493248        13.4220 
 142   0.0000       0.496532        13.5113 
 143   0.0000       0.499338        13.5877 
 144   0.0000       0.501653        13.6507 
 145   0.0000       0.504850        13.7377 
 146   0.0000       0.509652        13.8683 
 147   0.0000       0.517801        14.0901 
 148   0.0000       0.523612        14.2482 
 149   0.0000       0.528027        14.3684 
 150   0.0000       0.534818        14.5531 
 151   0.0000       0.541908        14.7461 
 152   0.0000       0.546491        14.8708 
 153   0.0000       0.554621        15.0920 
 154   0.0000       0.562672        15.3111 
 155   0.0000       0.573272        15.5995 
 156   0.0000       0.578808        15.7502 
 157   0.0000       0.585845        15.9416 
 158   0.0000       0.600762        16.3476 
 159   0.0000       0.601564        16.3694 
 160   0.0000       0.603162        16.4129 
 161   0.0000       0.618845        16.8396 
 162   0.0000       0.622995        16.9525 
 163   0.0000       0.625009        17.0074 
 164   0.0000       0.633132        17.2284 
 165   0.0000       0.642888        17.4939 
 166   0.0000       0.645154        17.5555 
 167   0.0000       0.653505        17.7828 
 168   0.0000       0.662069        18.0158 
 169   0.0000       0.668559        18.1924 
 170   0.0000       0.679995        18.5036 
 171   0.0000       0.680908        18.5284 
 172   0.0000       0.693231        18.8638 
 173   0.0000       0.701006        19.0753 
 174   0.0000       0.703832        19.1522 
 175   0.0000       0.712328        19.3834 
 176   0.0000       0.715021        19.4567 
 177   0.0000       0.726456        19.7679 
 178   0.0000       0.747865        20.3504 
 179   0.0000       0.754185        20.5224 
 180   0.0000       0.767477        20.8841 
 181   0.0000       0.770611        20.9694 
 182   0.0000       0.780637        21.2422 
 183   0.0000       0.795713        21.6525 
 184   0.0000       0.800111        21.7721 
 185   0.0000       0.818804        22.2808 
 186   0.0000       0.829791        22.5798 
 187   0.0000       0.842494        22.9254 
 188   0.0000       0.852726        23.2039 
 189   0.0000       0.859274        23.3820 
 190   0.0000       0.879597        23.9350 
 191   0.0000       0.893934        24.3252 
 192   0.0000       0.897725        24.4283 
 193   0.0000       0.908070        24.7098 
 194   0.0000       0.920729        25.0543 
 195   0.0000       0.948641        25.8138 
 196   0.0000       0.964139        26.2356 
 197   0.0000       0.969119        26.3711 
 198   0.0000       0.973011        26.4770 
 199   0.0000       0.981721        26.7140 
 200   0.0000       0.997089        27.1322 
 201   0.0000       1.003644        27.3105 
 202   0.0000       1.016760        27.6674 
 203   0.0000       1.021319        27.7915 
 204   0.0000       1.039933        28.2980 
 205   0.0000       1.044548        28.4236 
 206   0.0000       1.047313        28.4988 
 207   0.0000       1.061910        28.8960 
 208   0.0000       1.069662        29.1070 
 209   0.0000       1.081151        29.4196 
 210   0.0000       1.097577        29.8666 
 211   0.0000       1.112946        30.2848 
 212   0.0000       1.121583        30.5198 
 213   0.0000       1.136984        30.9389 
 214   0.0000       1.150057        31.2947 
 215   0.0000       1.154344        31.4113 
 216   0.0000       1.190916        32.4065 
 217   0.0000       1.194663        32.5084 
 218   0.0000       1.212008        32.9804 
 219   0.0000       1.228075        33.4176 
 220   0.0000       1.232014        33.5248 
 221   0.0000       1.235781        33.6273 
 222   0.0000       1.248566        33.9752 
 223   0.0000       1.257329        34.2137 
 224   0.0000       1.272173        34.6176 
 225   0.0000       1.286255        35.0008 
 226   0.0000       1.291840        35.1527 
 227   0.0000       1.309274        35.6272 
 228   0.0000       1.314808        35.7778 
 229   0.0000       1.317929        35.8627 
 230   0.0000       1.328227        36.1429 
 231   0.0000       1.332719        36.2651 
 232   0.0000       1.354636        36.8615 
 233   0.0000       1.370893        37.3039 
 234   0.0000       1.373730        37.3811 
 235   0.0000       1.393241        37.9120 
 236   0.0000       1.401196        38.1285 
 237   0.0000       1.411378        38.4055 
 238   0.0000       1.421339        38.6766 
 239   0.0000       1.425886        38.8003 
 240   0.0000       1.431766        38.9603 
 241   0.0000       1.441984        39.2384 
 242   0.0000       1.452289        39.5188 
 243   0.0000       1.464206        39.8431 
 244   0.0000       1.471678        40.0464 
 245   0.0000       1.495587        40.6970 
 246   0.0000       1.500788        40.8385 
 247   0.0000       1.507239        41.0141 
 248   0.0000       1.528513        41.5930 
 249   0.0000       1.537394        41.8346 
 250   0.0000       1.558643        42.4128 
 251   0.0000       1.569382        42.7050 
 252   0.0000       1.584444        43.1149 
 253   0.0000       1.586790        43.1787 
 254   0.0000       1.598551        43.4988 
 255   0.0000       1.603212        43.6256 
 256   0.0000       1.608816        43.7781 
 257   0.0000       1.617624        44.0178 
 258   0.0000       1.621772        44.1307 
 259   0.0000       1.623563        44.1794 
 260   0.0000       1.642946        44.7068 
 261   0.0000       1.663750        45.2729 
 262   0.0000       1.668999        45.4158 
 263   0.0000       1.674934        45.5773 
 264   0.0000       1.679734        45.7079 
 265   0.0000       1.682068        45.7714 
 266   0.0000       1.694545        46.1109 
 267   0.0000       1.698968        46.2313 
 268   0.0000       1.711244        46.5653 
 269   0.0000       1.723068        46.8871 
 270   0.0000       1.740461        47.3603 
 271   0.0000       1.742828        47.4248 
 272   0.0000       1.750691        47.6387 
 273   0.0000       1.759400        47.8757 
 274   0.0000       1.766564        48.0706 
 275   0.0000       1.770976        48.1907 
 276   0.0000       1.778442        48.3939 
 277   0.0000       1.798222        48.9321 
 278   0.0000       1.806641        49.1612 
 279   0.0000       1.812423        49.3185 
 280   0.0000       1.847160        50.2638 
 281   0.0000       1.849907        50.3385 
 282   0.0000       1.865226        50.7554 
 283   0.0000       1.872155        50.9439 
 284   0.0000       1.889170        51.4069 
 285   0.0000       1.908464        51.9320 
 286   0.0000       1.914775        52.1037 
 287   0.0000       1.925667        52.4001 
 288   0.0000       1.931596        52.5614 
 289   0.0000       1.944608        52.9155 
 290   0.0000       1.953458        53.1563 
 291   0.0000       1.969532        53.5937 
 292   0.0000       1.971766        53.6545 
 293   0.0000       1.985665        54.0327 
 294   0.0000       1.998986        54.3952 
 295   0.0000       2.012771        54.7703 
 296   0.0000       2.023939        55.0742 
 297   0.0000       2.033262        55.3279 
 298   0.0000       2.040354        55.5209 
 299   0.0000       2.051957        55.8366 
 300   0.0000       2.060407        56.0665 
 301   0.0000       2.064566        56.1797 
 302   0.0000       2.075465        56.4763 
 303   0.0000       2.087780        56.8114 
 304   0.0000       2.092892        56.9505 
 305   0.0000       2.098796        57.1111 
 306   0.0000       2.114133        57.5285 
 307   0.0000       2.117941        57.6321 
 308   0.0000       2.123519        57.7839 
 309   0.0000       2.126239        57.8579 
 310   0.0000       2.137104        58.1536 
 311   0.0000       2.139034        58.2061 
 312   0.0000       2.149386        58.4878 
 313   0.0000       2.163310        58.8667 
 314   0.0000       2.174632        59.1748 
 315   0.0000       2.194545        59.7166 
 316   0.0000       2.203736        59.9667 
 317   0.0000       2.214009        60.2462 
 318   0.0000       2.229734        60.6741 
 319   0.0000       2.241358        60.9905 
 320   0.0000       2.246999        61.1440 
 321   0.0000       2.263919        61.6044 
 322   0.0000       2.274707        61.8979 
 323   0.0000       2.280838        62.0647 
 324   0.0000       2.289404        62.2979 
 325   0.0000       2.296712        62.4967 
 326   0.0000       2.311620        62.9024 
 327   0.0000       2.325088        63.2689 
 328   0.0000       2.356479        64.1230 
 329   0.0000       2.362186        64.2784 
 330   0.0000       2.374370        64.6099 
 331   0.0000       2.377810        64.7035 
 332   0.0000       2.396401        65.2094 
 333   0.0000       2.408395        65.5358 
 334   0.0000       2.447455        66.5986 
 335   0.0000       2.457736        66.8784 
 336   0.0000       2.460282        66.9477 
 337   0.0000       2.476969        67.4017 
 338   0.0000       2.488079        67.7041 
 339   0.0000       2.495078        67.8945 
 340   0.0000       2.501996        68.0828 
 341   0.0000       2.513796        68.4039 
 342   0.0000       2.539015        69.0901 
 343   0.0000       2.557173        69.5842 
 344   0.0000       2.562779        69.7368 
 345   0.0000       2.581319        70.2413 
 346   0.0000       2.592775        70.5530 
 347   0.0000       2.598563        70.7105 
 348   0.0000       2.610670        71.0399 
 349   0.0000       2.615821        71.1801 
 350   0.0000       2.623164        71.3799 
 351   0.0000       2.623764        71.3962 
 352   0.0000       2.635849        71.7251 
 353   0.0000       2.638348        71.7931 
 354   0.0000       2.646500        72.0149 
 355   0.0000       2.661242        72.4161 
 356   0.0000       2.664343        72.5005 
 357   0.0000       2.672755        72.7294 
 358   0.0000       2.690759        73.2193 
 359   0.0000       2.697404        73.4001 
 360   0.0000       2.704995        73.6067 
 361   0.0000       2.717301        73.9415 
 362   0.0000       2.719336        73.9969 
 363   0.0000       2.723834        74.1193 
 364   0.0000       2.733361        74.3785 
 365   0.0000       2.740951        74.5851 
 366   0.0000       2.748784        74.7982 
 367   0.0000       2.765093        75.2420 
 368   0.0000       2.775517        75.5257 
 369   0.0000       2.793150        76.0055 
 370   0.0000       2.805821        76.3503 
 371   0.0000       2.808283        76.4173 
 372   0.0000       2.815612        76.6167 
 373   0.0000       2.829716        77.0005 
 374   0.0000       2.834573        77.1326 
 375   0.0000       2.843531        77.3764 
 376   0.0000       2.857952        77.7688 
 377   0.0000       2.863582        77.9220 
 378   0.0000       2.883513        78.4644 
 379   0.0000       2.888611        78.6031 
 380   0.0000       2.900764        78.9338 
 381   0.0000       2.909990        79.1849 
 382   0.0000       2.924571        79.5816 
 383   0.0000       2.930861        79.7528 
 384   0.0000       2.942921        80.0810 
 385   0.0000       2.957074        80.4661 
 386   0.0000       2.977082        81.0105 
 387   0.0000       2.988323        81.3164 
 388   0.0000       3.001415        81.6727 
 389   0.0000       3.006304        81.8057 
 390   0.0000       3.014787        82.0365 
 391   0.0000       3.026832        82.3643 
 392   0.0000       3.039299        82.7035 
 393   0.0000       3.058013        83.2128 
 394   0.0000       3.061432        83.3058 
 395   0.0000       3.068612        83.5012 
 396   0.0000       3.086399        83.9852 
 397   0.0000       3.108368        84.5830 
 398   0.0000       3.118643        84.8626 
 399   0.0000       3.132871        85.2497 
 400   0.0000       3.134044        85.2817 
 401   0.0000       3.146483        85.6201 
 402   0.0000       3.149659        85.7066 
 403   0.0000       3.163640        86.0870 
 404   0.0000       3.172487        86.3278 
 405   0.0000       3.185856        86.6916 
 406   0.0000       3.190382        86.8147 
 407   0.0000       3.201072        87.1056 
 408   0.0000       3.210250        87.3553 
 409   0.0000       3.216211        87.5175 
 410   0.0000       3.234700        88.0207 
 411   0.0000       3.247289        88.3632 
 412   0.0000       3.252503        88.5051 
 413   0.0000       3.269801        88.9758 
 414   0.0000       3.280072        89.2553 
 415   0.0000       3.289012        89.4986 
 416   0.0000       3.290318        89.5341 
 417   0.0000       3.309177        90.0473 
 418   0.0000       3.320626        90.3588 
 419   0.0000       3.335409        90.7611 
 420   0.0000       3.342158        90.9447 
 421   0.0000       3.362712        91.5040 
 422   0.0000       3.368968        91.6743 
 423   0.0000       3.382022        92.0295 
 424   0.0000       3.396261        92.4170 
 425   0.0000       3.411665        92.8361 
 426   0.0000       3.425060        93.2006 
 427   0.0000       3.428833        93.3033 
 428   0.0000       3.433442        93.4287 
 429   0.0000       3.460770        94.1723 
 430   0.0000       3.494475        95.0895 
 431   0.0000       3.501417        95.2784 
 432   0.0000       3.509496        95.4982 
 433   0.0000       3.518759        95.7503 
 434   0.0000       3.528216        96.0076 
 435   0.0000       3.531720        96.1030 
 436   0.0000       3.554886        96.7334 
 437   0.0000       3.602708        98.0347 
 438   0.0000       3.648364        99.2770 
 439   0.0000       3.658038        99.5403 
 440   0.0000       3.679225       100.1168 
 441   0.0000       3.680993       100.1649 
 442   0.0000       3.687046       100.3296 
 443   0.0000       3.692459       100.4769 
 444   0.0000       3.720923       101.2515 
 445   0.0000       3.735455       101.6469 
 446   0.0000       3.743995       101.8793 
 447   0.0000       3.755618       102.1956 
 448   0.0000       3.769933       102.5851 
 449   0.0000       3.799246       103.3827 
 450   0.0000       3.801895       103.4548 
 451   0.0000       3.806534       103.5811 
 452   0.0000       3.848995       104.7365 
 453   0.0000       3.864398       105.1556 
 454   0.0000       3.881556       105.6225 
 455   0.0000       3.899516       106.1112 
 456   0.0000       3.921156       106.7001 
 457   0.0000       3.967612       107.9642 
 458   0.0000       3.969667       108.0201 
 459   0.0000       3.976086       108.1948 
 460   0.0000       3.991396       108.6114 
 461   0.0000       4.005114       108.9847 
 462   0.0000       4.013976       109.2258 
 463   0.0000       4.031864       109.7126 
 464   0.0000       4.044155       110.0470 
 465   0.0000       4.047922       110.1496 
 466   0.0000       4.060756       110.4988 
 467   0.0000       4.066836       110.6642 
[...]
  42.    0.00117566
  43.   -0.00291251
  44.   -0.00010586
  45.    0.00334289
  46.   -0.00398787
  47.    0.00218919
  48.    0.00203300
  49.    0.00184157
  50.   -0.00773136
  51.   -0.00200325
  52.   -0.03577878
  53.    0.01311981
  54.    0.04701431
  55.    0.00422162
  56.   -0.05831135
  57.    0.01347608
  58.    0.10120166
  59.   -0.01365717
  60.   -0.00610047
  61.   -0.00194271
  62.    0.01520811
  63.   -0.00846267
  64.   -0.01249356
  65.    0.01369243
  66.   -0.00374462
  67.    0.00052759
  68.   -0.00135948
  69.    0.02259691
  70.   -0.01236450
  71.    0.00625928
  72.    0.00637897
  73.    0.08140015
  74.    0.02569345
  75.   -0.02939106
  76.   -0.02288912
  77.   -0.10709359
  78.    0.07519731
  79.   -0.00585059
  80.   -0.01549743
  81.   -0.01648962
  82.   -0.02613646
  83.   -0.00073145
  84.    0.00491114
  85.    0.00986265
  86.   -0.00568296
  87.   -0.00497071
  88.   -0.00971864
  89.    0.01187703
  90.    0.00712910
  91.   -0.01800846
  92.   -0.00224583
  93.   -0.01876834
  94.   -0.00148596
  95.    0.00753333
  96.    0.00681164
  97.    0.01898030
  98.    0.00954683
  99.    0.00752312
 100.    0.00824481
 101.    0.01963582
 102.    0.01020235
 103.    0.03740148
 104.    0.03666690
 105.   -0.03576834
 106.   -0.03650292
 107.   -0.00426167
 108.   -0.00940668
 109.   -0.03874814
 110.    0.06193802
 111.    0.05679301
 112.   -0.03360313
 113.   -0.00662277
 114.    0.05692964
 115.   -0.02867444
 116.   -0.01188957
 117.    0.05166284
 118.   -0.03837454
 119.   -0.02158967
 120.   -0.02340764
 121.    0.04196274
 122.    0.13796052
 123.    0.14251566
 124.    0.06244610
 125.    0.04840011
 126.    0.05295526
 127.   -0.02711431
 128.    0.02813475
 129.    0.03731884
 130.   -0.05129962
 131.   -0.04211553
 132.   -0.01138169
 133.    0.04036997
 134.    0.03019297
 135.    0.00063277
 136.    0.01919853
 137.    0.00447862
 138.   -0.05932182
 139.   -0.04075606
 140.   -0.01843929
 141.   -0.05547597
 142.   -0.04659811
 143.    0.05890608

Lambda that maximizes along the TS mode:       0.00000003
Searching for lambda that minimizes along all other modes
In cycle   1: lambdaN =  -0.00000358   step =   0.00000358
In cycle   2: lambdaN =  -0.00000358   step =   0.00000000
Lambda that minimizes along all other modes:  -0.00000358
The final length of the internal step   ....       0.0195
Converting the step to cartesian space:
 Initial RMS(Int)=    0.0016311146
Transforming coordinates:
 Iter   0:  RMS(Cart)=    0.0044525055 RMS(Int)=    0.0016250034
 Iter   1:  RMS(Cart)=    0.0002106486 RMS(Int)=    0.0000357354
 Iter   2:  RMS(Cart)=    0.0001102472 RMS(Int)=    0.0000171897
 Iter   3:  RMS(Cart)=    0.0000548438 RMS(Int)=    0.0000085527
 Iter   4:  RMS(Cart)=    0.0000272848 RMS(Int)=    0.0000042554
 Iter   5:  RMS(Cart)=    0.0000135749 RMS(Int)=    0.0000021172
 Iter   6:  RMS(Cart)=    0.0000067540 RMS(Int)=    0.0000010534
 Iter   7:  RMS(Cart)=    0.0000033604 RMS(Int)=    0.0000005241
 Iter   8:  RMS(Cart)=    0.0000016720 RMS(Int)=    0.0000002608
 Iter   9:  RMS(Cart)=    0.0000008319 RMS(Int)=    0.0000001298
 Iter  10:  RMS(Cart)=    0.0000004139 RMS(Int)=    0.0000000646
 Iter  11:  RMS(Cart)=    0.0000002059 RMS(Int)=    0.0000000321
 Iter  12:  RMS(Cart)=    0.0000001025 RMS(Int)=    0.0000000160
 Iter  13:  RMS(Cart)=    0.0000000510 RMS(Int)=    0.0000000080
done
Storing new coordinates                 .... done
The predicted energy change is          ....    -0.000001776
Previously predicted energy change      ....    -0.000007487
Actually observed energy change         ....    -0.000000849
Ratio of predicted to observed change   ....     0.113369333
New trust radius                        ....     0.100000000

                                .--------------------.
          ----------------------|Geometry convergence|-------------------------
          Item                value                   Tolerance       Converged
          ---------------------------------------------------------------------
          Energy change      -0.0000008488            0.0000050000      YES
          RMS gradient        0.0001698150            0.0001000000      NO
          MAX gradient        0.0013962205            0.0003000000      NO
          RMS step            0.0016311146            0.0020000000      YES
          MAX step            0.0074047443            0.0040000000      NO
          ........................................................
          Max(Bonds)      0.0012      Max(Angles)    0.15
          Max(Dihed)        0.42      Max(Improp)    0.00
          ---------------------------------------------------------------------

The optimization has not yet converged - more geometry cycles are needed


    ---------------------------------------------------------------------------
                         Redundant Internal Coordinates
                            (Angstroem and degrees)

        Definition                    Value    dE/dq     Step     New-Value  comp.(TS mode)
    ----------------------------------------------------------------------------
     1. B(C   1,C   0)                1.3855 -0.000024 -0.0000    1.3855   
     2. B(C   2,C   1)                1.3972  0.000018  0.0000    1.3972   
     3. B(C   3,C   2)                1.3925  0.000066  0.0000    1.3925   
     4. B(C   4,C   3)                1.3894 -0.000031  0.0000    1.3894   
     5. B(C   5,C   4)                1.3819  0.000046 -0.0000    1.3818   
     6. B(C   5,C   0)                1.3851  0.000034  0.0000    1.3851   
     7. B(H   6,C   1)                1.0778  0.000046 -0.0000    1.0778   
     8. B(H   7,C   3)                1.0783  0.000015 -0.0000    1.0783   
     9. B(H   8,C   5)                1.0771 -0.000009 -0.0000    1.0771   
    10. B(N   9,C   4)                1.4704  0.000020  0.0000    1.4704   
    11. B(O  10,N   9)                1.2227  0.000052 -0.0000    1.2226   
    12. B(O  11,N   9)                1.2229  0.000453 -0.0001    1.2228   
    13. B(C  12,C   2)                1.4987 -0.000041 -0.0000    1.4987   
    14. B(H  13,C  12)                1.2376  0.000082  0.0004    1.2380          0.46
    15. B(C  14,C  12)                1.5155  0.000010 -0.0000    1.5155   
    16. B(H  15,C  14)                1.0876 -0.000030 -0.0000    1.0876   
    17. B(H  16,C  14)                1.0926 -0.000017  0.0000    1.0927   
    18. B(H  17,C  14)                1.0903 -0.000015 -0.0000    1.0903   
    19. B(N  18,C  12)                1.4660  0.000038 -0.0001    1.4659   
    20. B(O  19,N  18)                1.2322  0.000134  0.0001    1.2323   
    21. B(O  20,N  18)                1.2346  0.000174  0.0000    1.2346   
    22. B(H  22,O  21)                0.9632 -0.000328  0.0001    0.9633   
    23. B(N  23,C   0)                1.4708  0.000035 -0.0000    1.4708   
    24. B(O  24,N  23)                1.2226 -0.000096  0.0000    1.2226   
    25. B(O  25,N  23)                1.2221 -0.000287  0.0000    1.2221   
    26. B(H  27,H  26)                2.1434  0.000008  0.0012    2.1446   
    27. B(H  27,O  21)                1.0103 -0.000279  0.0000    1.0103   
    28. B(O  28,H  27)                1.6187  0.000118  0.0007    1.6194   
    29. B(O  28,H  13)                1.4248  0.000156 -0.0003    1.4245          0.74
    30. B(O  28,H  26)                0.9649 -0.000086 -0.0000    0.9649   
    31. A(C   1,C   0,N  23)          118.93  0.000046   -0.00    118.93   
    32. A(C   5,C   0,N  23)          118.33 -0.000024   -0.00    118.33   
    33. A(C   1,C   0,C   5)          122.74 -0.000022    0.00    122.74   
    34. A(C   0,C   1,C   2)          119.87 -0.000014    0.00    119.87   
    35. A(C   0,C   1,H   6)          119.72  0.000012   -0.00    119.72   
    36. A(C   2,C   1,H   6)          120.41  0.000002    0.00    120.41   
    37. A(C   3,C   2,C  12)          121.44  0.000028    0.00    121.44   
    38. A(C   1,C   2,C   3)          118.39  0.000043   -0.00    118.38   
    39. A(C   1,C   2,C  12)          120.13 -0.000073    0.00    120.13   
    40. A(C   2,C   3,C   4)          119.88 -0.000033    0.00    119.88   
    41. A(C   2,C   3,H   7)          121.09  0.000017    0.00    121.10   
    42. A(C   4,C   3,H   7)          119.03  0.000016   -0.00    119.02   
    43. A(C   5,C   4,N   9)          118.41 -0.000011   -0.00    118.41   
    44. A(C   3,C   4,N   9)          118.84  0.000025    0.00    118.84   
    45. A(C   3,C   4,C   5)          122.75 -0.000014   -0.00    122.75   
    46. A(C   0,C   5,C   4)          116.37  0.000040   -0.00    116.37   
    47. A(C   0,C   5,H   8)          121.80 -0.000022    0.00    121.80   
    48. A(C   4,C   5,H   8)          121.83 -0.000017    0.00    121.83   
    49. A(C   4,N   9,O  10)          118.03 -0.000137    0.00    118.03   
    50. A(O  10,N   9,O  11)          123.97  0.000037   -0.00    123.97   
    51. A(C   4,N   9,O  11)          118.00  0.000099    0.00    118.00   
    52. A(H  13,C  12,N  18)          101.69 -0.000000    0.05    101.75   
    53. A(C   2,C  12,N  18)          111.91  0.000116    0.00    111.91   
    54. A(C  14,C  12,N  18)          112.17  0.000014   -0.00    112.16   
    55. A(H  13,C  12,C  14)          106.37  0.000050   -0.04    106.33   
    56. A(C   2,C  12,H  13)          106.71 -0.000051   -0.00    106.71   
    57. A(C   2,C  12,C  14)          116.55 -0.000120   -0.00    116.55   
    58. L(C  12,H  13,O  28,N  18, 2) 187.64  0.000392    0.09    187.74   
    59. L(C  12,H  13,O  28,N  18, 1) 181.13 -0.001396    0.02    181.14   
    60. A(H  16,C  14,H  17)          108.55 -0.000007    0.00    108.55   
    61. A(H  15,C  14,H  17)          107.98 -0.000023    0.00    107.98   
    62. A(C  12,C  14,H  17)          108.58  0.000054   -0.01    108.58   
    63. A(H  15,C  14,H  16)          108.28  0.000004    0.00    108.28   
    64. A(C  12,C  14,H  16)          113.03 -0.000056    0.00    113.03   
    65. A(C  12,C  14,H  15)          110.29  0.000028   -0.00    110.28   
    66. A(O  19,N  18,O  20)          122.01 -0.000025   -0.00    122.01   
    67. A(C  12,N  18,O  20)          119.42  0.000055    0.00    119.42   
    68. A(C  12,N  18,O  19)          118.38 -0.000029   -0.00    118.38   
    69. A(H  22,O  21,H  27)          105.06 -0.000425    0.03    105.09   
    70. A(O  24,N  23,O  25)          123.97 -0.000079    0.00    123.97   
    71. A(C   0,N  23,O  25)          118.03  0.000057   -0.00    118.03   
    72. A(C   0,N  23,O  24)          118.00  0.000022   -0.00    118.00   
    73. A(H  27,H  26,O  28)           45.39  0.000048   -0.02     45.37   
    74. A(H  26,H  27,O  28)           25.11 -0.000018   -0.02     25.09   
    75. A(O  21,H  27,H  26)          156.13 -0.000817    0.05    156.18   
    76. A(H  13,O  28,H  27)          104.66  0.000244   -0.15    104.52   
    77. A(H  26,O  28,H  27)          109.51 -0.000030    0.04    109.55   
    78. A(H  13,O  28,H  26)          105.54  0.000092   -0.10    105.43   
    79. D(H   6,C   1,C   0,C   5)   -178.74  0.000032   -0.00   -178.74   
    80. D(H   6,C   1,C   0,N  23)      0.89  0.000032   -0.01      0.88   
    81. D(C   2,C   1,C   0,C   5)      0.86  0.000002   -0.00      0.86   
    82. D(C   2,C   1,C   0,N  23)   -179.51  0.000002   -0.01   -179.52   
    83. D(C  12,C   2,C   1,H   6)      0.88  0.000019   -0.02      0.87   
    84. D(C   3,C   2,C   1,C   0)     -1.02  0.000018   -0.02     -1.04   
    85. D(C  12,C   2,C   1,C   0)   -178.72  0.000049   -0.02   -178.73   
    86. D(C   3,C   2,C   1,H   6)    178.58 -0.000012   -0.02    178.56   
    87. D(H   7,C   3,C   2,C   1)   -179.71  0.000006    0.01   -179.70   
    88. D(H   7,C   3,C   2,C  12)     -2.04 -0.000028    0.01     -2.03   
    89. D(C   4,C   3,C   2,C   1)      0.54 -0.000024    0.02      0.56   
    90. D(C   4,C   3,C   2,C  12)    178.21 -0.000057    0.02    178.23   
    91. D(N   9,C   4,C   3,C   2)    179.80  0.000019   -0.01    179.79   
    92. D(C   5,C   4,C   3,H   7)   -179.62 -0.000021    0.01   -179.61   
    93. D(C   5,C   4,C   3,C   2)      0.14  0.000008   -0.00      0.13   
    94. D(N   9,C   4,C   3,H   7)      0.05 -0.000010    0.00      0.05   
    95. D(H   8,C   5,C   4,N   9)      0.22 -0.000012   -0.00      0.22   
    96. D(C   0,C   5,C   4,N   9)   -179.99  0.000002   -0.01   -180.00   
    97. D(H   8,C   5,C   0,N  23)     -0.01 -0.000004    0.01     -0.00   
    98. D(H   8,C   5,C   0,C   1)    179.61 -0.000004    0.01    179.62   
    99. D(C   0,C   5,C   4,C   3)     -0.32  0.000012   -0.01     -0.34   
   100. D(H   8,C   5,C   4,C   3)    179.89 -0.000001   -0.01    179.88   
   101. D(C   4,C   5,C   0,N  23)   -179.81 -0.000018    0.02   -179.79   
   102. D(C   4,C   5,C   0,C   1)     -0.18 -0.000018    0.01     -0.16   
   103. D(O  11,N   9,C   4,C   5)   -179.02 -0.000039    0.19   -178.83   
   104. D(O  11,N   9,C   4,C   3)      1.30 -0.000049    0.19      1.50   
   105. D(O  10,N   9,C   4,C   5)      0.94 -0.000019    0.19      1.13   
   106. D(O  10,N   9,C   4,C   3)   -178.74 -0.000029    0.20   -178.55   
   107. D(H  13,C  12,C   2,C   3)   -137.72  0.000052    0.15   -137.57   
   108. D(H  13,C  12,C   2,C   1)     39.90  0.000020    0.16     40.06   
   109. D(C  14,C  12,C   2,C   1)    158.52 -0.000027    0.10    158.62   
   110. D(N  18,C  12,C   2,C   3)    111.86  0.000025    0.09    111.96   
   111. D(N  18,C  12,C   2,C   1)    -70.52 -0.000006    0.09    -70.42   
   112. D(C  14,C  12,C   2,C   3)    -19.10  0.000004    0.10    -19.00   
   113. D(H  17,C  14,C  12,H  13)     69.09 -0.000036   -0.09     69.00   
   114. D(H  17,C  14,C  12,C   2)    -49.72  0.000066   -0.06    -49.77   
   115. D(H  16,C  14,C  12,N  18)    -60.06 -0.000010   -0.05    -60.11   
   116. D(H  16,C  14,C  12,H  13)   -170.41 -0.000044   -0.09   -170.49   
   117. D(H  16,C  14,C  12,C   2)     70.79  0.000058   -0.05     70.73   
   118. D(H  15,C  14,C  12,N  18)     61.31 -0.000024   -0.05     61.26   
   119. D(H  15,C  14,C  12,H  13)    -49.04 -0.000058   -0.08    -49.13   
   120. D(H  17,C  14,C  12,N  18)    179.44 -0.000003   -0.05    179.39   
   121. D(H  15,C  14,C  12,C   2)   -167.85  0.000044   -0.05   -167.90   
   122. D(O  20,N  18,C  12,C  14)    162.42 -0.000113   -0.01    162.41   
   123. D(O  20,N  18,C  12,H  13)    -84.31 -0.000050   -0.03    -84.34   
   124. D(O  20,N  18,C  12,C   2)     29.26 -0.000063   -0.01     29.25   
   125. D(O  19,N  18,C  12,C  14)    -22.41 -0.000108    0.01    -22.41   
   126. D(O  19,N  18,C  12,H  13)     90.86 -0.000044   -0.01     90.84   
   127. D(O  19,N  18,C  12,C   2)   -155.58 -0.000057    0.01   -155.57   
   128. D(O  25,N  23,C   0,C   5)   -175.78  0.000120   -0.10   -175.88   
   129. D(O  25,N  23,C   0,C   1)      4.57  0.000121   -0.09      4.48   
   130. D(O  24,N  23,C   0,C   5)      4.06  0.000049   -0.10      3.96   
   131. D(O  24,N  23,C   0,C   1)   -175.59  0.000049   -0.09   -175.68   
   132. D(O  21,H  27,H  26,O  28)    178.24  0.000150   -0.10    178.14   
   133. D(H  26,H  27,O  21,H  22)    116.06 -0.000080   -0.15    115.92   
   134. D(H  26,O  28,O  21,H  22)    114.80 -0.000078   -0.23    114.57   
   135. D(H  27,O  28,C  12,N  18)    -44.75  0.000140    0.35    -44.40   
   136. D(H  27,O  28,C  12,C  14)     72.04 -0.000031    0.35     72.39   
   137. D(H  27,O  28,C  12,C   2)   -163.34  0.000201    0.32   -163.02   
   138. D(H  26,O  28,C  12,N  18)     71.26 -0.000035    0.25     71.50   
   139. D(H  26,O  28,C  12,C  14)   -171.95 -0.000206    0.24   -171.71   
   140. D(H  13,O  28,O  21,H  22)   -132.48  0.000068   -0.42   -132.91   
   141. D(H  26,O  28,C  12,C   2)    -47.33  0.000026    0.21    -47.12   
   142. D(H  13,O  28,H  27,H  26)    112.73  0.000213   -0.19    112.54   
   143. D(H  13,O  28,H  26,H  27)   -112.16 -0.000314    0.22   -111.94   
    ----------------------------------------------------------------------------




    ----------------------------------------------------------------------------
                                  WARNING !!!
       The optimization did not converge but reached the maximum number of
       optimization cycles.
       Please check your results very carefully.
    ----------------------------------------------------------------------------






    ----------------------------------------------------------------------------
                                  WARNING !!!
       The optimization did not converge but reached the maximum number of
       optimization cycles.
       Please check your results very carefully.
    ----------------------------------------------------------------------------


----------
STATISTICS
----------

For the individual parts of the NEB, NEB-CI or NEB-TS run:

Number of iterations:
     NEB                               ... 31  25.8%
     TS optimization                   ... 89  74.2%
Number of SCF / gradient calculations:
     NEB                               ... 248  73.6%
     TS optimization                   ... 89  26.4%

----------
 TIMINGS
----------

For the individual parts of the NEB, NEB-CI or NEB-TS run:

Total                                  ...    12747.988 sec
NEB                                    ...     6332.932 sec  49.7%
TS Optimization                        ...     6415.056 sec  50.3%


                            ***************************************
                            *     ORCA property calculations      *
                            ***************************************

                                    ---------------------
                                    Active property flags
                                    ---------------------
   (+) Dipole Moment


------------------------------------------------------------------------------
                       ORCA ELECTRIC PROPERTIES CALCULATION
------------------------------------------------------------------------------

Dipole Moment Calculation                       ... on
Quadrupole Moment Calculation                   ... off
Polarizability Calculation                      ... off
GBWName                                         ... neb.gbw
Electron density                                ... neb.scfp
The origin for moment calculation is the CENTER OF MASS  = (-0.935475,  0.157059 -0.791817)

-------------
DIPOLE MOMENT
-------------
                                X             Y             Z
Electronic contribution:    -17.99059      -1.20739     -14.80111
Nuclear contribution   :     14.84139      -1.40125      12.78652
                        -----------------------------------------
Total Dipole Moment    :     -3.14919      -2.60864      -2.01459
                        -----------------------------------------
Magnitude (a.u.)       :      4.55862
Magnitude (Debye)      :     11.58710



--------------------
Rotational spectrum 
--------------------
 
Rotational constants in cm-1:     0.015107     0.007489     0.005683 
Rotational constants in MHz :   452.894884   224.524570   170.385262 

 Dipole components along the rotational axes: 
x,y,z [a.u.] :     4.412286     1.028856    -0.504206 
x,y,z [Debye]:    11.215140     2.615143    -1.281590 

 

Timings for individual modules:

Sum of individual times         ...    12590.939 sec (= 209.849 min)
GTO integral calculation        ...      483.733 sec (=   8.062 min)   3.8 %
SCF iterations                  ...     4493.584 sec (=  74.893 min)  35.7 %
SCF Gradient evaluation         ...     1276.716 sec (=  21.279 min)  10.1 %
Geometry relaxation             ...        3.974 sec (=   0.066 min)   0.0 %
NEB Iterations                  ...     6332.932 sec (= 105.549 min)  50.3 %
                             ****ORCA TERMINATED NORMALLY****
TOTAL RUN TIME: 0 days 3 hours 32 minutes 35 seconds 934 msec
