
                                 *****************
                                 * O   R   C   A *
                                 *****************

                                            #,                                       
                                            ###                                      
                                            ####                                     
                                            #####                                    
                                            ######                                   
                                           ########,                                 
                                     ,,################,,,,,                         
                               ,,#################################,,                 
                          ,,##########################################,,             
                       ,#########################################, ''#####,          
                    ,#############################################,,   '####,        
                  ,##################################################,,,,####,       
                ,###########''''           ''''###############################       
              ,#####''   ,,,,##########,,,,          '''####'''          '####       
            ,##' ,,,,###########################,,,                        '##       
           ' ,,###''''                  '''############,,,                           
         ,,##''                                '''############,,,,        ,,,,,,###''
      ,#''                                            '''#######################'''  
     '                                                          ''''####''''         
             ,#######,   #######,   ,#######,      ##                                
            ,#'     '#,  ##    ##  ,#'     '#,    #''#        ######   ,####,        
            ##       ##  ##   ,#'  ##            #'  '#       #        #'  '#        
            ##       ##  #######   ##           ,######,      #####,   #    #        
            '#,     ,#'  ##    ##  '#,     ,#' ,#      #,         ##   #,  ,#        
             '#######'   ##     ##  '#######'  #'      '#     #####' # '####'        



                  #######################################################
                  #                        -***-                        #
                  #          Department of theory and spectroscopy      #
                  #    Directorship and core code : Frank Neese         #
                  #        Max Planck Institute fuer Kohlenforschung    #
                  #                Kaiser Wilhelm Platz 1               #
                  #                 D-45470 Muelheim/Ruhr               #
                  #                      Germany                        #
                  #                                                     #
                  #                  All rights reserved                #
                  #                        -***-                        #
                  #######################################################


                         Program Version 5.0.4 -  RELEASE  -


 With contributions from (in alphabetic order):
   Daniel Aravena         : Magnetic Suceptibility
   Michael Atanasov       : Ab Initio Ligand Field Theory (pilot matlab implementation)
   Alexander A. Auer      : GIAO ZORA, VPT2 properties, NMR spectrum
   Ute Becker             : Parallelization
   Giovanni Bistoni       : ED, misc. LED, open-shell LED, HFLD
   Martin Brehm           : Molecular dynamics
   Dmytro Bykov           : SCF Hessian
   Vijay G. Chilkuri      : MRCI spin determinant printing, contributions to CSF-ICE
   Dipayan Datta          : RHF DLPNO-CCSD density
   Achintya Kumar Dutta   : EOM-CC, STEOM-CC
   Dmitry Ganyushin       : Spin-Orbit,Spin-Spin,Magnetic field MRCI
   Miquel Garcia          : C-PCM and meta-GGA Hessian, CC/C-PCM, Gaussian charge scheme
   Yang Guo               : DLPNO-NEVPT2, F12-NEVPT2, CIM, IAO-localization
   Andreas Hansen         : Spin unrestricted coupled pair/coupled cluster methods
   Benjamin Helmich-Paris : MC-RPA, TRAH-SCF, COSX integrals
   Lee Huntington         : MR-EOM, pCC
   Robert Izsak           : Overlap fitted RIJCOSX, COSX-SCS-MP3, EOM
   Marcus Kettner         : VPT2
   Christian Kollmar      : KDIIS, OOCD, Brueckner-CCSD(T), CCSD density, CASPT2, CASPT2-K
   Simone Kossmann        : Meta GGA functionals, TD-DFT gradient, OOMP2, MP2 Hessian
   Martin Krupicka        : Initial AUTO-CI
   Lucas Lang             : DCDCAS
   Marvin Lechner         : AUTO-CI (C++ implementation), FIC-MRCC
   Dagmar Lenk            : GEPOL surface, SMD
   Dimitrios Liakos       : Extrapolation schemes; Compound Job, initial MDCI parallelization
   Dimitrios Manganas     : Further ROCIS development; embedding schemes
   Dimitrios Pantazis     : SARC Basis sets
   Anastasios Papadopoulos: AUTO-CI, single reference methods and gradients
   Taras Petrenko         : DFT Hessian,TD-DFT gradient, ASA, ECA, R-Raman, ABS, FL, XAS/XES, NRVS
   Peter Pinski           : DLPNO-MP2, DLPNO-MP2 Gradient
   Christoph Reimann      : Effective Core Potentials
   Marius Retegan         : Local ZFS, SOC
   Christoph Riplinger    : Optimizer, TS searches, QM/MM, DLPNO-CCSD(T), (RO)-DLPNO pert. Triples
   Tobias Risthaus        : Range-separated hybrids, TD-DFT gradient, RPA, STAB
   Michael Roemelt        : Original ROCIS implementation
   Masaaki Saitow         : Open-shell DLPNO-CCSD energy and density
   Barbara Sandhoefer     : DKH picture change effects
   Avijit Sen             : IP-ROCIS
   Kantharuban Sivalingam : CASSCF convergence, NEVPT2, FIC-MRCI
   Bernardo de Souza      : ESD, SOC TD-DFT
   Georgi Stoychev        : AutoAux, RI-MP2 NMR, DLPNO-MP2 response
   Willem Van den Heuvel  : Paramagnetic NMR
   Boris Wezisla          : Elementary symmetry handling
   Frank Wennmohs         : Technical directorship


 We gratefully acknowledge several colleagues who have allowed us to
 interface, adapt or use parts of their codes:
   Stefan Grimme, W. Hujo, H. Kruse, P. Pracht,  : VdW corrections, initial TS optimization,
                  C. Bannwarth, S. Ehlert          DFT functionals, gCP, sTDA/sTD-DF
   Ed Valeev, F. Pavosevic, A. Kumar             : LibInt (2-el integral package), F12 methods
   Garnet Chan, S. Sharma, J. Yang, R. Olivares  : DMRG
   Ulf Ekstrom                                   : XCFun DFT Library
   Mihaly Kallay                                 : mrcc  (arbitrary order and MRCC methods)
   Jiri Pittner, Ondrej Demel                    : Mk-CCSD
   Frank Weinhold                                : gennbo (NPA and NBO analysis)
   Christopher J. Cramer and Donald G. Truhlar   : smd solvation model
   Lars Goerigk                                  : TD-DFT with DH, B97 family of functionals
   V. Asgeirsson, H. Jonsson                     : NEB implementation
   FAccTs GmbH                                   : IRC, NEB, NEB-TS, DLPNO-Multilevel, CI-OPT
                                                   MM, QMMM, 2- and 3-layer-ONIOM, Crystal-QMMM,
                                                   LR-CPCM, SF, NACMEs, symmetry and pop. for TD-DFT,
                                                   nearIR, NL-DFT gradient (VV10), updates on ESD,
                                                   ML-optimized integration grids
   S Lehtola, MJT Oliveira, MAL Marques          : LibXC Library
   Liviu Ungur et al                             : ANISO software


 Your calculation uses the libint2 library for the computation of 2-el integrals
 For citations please refer to: http://libint.valeyev.net

 Your ORCA version has been built with support for libXC version: 5.1.0
 For citations please refer to: https://tddft.org/programs/libxc/

 This ORCA versions uses:
   CBLAS   interface :  Fast vector & matrix operations
   LAPACKE interface :  Fast linear algebra routines
   SCALAPACK package :  Parallel linear algebra routines
   Shared memory     :  Shared parallel matrices
   BLAS/LAPACK       :  OpenBLAS 0.3.15  USE64BITINT DYNAMIC_ARCH NO_AFFINITY Prescott SINGLE_THREADED
        Core in use  :  Prescott
   Copyright (c) 2011-2014, The OpenBLAS Project


Your calculation utilizes the atom-pairwise dispersion correction
with the Becke-Johnson damping scheme (D3BJ)
Cite in your paper:
S.Grimme, S.Ehrlich, L.Goerigk, J Comput Chem, (2011), 32, 1456–1465 
S.Grimme, J.Antony, S.Ehrlich and H.Krieg, J.Chem.Phys., 132, (2010), 154104 
   

================================================================================

----- Orbital basis set information -----
Your calculation utilizes the basis: def2-TZVP
   F. Weigend and R. Ahlrichs, Phys. Chem. Chem. Phys. 7, 3297 (2005).

----- AuxJ basis set information -----
Your calculation utilizes the auxiliary basis: def2/J
   F. Weigend, Phys. Chem. Chem. Phys. 8, 1057 (2006).

================================================================================
                                        WARNINGS
                       Please study these warnings very carefully!
================================================================================


WARNING: Geometry Optimization
  ===> : Switching off AutoStart
         For restart on a previous wavefunction, please use MOREAD

INFO   : the flag for use of the SHARK integral package has been found!

================================================================================
                                       INPUT FILE
================================================================================
NAME = /home/rudenko/mop_saddle_orca_4_serv/for_orca/CH3NO2_ch2clcoo_near_freez/orca/orca_start/start.inp
|  1> !  opt B3LYP def2-TZVP CPCM D3 
|  2> %pal nprocs 102 end
|  3> %cpcm epsilon 78.4 end 
|  4> *xyz -1 1 
|  5> C   0.57973994 -0.76362469 0.69813387
|  6> H   1.17293621 -1.12859217 -0.16894498
|  7> H   0.73605111 0.33785492 0.76576871
|  8> H   0.97374709 -1.23324771 1.6223133
|  9> N   -0.83995426 -1.03657934 0.52491079
| 10> O   -1.50837471 -1.35701815 1.49631575
| 11> O   -1.33425465 -0.9197189 -0.58774774
| 12> C   5.69815585 0.38047125 0.14629882
| 13> O   5.72489782 0.30285292 -1.0962628
| 14> O   5.7952315 -0.59284346 0.9112164
| 15> C   5.55624779 1.78459916 0.72491847
| 16> Cl   6.07210729 1.7999353 2.42551792
| 17> H   4.50299831 2.11974537 0.69821107
| 18> H   6.18176326 2.51574147 0.18721436
| 19> H   2.67468839 0.6110164 1.61738584
| 20> O   3.03161126 0.33785492 0.76576871
| 21> H   3.59715137 -0.41810632 0.97617468
| 22> *
| 23> 
| 24>                          ****END OF INPUT****
================================================================================

                       *****************************
                       * Geometry Optimization Run *
                       *****************************

Geometry optimization settings:
Update method            Update   .... BFGS
Choice of coordinates    CoordSys .... Z-matrix Internals
Initial Hessian          InHess   .... Almoef's Model

Convergence Tolerances:
Energy Change            TolE     ....  5.0000e-06 Eh
Max. Gradient            TolMAXG  ....  3.0000e-04 Eh/bohr
RMS Gradient             TolRMSG  ....  1.0000e-04 Eh/bohr
Max. Displacement        TolMAXD  ....  4.0000e-03 bohr
RMS Displacement         TolRMSD  ....  2.0000e-03 bohr
Strict Convergence                ....  False
------------------------------------------------------------------------------
                        ORCA OPTIMIZATION COORDINATE SETUP
------------------------------------------------------------------------------

The optimization will be done in new redundant internal coordinates
Making redundant internal coordinates   ...  (new redundants) done
Evaluating the initial hessian          ...  (Almloef) done
Evaluating the coordinates              ...  done
Calculating the B-matrix                .... done
Calculating the G-matrix                .... done
Diagonalizing the G-matrix              .... done
The first mode is                       ....   52
The number of degrees of freedom        ....   45

    -----------------------------------------------------------------
                    Redundant Internal Coordinates


    -----------------------------------------------------------------
         Definition                    Initial Value    Approx d2E/dq
    -----------------------------------------------------------------
      1. B(H   1,C   0)                  1.1122         0.331942   
      2. B(H   2,C   0)                  1.1146         0.329021   
      3. B(H   3,C   0)                  1.1090         0.335815   
      4. B(N   4,C   0)                  1.4560         0.439055   
      5. B(O   5,N   4)                  1.2219         0.929329   
      6. B(O   6,N   4)                  1.2231         0.925283   
      7. B(O   8,C   7)                  1.2453         0.952318   
      8. B(O   9,C   7)                  1.2417         0.964827   
      9. B(C  10,C   7)                  1.5253         0.380093   
     10. B(Cl 11,C  10)                  1.7772         0.338070   
     11. B(H  12,C  10)                  1.1056         0.340032   
     12. B(H  13,C  10)                  1.1023         0.344249   
     13. B(H  14,C   0)                  2.6690         0.001090   
     14. B(H  14,H  12)                  2.5424         0.000332   
     15. B(H  14,H   3)                  2.5089         0.000376   
     16. B(H  14,H   2)                  2.1350         0.001483   
     17. B(O  15,H  14)                  0.9629         0.514361   
     18. B(O  15,H  12)                  2.3119         0.003624   
     19. B(O  15,C   7)                  2.7379         0.003957   
     20. B(O  15,H   3)                  2.7271         0.000788   
     21. B(O  15,H   2)                  2.2956         0.003847   
     22. B(O  15,H   1)                  2.5454         0.001537   
     23. B(O  15,C   0)                  2.6888         0.004740   
     24. B(H  16,H  12)                  2.7090         0.000180   
     25. B(H  16,O  15)                  0.9673         0.506280   
     26. B(H  16,O   9)                  2.2060         0.005347   
     27. B(H  16,C   7)                  2.3960         0.002971   
     28. B(H  16,H   1)                  2.7736         0.000142   
     29. A(H   2,C   0,O  15)           57.7062         0.174098   
     30. A(N   4,C   0,O  15)          165.6779         0.193167   
     31. A(H   3,C   0,O  15)           80.1271         0.174493   
     32. A(H   3,C   0,N   4)          111.4796         0.327276   
     33. A(H   1,C   0,H   3)          108.7379         0.284047   
     34. A(H   1,C   0,H   2)          107.2663         0.283147   
     35. A(H   2,C   0,H   3)          108.5477         0.283657   
     36. A(H   1,C   0,N   4)          111.4561         0.326651   
     37. A(H   2,C   0,N   4)          109.2217         0.326176   
     38. A(H   1,C   0,O  15)           70.5896         0.174269   
     39. A(C   0,N   4,O   5)          119.2061         0.430136   
     40. A(O   5,N   4,O   6)          121.8148         0.489448   
     41. A(C   0,N   4,O   6)          118.9706         0.429800   
     42. A(C  10,C   7,O  15)           80.6703         0.186591   
     43. A(O   9,C   7,O  15)           85.6736         0.208506   
     44. A(O   9,C   7,C  10)          119.6808         0.427600   
     45. A(O   8,C   7,C  10)          115.9701         0.426601   
     46. A(O   8,C   7,O   9)          124.3425         0.502411   
     47. A(O   8,C   7,O  15)          104.2239         0.208153   
     48. A(C   7,C  10,H  12)          111.0093         0.322196   
     49. A(C   7,C  10,Cl 11)          110.1172         0.373805   
     50. A(Cl 11,C  10,H  12)          107.2788         0.329193   
     51. A(H  12,C  10,H  13)          109.1326         0.286217   
     52. A(Cl 11,C  10,H  13)          107.2387         0.329864   
     53. A(C   7,C  10,H  13)          111.8866         0.322847   
     54. A(C   7,O  15,H  16)           59.4648         0.178014   
     55. A(C   7,O  15,H  14)          123.8268         0.178334   
     56. A(C   0,O  15,H  16)          102.6193         0.181724   
     57. A(C   0,O  15,H  14)           78.4897         0.182057   
     58. A(C   0,O  15,C   7)          152.7248         0.124880   
     59. A(H  14,O  15,H  16)          104.2435         0.319867   
     60. D(O   6,N   4,C   0,H   3)   -159.9502         0.018738   
     61. D(O   5,N   4,C   0,O  15)   -121.7028         0.018738   
     62. D(O   6,N   4,C   0,H   2)     80.1017         0.018738   
     63. D(O   5,N   4,C   0,H   3)     21.0849         0.018738   
     64. D(O   5,N   4,C   0,H   1)    142.7920         0.018738   
     65. D(O   6,N   4,C   0,H   1)    -38.2432         0.018738   
     66. D(O   5,N   4,C   0,H   2)    -98.8632         0.018738   
     67. D(O   6,N   4,C   0,O  15)     57.2621         0.018738   
     68. D(Cl 11,C  10,C   7,O   9)     18.0362         0.012209   
     69. D(H  12,C  10,C   7,O   8)     80.2763         0.012209   
     70. D(H  12,C  10,C   7,O  15)    -21.0824         0.012209   
     71. D(H  13,C  10,C   7,O   8)    -41.9085         0.012209   
     72. D(Cl 11,C  10,C   7,O  15)     97.5715         0.012209   
     73. D(H  12,C  10,C   7,O   9)   -100.6177         0.012209   
     74. D(H  13,C  10,C   7,O  15)   -143.2672         0.012209   
     75. D(H  13,C  10,C   7,O   9)    137.1975         0.012209   
     76. D(Cl 11,C  10,C   7,O   8)   -161.0698         0.012209   
     77. D(H  14,O  15,C   7,O   8)   -163.3072         0.001502   
     78. D(C   7,O  15,C   0,N   4)   -124.6430         0.001502   
     79. D(C   7,O  15,C   0,H   3)     90.1928         0.001502   
     80. D(C   7,O  15,C   0,H   1)    -23.8264         0.001502   
     81. D(H  16,O  15,C   0,N   4)   -170.0633         0.001502   
     82. D(H  16,O  15,C   0,H   3)     44.7725         0.001502   
     83. D(H  16,O  15,C   0,H   2)    164.2417         0.001502   
     84. D(H  16,O  15,C   0,H   1)    -69.2468         0.001502   
     85. D(C   7,O  15,C   0,H   2)   -150.3380         0.001502   
     86. D(H  14,O  15,C   0,N   4)     87.7136         0.001502   
     87. D(H  14,O  15,C   0,H   3)    -57.4506         0.001502   
     88. D(H  14,O  15,C   0,H   2)     62.0186         0.001502   
     89. D(H  14,O  15,C   7,O   9)     72.3276         0.001502   
     90. D(C   0,O  15,C   7,O   8)     55.8379         0.001502   
     91. D(H  14,O  15,C   0,H   1)   -171.4698         0.001502   
     92. D(H  16,O  15,C   7,C  10)   -135.7673         0.001502   
     93. D(H  16,O  15,C   7,O   9)    -14.7252         0.001502   
     94. D(H  16,O  15,C   7,O   8)    109.6401         0.001502   
     95. D(C   0,O  15,C   7,O   9)    -68.5274         0.001502   
     96. D(C   0,O  15,C   7,C  10)    170.4304         0.001502   
     97. D(H  14,O  15,C   7,C  10)    -48.7146         0.001502   
    -----------------------------------------------------------------

Number of atoms                         .... 17
Number of degrees of freedom            .... 97

         *************************************************************
         *                GEOMETRY OPTIMIZATION CYCLE   1            *
         *************************************************************
---------------------------------
CARTESIAN COORDINATES (ANGSTROEM)
---------------------------------
  C      0.579740   -0.763625    0.698134
  H      1.172936   -1.128592   -0.168945
  H      0.736051    0.337855    0.765769
  H      0.973747   -1.233248    1.622313
  N     -0.839954   -1.036579    0.524911
  O     -1.508375   -1.357018    1.496316
  O     -1.334255   -0.919719   -0.587748
  C      5.698156    0.380471    0.146299
  O      5.724898    0.302853   -1.096263
  O      5.795231   -0.592843    0.911216
  C      5.556248    1.784599    0.724918
  Cl     6.072107    1.799935    2.425518
  H      4.502998    2.119745    0.698211
  H      6.181763    2.515741    0.187214
  H      2.674688    0.611016    1.617386
  O      3.031611    0.337855    0.765769
  H      3.597151   -0.418106    0.976175

----------------------------
CARTESIAN COORDINATES (A.U.)
----------------------------
  NO LB      ZA    FRAG     MASS         X           Y           Z
   0 C     6.0000    0    12.011    1.095550   -1.443042    1.319282
   1 H     1.0000    0     1.008    2.216528   -2.132730   -0.319260
   2 H     1.0000    0     1.008    1.390935    0.638453    1.447093
   3 H     1.0000    0     1.008    1.840115   -2.330500    3.065728
   4 N     7.0000    0    14.007   -1.587284   -1.958851    0.991938
   5 O     8.0000    0    15.999   -2.850415   -2.564393    2.827627
   6 O     8.0000    0    15.999   -2.521376   -1.738017   -1.110682
   7 C     6.0000    0    12.011   10.767954    0.718986    0.276465
   8 O     8.0000    0    15.999   10.818489    0.572309   -2.071636
   9 O     8.0000    0    15.999   10.951400   -1.120312    1.721949
  10 C     6.0000    0    12.011   10.499787    3.372404    1.369897
  11 Cl   17.0000    0    35.453   11.474620    3.401385    4.583565
  12 H     1.0000    0     1.008    8.509434    4.005738    1.319428
  13 H     1.0000    0     1.008   11.681840    4.754062    0.353784
  14 H     1.0000    0     1.008    5.054429    1.154654    3.056416
  15 O     8.0000    0    15.999    5.728915    0.638453    1.447093
  16 H     1.0000    0     1.008    6.797631   -0.790106    1.844703

--------------------------------
INTERNAL COORDINATES (ANGSTROEM)
--------------------------------
 C      0   0   0     0.000000000000     0.00000000     0.00000000
 H      1   0   0     1.112164020420     0.00000000     0.00000000
 H      1   2   0     1.114569416723   107.26633923     0.00000000
 H      1   2   3     1.109006327304   108.73789726   242.79433592
 N      1   2   3     1.456036434268   111.45609999   119.51121198
 O      5   1   2     1.221922471045   119.20612329   142.79195548
 O      5   1   2     1.223110069607   118.97064861   321.75684775
 C      2   1   3     4.780613334005   110.47988324    51.85355989
 O      8   2   1     1.245270700534    86.26473373   207.03771637
 O      8   2   1     1.241718209063    82.36813346    81.64760888
 C      8   2   1     1.525291376918   103.15209536   322.84848447
 Cl    11   8   2     1.777184489655   110.11717188   106.67218899
 H     11   8   2     1.105608761910   111.00933061   348.01826572
 H     11   8   2     1.102254231379   111.88664769   225.83351407
 H      3   1   2     2.134990265475   106.14047562   283.48208560
 O     15   3   1     0.962944892190    86.99082931    73.81194540
 H     16  15   3     0.967255749330   104.24351007   236.75732010

---------------------------
INTERNAL COORDINATES (A.U.)
---------------------------
 C      0   0   0     0.000000000000     0.00000000     0.00000000
 H      1   0   0     2.101685414595     0.00000000     0.00000000
 H      1   2   0     2.106230954851   107.26633923     0.00000000
 H      1   2   3     2.095718239390   108.73789726   242.79433592
 N      1   2   3     2.751510101777   111.45609999   119.51121198
 O      5   1   2     2.309098827160   119.20612329   142.79195548
 O      5   1   2     2.311343063198   118.97064861   321.75684775
 C      2   1   3     9.034049953441   110.47988324    51.85355989
 O      8   2   1     2.353220586606    86.26473373   207.03771637
 O      8   2   1     2.346507350632    82.36813346    81.64760888
 C      8   2   1     2.882382976806   103.15209536   322.84848447
 Cl    11   8   2     3.358391974901   110.11717188   106.67218899
 H     11   8   2     2.089297771274   111.00933061   348.01826572
 H     11   8   2     2.082958627262   111.88664769   225.83351407
 H      3   1   2     4.034546900335   106.14047562   283.48208560
 O     15   3   1     1.819702128297    86.99082931    73.81194540
 H     16  15   3     1.827848467695   104.24351007   236.75732010

---------------------
BASIS SET INFORMATION
---------------------
There are 5 groups of distinct atoms

 Group   1 Type C   : 11s6p2d1f contracted to 5s3p2d1f pattern {62111/411/11/1}
 Group   2 Type H   : 5s1p contracted to 3s1p pattern {311/1}
 Group   3 Type N   : 11s6p2d1f contracted to 5s3p2d1f pattern {62111/411/11/1}
 Group   4 Type O   : 11s6p2d1f contracted to 5s3p2d1f pattern {62111/411/11/1}
 Group   5 Type Cl  : 14s9p3d1f contracted to 5s5p2d1f pattern {73211/51111/21/1}

Atom   0C    basis set group =>   1
Atom   1H    basis set group =>   2
Atom   2H    basis set group =>   2
Atom   3H    basis set group =>   2
Atom   4N    basis set group =>   3
Atom   5O    basis set group =>   4
Atom   6O    basis set group =>   4
Atom   7C    basis set group =>   1
Atom   8O    basis set group =>   4
Atom   9O    basis set group =>   4
Atom  10C    basis set group =>   1
Atom  11Cl   basis set group =>   5
Atom  12H    basis set group =>   2
Atom  13H    basis set group =>   2
Atom  14H    basis set group =>   2
Atom  15O    basis set group =>   4
Atom  16H    basis set group =>   2
---------------------------------
AUXILIARY/J BASIS SET INFORMATION
---------------------------------
There are 5 groups of distinct atoms

 Group   1 Type C   : 12s5p4d2f1g contracted to 6s4p3d1f1g pattern {711111/2111/211/2/1}
 Group   2 Type H   : 5s2p1d contracted to 3s1p1d pattern {311/2/1}
 Group   3 Type N   : 12s5p4d2f1g contracted to 6s4p3d1f1g pattern {711111/2111/211/2/1}
 Group   4 Type O   : 12s5p4d2f1g contracted to 6s4p3d1f1g pattern {711111/2111/211/2/1}
 Group   5 Type Cl  : 14s5p5d2f1g contracted to 8s4p3d1f1g pattern {71111111/2111/311/2/1}

Atom   0C    basis set group =>   1
Atom   1H    basis set group =>   2
Atom   2H    basis set group =>   2
Atom   3H    basis set group =>   2
Atom   4N    basis set group =>   3
Atom   5O    basis set group =>   4
Atom   6O    basis set group =>   4
Atom   7C    basis set group =>   1
Atom   8O    basis set group =>   4
Atom   9O    basis set group =>   4
Atom  10C    basis set group =>   1
Atom  11Cl   basis set group =>   5
Atom  12H    basis set group =>   2
Atom  13H    basis set group =>   2
Atom  14H    basis set group =>   2
Atom  15O    basis set group =>   4
Atom  16H    basis set group =>   2


           ************************************************************
           *        Program running with 102 parallel MPI-processes   *
           *              working on a common directory               *
           ************************************************************
------------------------------------------------------------------------------
                           ORCA GTO INTEGRAL CALCULATION
                           -- RI-GTO INTEGRALS CHOSEN --
------------------------------------------------------------------------------
------------------------------------------------------------------------------
                   ___                                                        
                  /   \      - P O W E R E D   B Y -                         
                 /     \                                                     
                 |  |  |   _    _      __       _____    __    __             
                 |  |  |  | |  | |    /  \     |  _  \  |  |  /  |          
                  \  \/   | |  | |   /    \    | | | |  |  | /  /          
                 / \  \   | |__| |  /  /\  \   | |_| |  |  |/  /          
                |  |  |   |  __  | /  /__\  \  |    /   |      \           
                |  |  |   | |  | | |   __   |  |    \   |  |\   \          
                \     /   | |  | | |  |  |  |  | |\  \  |  | \   \       
                 \___/    |_|  |_| |__|  |__|  |_| \__\ |__|  \__/        
                                                                              
                      - O R C A' S   B I G   F R I E N D -                    
                                      &                                       
                       - I N T E G R A L  F E E D E R -                       
                                                                              
 v1 FN, 2020, v2 2021                                                         
------------------------------------------------------------------------------


Reading SHARK input file /home/rudenko/mop_saddle_orca_4_serv/for_orca/CH3NO2_ch2clcoo_near_freez/orca/orca_start/start.SHARKINP.tmp ... ok
----------------------
SHARK INTEGRAL PACKAGE
----------------------

Number of atoms                             ...     17
Number of basis functions                   ...    358
Number of shells                            ...    140
Maximum angular momentum                    ...      3
Integral batch strategy                     ... SHARK/LIBINT Hybrid
RI-J (if used) integral strategy            ... SPLIT-RIJ (Revised 2003 algorithm where possible)
Printlevel                                  ...      1
Contraction scheme used                     ... SEGMENTED contraction
Coulomb Range Separation                    ... NOT USED
Exchange Range Separation                   ... NOT USED
Finite Nucleus Model                        ... NOT USED
Auxiliary Coulomb fitting basis             ... AVAILABLE
   # of basis functions in Aux-J            ...    569
   # of shells in Aux-J                     ...    187
   Maximum angular momentum in Aux-J        ...      4
Auxiliary J/K fitting basis                 ... NOT available
Auxiliary Correlation fitting basis         ... NOT available
Auxiliary 'external' fitting basis          ... NOT available
Integral threshold                          ...     2.500000e-11
Primitive cut-off                           ...     2.500000e-12
Primitive pair pre-selection threshold      ...     2.500000e-12

Calculating pre-screening integrals         ... done (  0.1 sec) Dimension = 140
Organizing shell pair data                  ... done (  0.1 sec)
Shell pair information
Total number of shell pairs                 ...      9870
Shell pairs after pre-screening             ...      7002
Total number of primitive shell pairs       ...     31380
Primitive shell pairs kept                  ...     15577
          la=0 lb=0:   1820 shell pairs
          la=1 lb=0:   2061 shell pairs
          la=1 lb=1:    606 shell pairs
          la=2 lb=0:    962 shell pairs
          la=2 lb=1:    546 shell pairs
          la=2 lb=2:    131 shell pairs
          la=3 lb=0:    459 shell pairs
          la=3 lb=1:    266 shell pairs
          la=3 lb=2:    119 shell pairs
          la=3 lb=3:     32 shell pairs

Calculating one electron integrals          ... done (  0.0 sec)
Calculating RI/J V-Matrix + Cholesky decomp.... done (  0.0 sec)
Calculating Nuclear repulsion               ... done (  0.0 sec) ENN=    578.796905060435 Eh

SHARK setup successfully completed in   0.6 seconds

Maximum memory used throughout the entire GTOINT-calculation: 21.7 MB


           ************************************************************
           *        Program running with 102 parallel MPI-processes   *
           *              working on a common directory               *
           ************************************************************
-------------------------------------------------------------------------------
                                 ORCA SCF
-------------------------------------------------------------------------------

------------
SCF SETTINGS
------------
Hamiltonian:
 Density Functional     Method          .... DFT(GTOs)
 Exchange Functional    Exchange        .... B88
   X-Alpha parameter    XAlpha          ....  0.666667
   Becke's b parameter  XBeta           ....  0.004200
 Correlation Functional Correlation     .... LYP
 LDA part of GGA corr.  LDAOpt          .... VWN-5
 Gradients option       PostSCFGGA      .... off
 Hybrid DFT is turned on
   Fraction HF Exchange ScalHFX         ....  0.200000
   Scaling of DF-GGA-X  ScalDFX         ....  0.720000
   Scaling of DF-GGA-C  ScalDFC         ....  0.810000
   Scaling of DF-LDA-C  ScalLDAC        ....  1.000000
   Perturbative correction              ....  0.000000
   Density functional embedding theory  .... OFF
   NL short-range parameter             ....  4.800000
 RI-approximation to the Coulomb term is turned on
   Number of AuxJ basis functions       .... 569
   RIJ-COSX (HFX calculated with COS-X)).... on


General Settings:
 Integral files         IntName         .... /home/rudenko/mop_saddle_orca_4_serv/for_orca/CH3NO2_ch2clcoo_near_freez/orca/orca_start/start
 Hartree-Fock type      HFTyp           .... RHF
 Total Charge           Charge          ....   -1
 Multiplicity           Mult            ....    1
 Number of Electrons    NEL             ....   90
 Basis Dimension        Dim             ....  358
 Nuclear Repulsion      ENuc            ....    578.7969050604 Eh

Convergence Acceleration:
 DIIS                   CNVDIIS         .... on
   Start iteration      DIISMaxIt       ....    12
   Startup error        DIISStart       ....  0.200000
   # of expansion vecs  DIISMaxEq       ....     5
   Bias factor          DIISBfac        ....   1.050
   Max. coefficient     DIISMaxC        ....  10.000
 Trust-Rad. Augm. Hess. CNVTRAH         .... auto
   Auto Start mean grad. ratio tolernc. ....  1.125000
   Auto Start start iteration           ....    20
   Auto Start num. interpolation iter.  ....    10
   Max. Number of Micro iterations      ....    16
   Max. Number of Macro iterations      .... Maxiter - #DIIS iter
   Number of Davidson start vectors     ....     2
   Converg. threshold I  (grad. norm)   ....   1.000e-05
   Converg. threshold II (energy diff.) ....   1.000e-08
   Grad. Scal. Fac. for Micro threshold ....   0.100
   Minimum threshold for Micro iter.    ....   0.010
   NR start threshold (gradient norm)   ....   0.001
   Initial trust radius                 ....   0.400
   Minimum AH scaling param. (alpha)    ....   1.000
   Maximum AH scaling param. (alpha)    .... 1000.000
   Orbital update algorithm             .... Taylor
   White noise on init. David. guess    .... on
   Maximum white noise                  ....   0.010
   Quad. conv. algorithm                .... NR
 SOSCF                  CNVSOSCF        .... on
   Start iteration      SOSCFMaxIt      ....   150
   Startup grad/error   SOSCFStart      ....  0.003300
 Level Shifting         CNVShift        .... on
   Level shift para.    LevelShift      ....    0.2500
   Turn off err/grad.   ShiftErr        ....    0.0010
 Zerner damping         CNVZerner       .... off
 Static damping         CNVDamp         .... on
   Fraction old density DampFac         ....    0.7000
   Max. Damping (<1)    DampMax         ....    0.9800
   Min. Damping (>=0)   DampMin         ....    0.0000
   Turn off err/grad.   DampErr         ....    0.1000
 Fernandez-Rico         CNVRico         .... off

SCF Procedure:
 Maximum # iterations   MaxIter         ....   125
 SCF integral mode      SCFMode         .... Direct
   Integral package                     .... SHARK and LIBINT hybrid scheme
 Reset frequency        DirectResetFreq ....    20
 Integral Threshold     Thresh          ....  2.500e-11 Eh
 Primitive CutOff       TCut            ....  2.500e-12 Eh

Convergence Tolerance:
 Convergence Check Mode ConvCheckMode   .... Total+1el-Energy
 Convergence forced     ConvForced      .... 0
 Energy Change          TolE            ....  1.000e-08 Eh
 1-El. energy change                    ....  1.000e-05 Eh
 Orbital Gradient       TolG            ....  1.000e-05
 Orbital Rotation angle TolX            ....  1.000e-05
 DIIS Error             TolErr          ....  5.000e-07


Diagonalization of the overlap matrix:
Smallest eigenvalue                        ... 4.644e-04
Time for diagonalization                   ...    0.054 sec
Threshold for overlap eigenvalues          ... 1.000e-08
Number of eigenvalues below threshold      ... 0
Time for construction of square roots      ...    0.075 sec
Total time needed                          ...    0.131 sec

Time for model grid setup =    0.257 sec

------------------------------
INITIAL GUESS: MODEL POTENTIAL
------------------------------
Loading Hartree-Fock densities                     ... done
Calculating cut-offs                               ... done
Initializing the effective Hamiltonian             ... done
Setting up the integral package (SHARK)            ... done
Starting the Coulomb interaction                   ... done (   0.0 sec)
Reading the grid                                   ... done
Mapping shells                                     ... done
Starting the XC term evaluation                    ... done (   0.1 sec)
  promolecular density results
     # of electrons  =     88.996403850
     EX              =    -92.518692136
     EC              =     -3.229376763
     EX+EC           =    -95.748068899
Transforming the Hamiltonian                       ... done (   0.1 sec)
Diagonalizing the Hamiltonian                      ... done (   0.2 sec)
Back transforming the eigenvectors                 ... done (   0.1 sec)
Now organizing SCF variables                       ... done
                      ------------------
                      INITIAL GUESS DONE (   0.9 sec)
                      ------------------
-------------------
DFT GRID GENERATION
-------------------

General Integration Accuracy     IntAcc      ... 4.388
Radial Grid Type                 RadialGrid  ... OptM3 with GC (2021)
Angular Grid (max. ang.)         AngularGrid ... 4 (Lebedev-302)
Angular grid pruning method      GridPruning ... 4 (adaptive)
Weight generation scheme         WeightScheme... Becke
Basis function cutoff            BFCut       ... 1.0000e-11
Integration weight cutoff        WCut        ... 1.0000e-14
Angular grids for H and He will be reduced by one unit
Partially contracted basis set               ... off
Rotationally invariant grid construction     ... off

Total number of grid points                  ...    84631
Total number of batches                      ...     1332
Average number of points per batch           ...       63
Average number of grid points per atom       ...     4978
Time for grid setup =    1.820 sec

--------------------
COSX GRID GENERATION
--------------------

GRIDX 1
-------
General Integration Accuracy     IntAcc      ... 3.816
Radial Grid Type                 RadialGrid  ... OptM3 with GC (2021)
Angular Grid (max. ang.)         AngularGrid ... 1 (Lebedev-50)
Angular grid pruning method      GridPruning ... 4 (adaptive)
Weight generation scheme         WeightScheme... Becke
Basis function cutoff            BFCut       ... 1.0000e-11
Integration weight cutoff        WCut        ... 1.0000e-14
Angular grids for H and He will be reduced by one unit
Partially contracted basis set               ... on
Rotationally invariant grid construction     ... off

Total number of grid points                  ...    10684
Total number of batches                      ...      177
Average number of points per batch           ...       60
Average number of grid points per atom       ...      628
UseSFitting                                  ... on

GRIDX 2
-------
General Integration Accuracy     IntAcc      ... 4.020
Radial Grid Type                 RadialGrid  ... OptM3 with GC (2021)
Angular Grid (max. ang.)         AngularGrid ... 2 (Lebedev-110)
Angular grid pruning method      GridPruning ... 4 (adaptive)
Weight generation scheme         WeightScheme... Becke
Basis function cutoff            BFCut       ... 1.0000e-11
Integration weight cutoff        WCut        ... 1.0000e-14
Angular grids for H and He will be reduced by one unit
Partially contracted basis set               ... on
Rotationally invariant grid construction     ... off

Total number of grid points                  ...    23799
Total number of batches                      ...      380
Average number of points per batch           ...       62
Average number of grid points per atom       ...     1400
UseSFitting                                  ... on

GRIDX 3
-------
General Integration Accuracy     IntAcc      ... 4.338
Radial Grid Type                 RadialGrid  ... OptM3 with GC (2021)
Angular Grid (max. ang.)         AngularGrid ... 3 (Lebedev-194)
Angular grid pruning method      GridPruning ... 4 (adaptive)
Weight generation scheme         WeightScheme... Becke
Basis function cutoff            BFCut       ... 1.0000e-11
Integration weight cutoff        WCut        ... 1.0000e-14
Angular grids for H and He will be reduced by one unit
Partially contracted basis set               ... on
Rotationally invariant grid construction     ... off

Total number of grid points                  ...    52964
Total number of batches                      ...      835
Average number of points per batch           ...       63
Average number of grid points per atom       ...     3116
UseSFitting                                  ... on

Time for X-Grid setup             =    2.972 sec


--------------------
CPCM SOLVATION MODEL
--------------------
CPCM parameters:
  Epsilon                                         ...      78.4000
  Refrac                                          ...       1.3300
  Rsolv                                           ...       1.3000
  Surface type                                    ... GAUSSIAN VDW
  Epsilon function type                           ...         CPCM
Radii:
 Radius for C  used is    3.8550 Bohr (=   2.0400 Ang.)
 Radius for H  used is    2.4944 Bohr (=   1.3200 Ang.)
 Radius for N  used is    3.5149 Bohr (=   1.8600 Ang.)
 Radius for O  used is    3.4469 Bohr (=   1.8240 Ang.)
 Radius for Cl used is    3.9684 Bohr (=   2.1000 Ang.)
Calculating surface                               ...        done! (  0.0s)
GEPOL surface points                              ...         1065
GEPOL Volume                                      ...    1284.3875
GEPOL Surface-area                                ...     784.2942
Calculating surface distance matrix               ...        done! (  0.4s)
Performing Cholesky decomposition & store         ...        done! (  1.2s)
Overall time for CPCM initialization              ...                 1.5s
--------------
SCF ITERATIONS
--------------
ITER       Energy         Delta-E        Max-DP      RMS-DP      [F,P]     Damp
               ***  Starting incremental Fock matrix formation  ***
  0  -1009.1258451467   0.000000000000 0.13346633  0.00145318  0.3462951 0.7000
  1  -1009.3655363095  -0.239691162729 0.14268817  0.00115506  0.1427521 0.7000
                               ***Turning on DIIS***
  2  -1009.4427825714  -0.077246261885 0.20313517  0.00169622  0.0344239 0.0000
  3  -1009.5847893541  -0.142006782740 0.12078199  0.00086608  0.0812347 0.0000
  4  -1009.6088556636  -0.024066309554 0.05325585  0.00036098  0.0165844 0.0000
                      *** Initiating the SOSCF procedure ***
                           *** Shutting down DIIS ***
                      *** Re-Reading the Fockian *** 
                      *** Removing any level shift *** 
ITER      Energy       Delta-E        Grad      Rot      Max-DP    RMS-DP
  5  -1009.61041942  -0.0015637521  0.001118  0.001118  0.019154  0.000122
               *** Restarting incremental Fock matrix formation ***
  6  -1009.61048937  -0.0000699555  0.000656  0.001389  0.012122  0.000082
  7  -1009.61048005   0.0000093200  0.001611  0.001282  0.000980  0.000013
  8  -1009.61050211  -0.0000220543  0.000149  0.000224  0.001020  0.000009
  9  -1009.61050167   0.0000004363  0.000137  0.000188  0.000329  0.000004
 10  -1009.61050244  -0.0000007747  0.000051  0.000173  0.000120  0.000002
 11  -1009.61050237   0.0000000786  0.000109  0.000130  0.000076  0.000001
 12  -1009.61050247  -0.0000001016  0.000011  0.000028  0.000038  0.000000
 13  -1009.61050246   0.0000000071  0.000015  0.000017  0.000019  0.000000
                  ***Gradient check signals convergence***
              ***Rediagonalizing the Fockian in SOSCF/NRSCF***

               *****************************************************
               *                     SUCCESS                       *
               *           SCF CONVERGED AFTER  14 CYCLES          *
               *****************************************************

Old exchange energy                            =    -18.690426588 Eh
New exchange energy                            =    -18.690415890 Eh
Exchange energy change after final integration =      0.000010699 Eh
Total energy after final integration           =  -1009.610491768 Eh
Final COS-X integration done in                =     0.625 sec

----------------
TOTAL SCF ENERGY
----------------

Total Energy       :        -1009.61049177 Eh          -27472.89818 eV

Components:
Nuclear Repulsion  :          578.79690506 Eh           15749.86449 eV
Electronic Energy  :        -1588.40739683 Eh          -43222.76267 eV
One Electron Energy:        -2552.01088199 Eh          -69443.74655 eV
Two Electron Energy:          963.60348516 Eh           26220.98388 eV
Max COSX asymmetry :            0.00000240 Eh               0.00007 eV
CPCM Dielectric    :           -0.11265290 Eh              -3.06544 eV

Virial components:
Potential Energy   :        -2016.65717657 Eh          -54876.03162 eV
Kinetic Energy     :         1007.04668480 Eh           27403.13344 eV
Virial Ratio       :            2.00254587


DFT components:
N(Alpha)           :       45.000021061782 electrons
N(Beta)            :       45.000021061782 electrons
N(Total)           :       90.000042123564 electrons
E(X)               :      -74.420691072903 Eh       
E(C)               :       -3.836370535594 Eh       
E(XC)              :      -78.257061608498 Eh       
DFET-embed. en.    :        0.000000000000 Eh       
CPCM Solvation Model Properties:
Surface-charge          :            0.97575392
Charge-correction       :           -0.00274728 Eh              -0.07476 eV
Free-energy (cav+disp)  :  This term is not implemented in the current solvation scheme

---------------
SCF CONVERGENCE
---------------

  Last Energy change         ...   -7.2433e-09  Tolerance :   1.0000e-08
  Last MAX-Density change    ...    7.5495e-15  Tolerance :   1.0000e-07
  Last RMS-Density change    ...    2.8779e-17  Tolerance :   5.0000e-09
  Last Orbital Gradient      ...    1.9359e-06  Tolerance :   1.0000e-05
  Last Orbital Rotation      ...    4.3016e-06  Tolerance :   1.0000e-05

             **** THE GBW FILE WAS UPDATED (/home/rudenko/mop_saddle_orca_4_serv/for_orca/CH3NO2_ch2clcoo_near_freez/orca/orca_start/start.gbw) ****
             **** DENSITY /home/rudenko/mop_saddle_orca_4_serv/for_orca/CH3NO2_ch2clcoo_near_freez/orca/orca_start/start.scfp WAS UPDATED ****
             **** ENERGY FILE WAS UPDATED (/home/rudenko/mop_saddle_orca_4_serv/for_orca/CH3NO2_ch2clcoo_near_freez/orca/orca_start/start.en.tmp) ****
             **** THE GBW FILE WAS UPDATED (/home/rudenko/mop_saddle_orca_4_serv/for_orca/CH3NO2_ch2clcoo_near_freez/orca/orca_start/start.gbw) ****
             **** DENSITY /home/rudenko/mop_saddle_orca_4_serv/for_orca/CH3NO2_ch2clcoo_near_freez/orca/orca_start/start.scfp WAS UPDATED ****
----------------
ORBITAL ENERGIES
----------------

  NO   OCC          E(Eh)            E(eV) 
   0   2.0000    -101.497695     -2761.8927 
   1   2.0000     -19.166426      -521.5450 
   2   2.0000     -19.165539      -521.5208 
   3   2.0000     -19.113676      -520.1096 
   4   2.0000     -19.053097      -518.4611 
   5   2.0000     -19.052813      -518.4534 
   6   2.0000     -14.555925      -396.0869 
   7   2.0000     -10.243918      -278.7512 
   8   2.0000     -10.219161      -278.0775 
   9   2.0000     -10.204439      -277.6769 
  10   2.0000      -9.430627      -256.6204 
  11   2.0000      -7.191646      -195.6946 
  12   2.0000      -7.183813      -195.4815 
  13   2.0000      -7.183656      -195.4772 
  14   2.0000      -1.241585       -33.7852 
  15   2.0000      -1.061672       -28.8896 
  16   2.0000      -1.026347       -27.9283 
  17   2.0000      -1.002975       -27.2923 
  18   2.0000      -0.929867       -25.3030 
  19   2.0000      -0.839735       -22.8503 
  20   2.0000      -0.816619       -22.2213 
  21   2.0000      -0.671371       -18.2689 
  22   2.0000      -0.619853       -16.8671 
  23   2.0000      -0.553499       -15.0615 
  24   2.0000      -0.545694       -14.8491 
  25   2.0000      -0.530791       -14.4436 
  26   2.0000      -0.522373       -14.2145 
  27   2.0000      -0.499720       -13.5981 
  28   2.0000      -0.452205       -12.3051 
  29   2.0000      -0.434281       -11.8174 
  30   2.0000      -0.425029       -11.5656 
  31   2.0000      -0.421416       -11.4673 
  32   2.0000      -0.406888       -11.0720 
  33   2.0000      -0.388198       -10.5634 
  34   2.0000      -0.381275       -10.3750 
  35   2.0000      -0.365273        -9.9396 
  36   2.0000      -0.330819        -9.0020 
  37   2.0000      -0.327417        -8.9095 
  38   2.0000      -0.304709        -8.2916 
  39   2.0000      -0.301324        -8.1994 
  40   2.0000      -0.297412        -8.0930 
  41   2.0000      -0.286393        -7.7932 
  42   2.0000      -0.247937        -6.7467 
  43   2.0000      -0.242669        -6.6034 
  44   2.0000      -0.223225        -6.0743 
  45   0.0000      -0.081236        -2.2105 
  46   0.0000       0.027745         0.7550 
  47   0.0000       0.040085         1.0908 
  48   0.0000       0.063486         1.7275 
  49   0.0000       0.079642         2.1672 
  50   0.0000       0.096147         2.6163 
  51   0.0000       0.108550         2.9538 
  52   0.0000       0.110591         3.0093 
  53   0.0000       0.134148         3.6503 
  54   0.0000       0.151790         4.1304 
  55   0.0000       0.153532         4.1778 
  56   0.0000       0.169000         4.5987 
  57   0.0000       0.172544         4.6952 
  58   0.0000       0.190467         5.1829 
  59   0.0000       0.201194         5.4748 
  60   0.0000       0.212244         5.7755 
  61   0.0000       0.228652         6.2219 
  62   0.0000       0.243414         6.6236 
  63   0.0000       0.248246         6.7551 
  64   0.0000       0.266150         7.2423 
  65   0.0000       0.288137         7.8406 
  66   0.0000       0.301525         8.2049 
  67   0.0000       0.317823         8.6484 
  68   0.0000       0.328034         8.9263 
  69   0.0000       0.339167         9.2292 
  70   0.0000       0.344935         9.3862 
  71   0.0000       0.353648         9.6232 
  72   0.0000       0.377482        10.2718 
  73   0.0000       0.389797        10.6069 
  74   0.0000       0.391024        10.6403 
  75   0.0000       0.399226        10.8635 
  76   0.0000       0.409599        11.1458 
  77   0.0000       0.413300        11.2465 
  78   0.0000       0.418217        11.3803 
  79   0.0000       0.431054        11.7296 
  80   0.0000       0.436711        11.8835 
  81   0.0000       0.441411        12.0114 
  82   0.0000       0.447714        12.1829 
  83   0.0000       0.460696        12.5362 
  84   0.0000       0.465641        12.6707 
  85   0.0000       0.476682        12.9712 
  86   0.0000       0.483206        13.1487 
  87   0.0000       0.495778        13.4908 
  88   0.0000       0.501888        13.6571 
  89   0.0000       0.503389        13.6979 
  90   0.0000       0.520833        14.1726 
  91   0.0000       0.527545        14.3552 
  92   0.0000       0.529655        14.4126 
  93   0.0000       0.541570        14.7369 
  94   0.0000       0.551415        15.0048 
  95   0.0000       0.563241        15.3266 
  96   0.0000       0.569703        15.5024 
  97   0.0000       0.581728        15.8296 
  98   0.0000       0.588487        16.0135 
  99   0.0000       0.612726        16.6731 
 100   0.0000       0.616769        16.7831 
 101   0.0000       0.644246        17.5308 
 102   0.0000       0.649718        17.6797 
 103   0.0000       0.671313        18.2673 
 104   0.0000       0.692781        18.8515 
 105   0.0000       0.709114        19.2960 
 106   0.0000       0.736176        20.0324 
 107   0.0000       0.772298        21.0153 
 108   0.0000       0.776441        21.1280 
 109   0.0000       0.789428        21.4814 
 110   0.0000       0.815959        22.2034 
 111   0.0000       0.829127        22.5617 
 112   0.0000       0.863908        23.5081 
 113   0.0000       0.890427        24.2297 
 114   0.0000       0.910401        24.7733 
 115   0.0000       0.924365        25.1533 
 116   0.0000       0.946918        25.7669 
 117   0.0000       0.968683        26.3592 
 118   0.0000       1.006860        27.3981 
 119   0.0000       1.022184        27.8151 
 120   0.0000       1.040834        28.3225 
 121   0.0000       1.053293        28.6616 
 122   0.0000       1.081618        29.4323 
 123   0.0000       1.102951        30.0128 
 124   0.0000       1.123523        30.5726 
 125   0.0000       1.153357        31.3844 
 126   0.0000       1.153968        31.4011 
 127   0.0000       1.191798        32.4305 
 128   0.0000       1.236193        33.6385 
 129   0.0000       1.252723        34.0883 
 130   0.0000       1.321922        35.9713 
 131   0.0000       1.337395        36.3924 
 132   0.0000       1.354413        36.8555 
 133   0.0000       1.378819        37.5196 
 134   0.0000       1.398314        38.0501 
 135   0.0000       1.406988        38.2861 
 136   0.0000       1.443824        39.2885 
 137   0.0000       1.470966        40.0270 
 138   0.0000       1.482250        40.3341 
 139   0.0000       1.495317        40.6896 
 140   0.0000       1.506834        41.0030 
 141   0.0000       1.516286        41.2603 
 142   0.0000       1.535675        41.7878 
 143   0.0000       1.552456        42.2445 
 144   0.0000       1.567089        42.6427 
 145   0.0000       1.576708        42.9044 
 146   0.0000       1.608143        43.7598 
 147   0.0000       1.609309        43.7915 
 148   0.0000       1.623402        44.1750 
 149   0.0000       1.641825        44.6763 
 150   0.0000       1.645992        44.7897 
 151   0.0000       1.696833        46.1732 
 152   0.0000       1.706421        46.4341 
 153   0.0000       1.710871        46.5552 
 154   0.0000       1.749138        47.5965 
 155   0.0000       1.757462        47.8230 
 156   0.0000       1.773236        48.2522 
 157   0.0000       1.781420        48.4749 
 158   0.0000       1.797116        48.9020 
 159   0.0000       1.803398        49.0730 
 160   0.0000       1.822344        49.5885 
 161   0.0000       1.835533        49.9474 
 162   0.0000       1.837653        50.0051 
 163   0.0000       1.863744        50.7151 
 164   0.0000       1.889640        51.4197 
 165   0.0000       1.911365        52.0109 
 166   0.0000       1.920172        52.2505 
 167   0.0000       1.924118        52.3579 
 168   0.0000       1.945357        52.9358 
 169   0.0000       1.948167        53.0123 
 170   0.0000       1.970633        53.6237 
 171   0.0000       2.009709        54.6870 
 172   0.0000       2.025773        55.1241 
 173   0.0000       2.031063        55.2680 
 174   0.0000       2.038730        55.4767 
 175   0.0000       2.068704        56.2923 
 176   0.0000       2.082161        56.6585 
 177   0.0000       2.102634        57.2156 
 178   0.0000       2.114576        57.5406 
 179   0.0000       2.122678        57.7610 
 180   0.0000       2.127391        57.8892 
 181   0.0000       2.146098        58.3983 
 182   0.0000       2.164436        58.8973 
 183   0.0000       2.189613        59.5824 
 184   0.0000       2.202674        59.9378 
 185   0.0000       2.208396        60.0935 
 186   0.0000       2.215249        60.2800 
 187   0.0000       2.225436        60.5572 
 188   0.0000       2.239441        60.9383 
 189   0.0000       2.245232        61.0959 
 190   0.0000       2.256595        61.4051 
 191   0.0000       2.265461        61.6463 
 192   0.0000       2.280326        62.0508 
 193   0.0000       2.293337        62.4049 
 194   0.0000       2.311013        62.8859 
 195   0.0000       2.325328        63.2754 
 196   0.0000       2.359793        64.2132 
 197   0.0000       2.373794        64.5942 
 198   0.0000       2.379146        64.7399 
 199   0.0000       2.404387        65.4267 
 200   0.0000       2.450799        66.6896 
 201   0.0000       2.483045        67.5671 
 202   0.0000       2.495028        67.8932 
 203   0.0000       2.534644        68.9712 
 204   0.0000       2.538626        69.0795 
 205   0.0000       2.543189        69.2037 
 206   0.0000       2.548177        69.3394 
 207   0.0000       2.576714        70.1159 
 208   0.0000       2.599368        70.7324 
 209   0.0000       2.634433        71.6866 
 210   0.0000       2.648034        72.0567 
 211   0.0000       2.668513        72.6139 
 212   0.0000       2.694213        73.3133 
 213   0.0000       2.714780        73.8729 
 214   0.0000       2.720193        74.0202 
 215   0.0000       2.727685        74.2241 
 216   0.0000       2.792508        75.9880 
 217   0.0000       2.812149        76.5225 
 218   0.0000       2.845737        77.4364 
 219   0.0000       2.860493        77.8380 
 220   0.0000       2.900395        78.9238 
 221   0.0000       2.914502        79.3076 
 222   0.0000       2.948839        80.2420 
 223   0.0000       2.959898        80.5429 
 224   0.0000       2.976695        81.0000 
 225   0.0000       2.988395        81.3184 
 226   0.0000       2.998993        81.6067 
 227   0.0000       3.016993        82.0965 
 228   0.0000       3.050519        83.0088 
 229   0.0000       3.056423        83.1695 
 230   0.0000       3.090924        84.1083 
 231   0.0000       3.096219        84.2524 
 232   0.0000       3.135919        85.3327 
 233   0.0000       3.140023        85.4444 
 234   0.0000       3.186864        86.7190 
 235   0.0000       3.212643        87.4205 
 236   0.0000       3.223742        87.7225 
 237   0.0000       3.238767        88.1313 
 238   0.0000       3.255857        88.5964 
 239   0.0000       3.267497        88.9131 
 240   0.0000       3.302777        89.8731 
 241   0.0000       3.331871        90.6648 
 242   0.0000       3.340400        90.8969 
 243   0.0000       3.393398        92.3391 
 244   0.0000       3.425160        93.2033 
 245   0.0000       3.447524        93.8119 
 246   0.0000       3.489399        94.9514 
 247   0.0000       3.507045        95.4315 
 248   0.0000       3.523701        95.8848 
 249   0.0000       3.546128        96.4951 
 250   0.0000       3.582861        97.4946 
 251   0.0000       3.593375        97.7807 
 252   0.0000       3.608382        98.1891 
 253   0.0000       3.686120       100.3044 
 254   0.0000       3.710795       100.9759 
 255   0.0000       3.722282       101.2884 
 256   0.0000       3.794516       103.2540 
 257   0.0000       3.814345       103.7936 
 258   0.0000       3.882989       105.6615 
 259   0.0000       3.907345       106.3243 
 260   0.0000       3.954958       107.6199 
 261   0.0000       3.973507       108.1246 
 262   0.0000       4.017400       109.3190 
 263   0.0000       4.021911       109.4418 
 264   0.0000       4.062938       110.5582 
 265   0.0000       4.088011       111.2404 
 266   0.0000       4.123200       112.1980 
 267   0.0000       4.217335       114.7595 
 268   0.0000       4.289568       116.7251 
 269   0.0000       4.304824       117.1402 
 270   0.0000       4.327557       117.7588 
 271   0.0000       4.349308       118.3507 
 272   0.0000       4.388268       119.4109 
 273   0.0000       4.524633       123.1215 
 274   0.0000       4.547593       123.7463 
 275   0.0000       4.569958       124.3549 
 276   0.0000       4.643428       126.3541 
 277   0.0000       4.689961       127.6203 
 278   0.0000       4.725632       128.5910 
 279   0.0000       4.741910       129.0339 
 280   0.0000       4.810739       130.9069 
 281   0.0000       4.912817       133.6845 
 282   0.0000       5.078349       138.1889 
 283   0.0000       5.087133       138.4279 
 284   0.0000       5.116748       139.2338 
 285   0.0000       5.118503       139.2816 
 286   0.0000       5.132789       139.6703 
 287   0.0000       5.136508       139.7715 
 288   0.0000       5.197486       141.4308 
 289   0.0000       5.212303       141.8340 
 290   0.0000       5.219901       142.0407 
 291   0.0000       5.229303       142.2966 
 292   0.0000       5.234164       142.4288 
 293   0.0000       5.272767       143.4793 
 294   0.0000       5.283355       143.7674 
 295   0.0000       5.317607       144.6994 
 296   0.0000       5.373898       146.2312 
 297   0.0000       5.410597       147.2298 
 298   0.0000       5.457079       148.4947 
 299   0.0000       5.481367       149.1556 
 300   0.0000       5.562641       151.3672 
 301   0.0000       5.583077       151.9233 
 302   0.0000       5.616731       152.8390 
 303   0.0000       5.638059       153.4194 
 304   0.0000       5.684937       154.6950 
 305   0.0000       5.699572       155.0932 
 306   0.0000       5.861490       159.4992 
 307   0.0000       5.935994       161.5266 
 308   0.0000       6.042565       164.4265 
 309   0.0000       6.089615       165.7069 
 310   0.0000       6.105983       166.1523 
 311   0.0000       6.207123       168.9044 
 312   0.0000       6.231967       169.5805 
 313   0.0000       6.255283       170.2149 
 314   0.0000       6.266115       170.5097 
 315   0.0000       6.321985       172.0300 
 316   0.0000       6.333799       172.3514 
 317   0.0000       6.349581       172.7809 
 318   0.0000       6.351772       172.8405 
 319   0.0000       6.357900       173.0072 
 320   0.0000       6.377001       173.5270 
 321   0.0000       6.409654       174.4156 
 322   0.0000       6.437116       175.1628 
 323   0.0000       6.452159       175.5722 
 324   0.0000       6.473095       176.1419 
 325   0.0000       6.490200       176.6073 
 326   0.0000       6.548141       178.1840 
 327   0.0000       6.648046       180.9025 
 328   0.0000       6.785015       184.6296 
 329   0.0000       6.835054       185.9913 
 330   0.0000       6.845590       186.2780 
 331   0.0000       6.856733       186.5812 
 332   0.0000       6.902123       187.8163 
 333   0.0000       6.908594       187.9924 
 334   0.0000       6.950819       189.1414 
 335   0.0000       6.992305       190.2703 
 336   0.0000       7.068546       192.3449 
 337   0.0000       7.090729       192.9485 
 338   0.0000       7.157253       194.7588 
 339   0.0000       7.172429       195.1717 
 340   0.0000       7.207887       196.1366 
 341   0.0000       7.220264       196.4734 
 342   0.0000       7.242900       197.0893 
 343   0.0000       7.283122       198.1838 
 344   0.0000       7.381768       200.8681 
 345   0.0000      10.743271       292.3393 
 346   0.0000      10.762074       292.8509 
 347   0.0000      11.238537       305.8161 
 348   0.0000      22.137354       602.3880 
 349   0.0000      22.316642       607.2667 
 350   0.0000      23.530416       640.2952 
 351   0.0000      25.345123       689.6759 
 352   0.0000      32.328976       879.7162 
 353   0.0000      43.426550      1181.6965 
 354   0.0000      43.859571      1193.4796 
 355   0.0000      43.876922      1193.9517 
 356   0.0000      43.921399      1195.1620 
 357   0.0000      43.935208      1195.5378 

                    ********************************
                    * MULLIKEN POPULATION ANALYSIS *
                    ********************************

-----------------------
MULLIKEN ATOMIC CHARGES
-----------------------
   0 C :   -0.292824
   1 H :    0.174412
   2 H :    0.183036
   3 H :    0.170544
   4 N :    0.445497
   5 O :   -0.356823
   6 O :   -0.357349
   7 C :    0.249615
   8 O :   -0.565168
   9 O :   -0.556394
  10 C :   -0.176865
  11 Cl:   -0.235407
  12 H :    0.151425
  13 H :    0.134889
  14 H :    0.350891
  15 O :   -0.665601
  16 H :    0.346120
Sum of atomic charges:   -1.0000000

--------------------------------
MULLIKEN REDUCED ORBITAL CHARGES
--------------------------------
  0 C s       :     3.301496  s :     3.301496
      pz      :     1.110570  p :     2.931893
      px      :     0.740494
      py      :     1.080829
      dz2     :     0.008975  d :     0.053851
      dxz     :     0.014320
      dyz     :     0.004248
      dx2y2   :     0.014955
      dxy     :     0.011353
      f0      :     0.000409  f :     0.005583
      f+1     :     0.001282
      f-1     :     0.000654
      f+2     :     0.000654
      f-2     :     0.000156
      f+3     :     0.001095
      f-3     :     0.001334
  1 H s       :     0.804407  s :     0.804407
      pz      :     0.009398  p :     0.021181
      px      :     0.006786
      py      :     0.004997
  2 H s       :     0.794796  s :     0.794796
      pz      :     0.004335  p :     0.022169
      px      :     0.004118
      py      :     0.013716
  3 H s       :     0.808565  s :     0.808565
      pz      :     0.010700  p :     0.020891
      px      :     0.004690
      py      :     0.005501
  4 N s       :     3.305720  s :     3.305720
      pz      :     0.867657  p :     2.995873
      px      :     1.053984
      py      :     1.074232
      dz2     :     0.073129  d :     0.238326
      dxz     :     0.062791
      dyz     :     0.057281
      dx2y2   :     0.024763
      dxy     :     0.020362
      f0      :     0.003847  f :     0.014583
      f+1     :     0.002585
      f-1     :     0.001785
      f+2     :     0.002752
      f-2     :     0.002212
      f+3     :     0.000701
      f-3     :     0.000703
  5 O s       :     3.879630  s :     3.879630
      pz      :     1.394879  p :     4.432935
      px      :     1.637296
      py      :     1.400760
      dz2     :     0.010024  d :     0.040980
      dxz     :     0.013408
      dyz     :     0.008942
      dx2y2   :     0.003933
      dxy     :     0.004673
      f0      :     0.000520  f :     0.003277
      f+1     :     0.001020
      f-1     :     0.000387
      f+2     :     0.000540
      f-2     :     0.000641
      f+3     :     0.000093
      f-3     :     0.000076
  6 O s       :     3.878457  s :     3.878457
      pz      :     1.251949  p :     4.434752
      px      :     1.734950
      py      :     1.447854
      dz2     :     0.014644  d :     0.040870
      dxz     :     0.012179
      dyz     :     0.010045
      dx2y2   :     0.001659
      dxy     :     0.002341
      f0      :     0.000910  f :     0.003270
      f+1     :     0.001104
      f-1     :     0.000579
      f+2     :     0.000270
      f-2     :     0.000375
      f+3     :     0.000016
      f-3     :     0.000017
  7 C s       :     3.014729  s :     3.014729
      pz      :     0.808453  p :     2.484045
      px      :     0.766670
      py      :     0.908921
      dz2     :     0.057157  d :     0.225229
      dxz     :     0.059485
      dyz     :     0.059154
      dx2y2   :     0.019734
      dxy     :     0.029700
      f0      :     0.004216  f :     0.026382
      f+1     :     0.003456
      f-1     :     0.010558
      f+2     :     0.002175
      f-2     :     0.002511
      f+3     :     0.001942
      f-3     :     0.001524
  8 O s       :     3.762231  s :     3.762231
      pz      :     1.391532  p :     4.774721
      px      :     1.562560
      py      :     1.820628
      dz2     :     0.010578  d :     0.026523
      dxz     :     0.008582
      dyz     :     0.006951
      dx2y2   :     0.000240
      dxy     :     0.000173
      f0      :     0.000604  f :     0.001693
      f+1     :     0.000543
      f-1     :     0.000505
      f+2     :     0.000020
      f-2     :     0.000017
      f+3     :     0.000002
      f-3     :     0.000002
  9 O s       :     3.769893  s :     3.769893
      pz      :     1.663125  p :     4.758212
      px      :     1.560658
      py      :     1.534429
      dz2     :     0.005283  d :     0.026610
      dxz     :     0.003342
      dyz     :     0.008114
      dx2y2   :     0.004553
      dxy     :     0.005317
      f0      :     0.000214  f :     0.001679
      f+1     :     0.000032
      f-1     :     0.000470
      f+2     :     0.000330
      f-2     :     0.000355
      f+3     :     0.000157
      f-3     :     0.000121
 10 C s       :     3.234156  s :     3.234156
      pz      :     0.752574  p :     2.847005
      px      :     1.050288
      py      :     1.044143
      dz2     :     0.024941  d :     0.089467
      dxz     :     0.017568
      dyz     :     0.024787
      dx2y2   :     0.009461
      dxy     :     0.012711
      f0      :     0.001450  f :     0.006236
      f+1     :     0.001006
      f-1     :     0.001409
      f+2     :     0.000597
      f-2     :     0.000393
      f+3     :     0.000641
      f-3     :     0.000741
 11 Cls       :     5.895561  s :     5.895561
      pz      :     3.387978  p :    11.274972
      px      :     3.917668
      py      :     3.969326
      dz2     :     0.026773  d :     0.059576
      dxz     :     0.015886
      dyz     :     0.012297
      dx2y2   :     0.003311
      dxy     :     0.001310
      f0      :     0.002096  f :     0.005298
      f+1     :     0.001543
      f-1     :     0.001033
      f+2     :     0.000363
      f-2     :     0.000199
      f+3     :     0.000027
      f-3     :     0.000036
 12 H s       :     0.825847  s :     0.825847
      pz      :     0.003394  p :     0.022728
      px      :     0.014157
      py      :     0.005177
 13 H s       :     0.843648  s :     0.843648
      pz      :     0.005883  p :     0.021462
      px      :     0.006862
      py      :     0.008718
 14 H s       :     0.602220  s :     0.602220
      pz      :     0.018869  p :     0.046890
      px      :     0.014756
      py      :     0.013265
 15 O s       :     3.798863  s :     3.798863
      pz      :     1.547176  p :     4.845303
      px      :     1.708309
      py      :     1.589819
      dz2     :     0.007448  d :     0.020162
      dxz     :     0.004041
      dyz     :     0.003432
      dx2y2   :     0.001183
      dxy     :     0.004057
      f0      :     0.000080  f :     0.001273
      f+1     :     0.000264
      f-1     :     0.000135
      f+2     :     0.000022
      f-2     :     0.000218
      f+3     :     0.000405
      f-3     :     0.000149
 16 H s       :     0.605417  s :     0.605417
      pz      :     0.011159  p :     0.048463
      px      :     0.018676
      py      :     0.018628


                     *******************************
                     * LOEWDIN POPULATION ANALYSIS *
                     *******************************

----------------------
LOEWDIN ATOMIC CHARGES
----------------------
   0 C :   -0.290091
   1 H :    0.143520
   2 H :    0.152947
   3 H :    0.139183
   4 N :   -0.069658
   5 O :   -0.063446
   6 O :   -0.066459
   7 C :   -0.767722
   8 O :   -0.117379
   9 O :   -0.118265
  10 C :   -0.495416
  11 Cl:    0.216520
  12 H :    0.130673
  13 H :    0.126039
  14 H :    0.166916
  15 O :   -0.250978
  16 H :    0.163616

-------------------------------
LOEWDIN REDUCED ORBITAL CHARGES
-------------------------------
  0 C s       :     2.874919  s :     2.874919
      pz      :     1.117954  p :     3.101398
      px      :     0.884075
      py      :     1.099369
      dz2     :     0.048288  d :     0.278328
      dxz     :     0.069175
      dyz     :     0.019305
      dx2y2   :     0.090183
      dxy     :     0.051376
      f0      :     0.002679  f :     0.035446
      f+1     :     0.006461
      f-1     :     0.003171
      f+2     :     0.003412
      f-2     :     0.003717
      f+3     :     0.007689
      f-3     :     0.008316
  1 H s       :     0.795726  s :     0.795726
      pz      :     0.028255  p :     0.060754
      px      :     0.017824
      py      :     0.014675
  2 H s       :     0.784925  s :     0.784925
      pz      :     0.012662  p :     0.062127
      px      :     0.010305
      py      :     0.039160
  3 H s       :     0.800121  s :     0.800121
      pz      :     0.031611  p :     0.060695
      px      :     0.012203
      py      :     0.016881
  4 N s       :     2.944412  s :     2.944412
      pz      :     1.103934  p :     3.296390
      px      :     1.179419
      py      :     1.013037
      dz2     :     0.242983  d :     0.754316
      dxz     :     0.218425
      dyz     :     0.155514
      dx2y2   :     0.077004
      dxy     :     0.060391
      f0      :     0.020673  f :     0.074540
      f+1     :     0.013768
      f-1     :     0.007183
      f+2     :     0.015188
      f-2     :     0.012504
      f+3     :     0.002496
      f-3     :     0.002727
  5 O s       :     3.504019  s :     3.504019
      pz      :     1.468656  p :     4.450151
      px      :     1.611527
      py      :     1.369968
      dz2     :     0.026052  d :     0.098258
      dxz     :     0.034548
      dyz     :     0.018968
      dx2y2   :     0.009309
      dxy     :     0.009381
      f0      :     0.001925  f :     0.011018
      f+1     :     0.003336
      f-1     :     0.001368
      f+2     :     0.001794
      f-2     :     0.001929
      f+3     :     0.000314
      f-3     :     0.000351
  6 O s       :     3.504712  s :     3.504712
      pz      :     1.378572  p :     4.452861
      px      :     1.671579
      py      :     1.402710
      dz2     :     0.037783  d :     0.097915
      dxz     :     0.032500
      dyz     :     0.019380
      dx2y2   :     0.004478
      dxy     :     0.003774
      f0      :     0.003270  f :     0.010971
      f+1     :     0.003814
      f-1     :     0.001744
      f+2     :     0.001072
      f-2     :     0.000927
      f+3     :     0.000079
      f-3     :     0.000065
  7 C s       :     2.782590  s :     2.782590
      pz      :     1.009659  p :     2.772558
      px      :     0.749855
      py      :     1.013044
      dz2     :     0.294876  d :     1.046022
      dxz     :     0.195193
      dyz     :     0.340836
      dx2y2   :     0.116109
      dxy     :     0.099007
      f0      :     0.026934  f :     0.166553
      f+1     :     0.020099
      f-1     :     0.065888
      f+2     :     0.015067
      f-2     :     0.017770
      f+3     :     0.010799
      f-3     :     0.009995
  8 O s       :     3.423266  s :     3.423266
      pz      :     1.498311  p :     4.627375
      px      :     1.461274
      py      :     1.667791
      dz2     :     0.029250  d :     0.061218
      dxz     :     0.012503
      dyz     :     0.019028
      dx2y2   :     0.000294
      dxy     :     0.000143
      f0      :     0.002482  f :     0.005520
      f+1     :     0.001099
      f-1     :     0.001872
      f+2     :     0.000032
      f-2     :     0.000030
      f+3     :     0.000002
      f-3     :     0.000004
  9 O s       :     3.418205  s :     3.418205
      pz      :     1.623674  p :     4.632217
      px      :     1.454945
      py      :     1.553599
      dz2     :     0.013809  d :     0.062252
      dxz     :     0.005752
      dyz     :     0.022188
      dx2y2   :     0.012902
      dxy     :     0.007601
      f0      :     0.000739  f :     0.005591
      f+1     :     0.000126
      f-1     :     0.001728
      f+2     :     0.001365
      f-2     :     0.000744
      f+3     :     0.000347
      f-3     :     0.000541
 10 C s       :     2.896791  s :     2.896791
      pz      :     0.937252  p :     3.125504
      px      :     1.089426
      py      :     1.098825
      dz2     :     0.127586  d :     0.432218
      dxz     :     0.078709
      dyz     :     0.107631
      dx2y2   :     0.060297
      dxy     :     0.057996
      f0      :     0.008536  f :     0.040903
      f+1     :     0.007563
      f-1     :     0.008089
      f+2     :     0.004124
      f-2     :     0.005095
      f+3     :     0.003635
      f-3     :     0.003860
 11 Cls       :     5.583175  s :     5.583175
      pz      :     3.360571  p :    11.087177
      px      :     3.845366
      py      :     3.881240
      dz2     :     0.043096  d :     0.101774
      dxz     :     0.028206
      dyz     :     0.022780
      dx2y2   :     0.005503
      dxy     :     0.002189
      f0      :     0.004166  f :     0.011354
      f+1     :     0.003224
      f-1     :     0.002545
      f+2     :     0.000777
      f-2     :     0.000516
      f+3     :     0.000047
      f-3     :     0.000078
 12 H s       :     0.805404  s :     0.805404
      pz      :     0.009431  p :     0.063923
      px      :     0.039691
      py      :     0.014801
 13 H s       :     0.813084  s :     0.813084
      pz      :     0.016581  p :     0.060878
      px      :     0.020756
      py      :     0.023540
 14 H s       :     0.670838  s :     0.670838
      pz      :     0.077867  p :     0.162246
      px      :     0.045904
      py      :     0.038474
 15 O s       :     3.445590  s :     3.445590
      pz      :     1.567038  p :     4.773016
      px      :     1.635997
      py      :     1.569981
      dz2     :     0.010874  d :     0.029993
      dxz     :     0.005952
      dyz     :     0.004459
      dx2y2   :     0.001474
      dxy     :     0.007234
      f0      :     0.000361  f :     0.002378
      f+1     :     0.000575
      f-1     :     0.000386
      f+2     :     0.000034
      f-2     :     0.000293
      f+3     :     0.000621
      f-3     :     0.000108
 16 H s       :     0.671030  s :     0.671030
      pz      :     0.034837  p :     0.165354
      px      :     0.060076
      py      :     0.070441


                      *****************************
                      * MAYER POPULATION ANALYSIS *
                      *****************************

  NA   - Mulliken gross atomic population
  ZA   - Total nuclear charge
  QA   - Mulliken gross atomic charge
  VA   - Mayer's total valence
  BVA  - Mayer's bonded valence
  FA   - Mayer's free valence

  ATOM       NA         ZA         QA         VA         BVA        FA
  0 C      6.2928     6.0000    -0.2928     3.8130     3.8130    -0.0000
  1 H      0.8256     1.0000     0.1744     0.9660     0.9660    -0.0000
  2 H      0.8170     1.0000     0.1830     0.9647     0.9647     0.0000
  3 H      0.8295     1.0000     0.1705     0.9661     0.9661    -0.0000
  4 N      6.5545     7.0000     0.4455     4.0854     4.0854     0.0000
  5 O      8.3568     8.0000    -0.3568     1.8822     1.8822    -0.0000
  6 O      8.3573     8.0000    -0.3573     1.8729     1.8729     0.0000
  7 C      5.7504     6.0000     0.2496     4.5736     4.5736    -0.0000
  8 O      8.5652     8.0000    -0.5652     1.8529     1.8529     0.0000
  9 O      8.5564     8.0000    -0.5564     1.8438     1.8438    -0.0000
 10 C      6.1769     6.0000    -0.1769     3.7642     3.7642     0.0000
 11 Cl    17.2354    17.0000    -0.2354     1.0452     1.0452    -0.0000
 12 H      0.8486     1.0000     0.1514     0.9832     0.9832     0.0000
 13 H      0.8651     1.0000     0.1349     0.9846     0.9846    -0.0000
 14 H      0.6491     1.0000     0.3509     0.8913     0.8913     0.0000
 15 O      8.6656     8.0000    -0.6656     1.8346     1.8346    -0.0000
 16 H      0.6539     1.0000     0.3461     0.9156     0.9156    -0.0000

  Mayer bond orders larger than 0.100000
B(  0-C ,  1-H ) :   0.9427 B(  0-C ,  2-H ) :   0.9273 B(  0-C ,  3-H ) :   0.9485 
B(  0-C ,  4-N ) :   0.8826 B(  4-N ,  5-O ) :   1.6008 B(  4-N ,  6-O ) :   1.5954 
B(  5-O ,  6-O ) :   0.2079 B(  7-C ,  8-O ) :   1.8385 B(  7-C ,  9-O ) :   1.8179 
B(  7-C , 10-C ) :   0.9143 B( 10-C , 11-Cl) :   1.0073 B( 10-C , 12-H ) :   0.9431 
B( 10-C , 13-H ) :   0.9549 B( 14-H , 15-O ) :   0.8818 B( 15-O , 16-H ) :   0.8596 


[...]
  6  -1009.63572457   0.0000004415  0.000173  0.000116  0.000209  0.000003
  7  -1009.63572530  -0.0000007224  0.000031  0.000116  0.000054  0.000001
  8  -1009.63572527   0.0000000267  0.000078  0.000086  0.000037  0.000000
  9  -1009.63572530  -0.0000000334  0.000003  0.000007  0.000007  0.000000
 10  -1009.63572530   0.0000000053  0.000007  0.000006  0.000005  0.000000
                  ***Gradient check signals convergence***
              ***Rediagonalizing the Fockian in SOSCF/NRSCF***

               *****************************************************
               *                     SUCCESS                       *
               *           SCF CONVERGED AFTER  11 CYCLES          *
               *****************************************************

Old exchange energy                            =    -18.683592093 Eh
New exchange energy                            =    -18.683610575 Eh
Exchange energy change after final integration =     -0.000018482 Eh
Total energy after final integration           =  -1009.635743780 Eh
Final COS-X integration done in                =     0.666 sec
Total Energy       :        -1009.63574378 Eh          -27473.58532 eV
  Last Energy change         ...   -1.5091e-09  Tolerance :   1.0000e-08
  Last MAX-Density change    ...    2.6645e-15  Tolerance :   1.0000e-07
             **** THE GBW FILE WAS UPDATED (/home/rudenko/mop_saddle_orca_4_serv/for_orca/CH3NO2_ch2clcoo_near_freez/orca/orca_start/start.gbw) ****
             **** DENSITY /home/rudenko/mop_saddle_orca_4_serv/for_orca/CH3NO2_ch2clcoo_near_freez/orca/orca_start/start.scfp WAS UPDATED ****
             **** ENERGY FILE WAS UPDATED (/home/rudenko/mop_saddle_orca_4_serv/for_orca/CH3NO2_ch2clcoo_near_freez/orca/orca_start/start.en.tmp) ****
             **** THE GBW FILE WAS UPDATED (/home/rudenko/mop_saddle_orca_4_serv/for_orca/CH3NO2_ch2clcoo_near_freez/orca/orca_start/start.gbw) ****
             **** DENSITY /home/rudenko/mop_saddle_orca_4_serv/for_orca/CH3NO2_ch2clcoo_near_freez/orca/orca_start/start.scfp WAS UPDATED ****
Total SCF time: 0 days 0 hours 0 min 27 sec 

Maximum memory used throughout the entire SCF-calculation: 80.5 MB


-------------------------------------------------------------------------------
                          DFT DISPERSION CORRECTION                            
                                                                               
                              DFTD3 V3.1  Rev 1                                
                          USING Becke-Johnson damping                          
-------------------------------------------------------------------------------
-------------------------   ----------------
Dispersion correction           -0.021223981
-------------------------   ----------------


-------------------------   --------------------
FINAL SINGLE POINT ENERGY     -1009.656967761095
-------------------------   --------------------



           ************************************************************
           *        Program running with 102 parallel MPI-processes   *
           *              working on a common directory               *
           ************************************************************
------------------------------------------------------------------------------
                         ORCA SCF GRADIENT CALCULATION
------------------------------------------------------------------------------

 ... reading COSX grid (gridx3)
Gradient of the Kohn-Sham DFT energy:
Kohn-Sham wavefunction type      ... RKS
Hartree-Fock exchange scaling    ...    0.200
Number of operators              ...    1
Number of atoms                  ...   17
Basis set dimensions             ...  358
Integral neglect threshold       ... 2.5e-11
Integral primitive cutoff        ... 2.5e-12
SHARK Integral package           ... ON

Nuc. rep. gradient       (SHARK) ... done (  0.0 sec)
HCore & Overlap gradient (SHARK) ... done (  0.2 sec)
RI-J gradient            (SHARK) ... done (  0.4 sec)
COSX-gradient                    ... done (  1.0 sec)
Exchange-correlation gradient    ... done
Dispersion correction            ... done

------------------
CARTESIAN GRADIENT
------------------

   1   C   :    0.000218621   -0.000278388   -0.000245392
   2   H   :   -0.000328265   -0.000107173    0.000232047
   3   H   :    0.000071818    0.000172179    0.000165417
   4   H   :    0.000000208    0.000418503   -0.000051695
   5   N   :    0.000240246   -0.000091506   -0.000086815
   6   O   :   -0.000185311   -0.000076069    0.000025003
   7   O   :   -0.000140631    0.000080332   -0.000069589
   8   C   :    0.000983988    0.000926574    0.001212392
   9   O   :    0.000300774    0.000076016   -0.000152690
  10   O   :   -0.000811732   -0.000816180   -0.000649706
  11   C   :   -0.000912609    0.000115375   -0.000327502
  12   Cl  :    0.000349523    0.000019263    0.000041219
  13   H   :    0.000159891    0.000148926   -0.000011623
  14   H   :   -0.000084766   -0.000293100   -0.000083420
  15   H   :    0.000545464    0.000269827    0.000470185
  16   O   :   -0.000833638    0.000118736   -0.000205820
  17   H   :    0.000177140   -0.000677946   -0.000131672

Difference to translation invariance:
           :   -0.0002492772    0.0000053702    0.0001303391

Difference to rotation invariance:
           :   -0.0005690704   -0.0006745573   -0.0000265745

Norm of the cartesian gradient     ...    0.0029973620
RMS gradient                       ...    0.0004197146
MAX gradient                       ...    0.0012123920

-------
TIMINGS
-------

Total SCF gradient time            ...        3.753 sec

One electron gradient       ....       0.171 sec  (  4.6%)
RI-J Coulomb gradient       ....       0.446 sec  ( 11.9%)
COSX gradient               ....       0.950 sec  ( 25.3%)
XC gradient                 ....       0.370 sec  (  9.9%)
CPCM gradient               ....       0.195 sec  (  5.2%)
   A-Matrix (El+Nuc)        ....       0.105 sec  (  2.8%)
   Potential                ....       0.090 sec  (  2.4%)

Maximum memory used throughout the entire SCFGRAD-calculation: 53.0 MB
------------------------------------------------------------------------------
                         ORCA GEOMETRY RELAXATION STEP
------------------------------------------------------------------------------

Reading the OPT-File                    .... done
Getting information on internals        .... done
Copying old internal coords+grads       .... done
Making the new internal coordinates     .... (new redundants).... done
Validating the new internal coordinates .... (new redundants).... done
Calculating the B-matrix                .... done
Calculating the G,G- and P matrices     .... done
Transforming gradient to internals      .... done
Projecting the internal gradient        .... done
Number of atoms                         ....  17
Number of internal coordinates          ....  97
Current Energy                          .... -1009.656967761 Eh
Current gradient norm                   ....     0.002997362 Eh/bohr
Maximum allowed component of the step   ....  0.300
Current trust radius                    ....  0.300
Updating the Hessian (BFGS)             .... done
Forming the augmented Hessian           .... done
Diagonalizing the augmented Hessian     .... done
Last element of RFO vector              ....  0.967519255
Lowest eigenvalues of augmented Hessian:
 -0.000126040  0.000261092  0.000936742  0.001772944  0.002366104
Length of the computed step             ....  0.261284031
The final length of the internal step   ....  0.261284031
Converting the step to cartesian space:
 Initial RMS(Int)=    0.0265293739
Transforming coordinates:
 Iter   0:  RMS(Cart)=    0.0683467960 RMS(Int)=    0.6382030020
 Iter   1:  RMS(Cart)=    0.0015200975 RMS(Int)=    0.0012527180
 Iter   2:  RMS(Cart)=    0.0000442908 RMS(Int)=    0.0000342133
 Iter   3:  RMS(Cart)=    0.0000024000 RMS(Int)=    0.0000016876
 Iter   4:  RMS(Cart)=    0.0000001039 RMS(Int)=    0.0000000845
 Iter   5:  RMS(Cart)=    0.0000000069 RMS(Int)=    0.0000000047
done
Storing new coordinates                 .... done

                                .--------------------.
          ----------------------|Geometry convergence|-------------------------
          Item                value                   Tolerance       Converged
          ---------------------------------------------------------------------
          Energy change      -0.0001110821            0.0000050000      NO
          RMS gradient        0.0002142799            0.0001000000      NO
          MAX gradient        0.0011610920            0.0003000000      NO
          RMS step            0.0265293739            0.0020000000      NO
          MAX step            0.0924961567            0.0040000000      NO
          ........................................................
          Max(Bonds)      0.0489      Max(Angles)    3.10
          Max(Dihed)        3.27      Max(Improp)    0.00
          ---------------------------------------------------------------------

The optimization has not yet converged - more geometry cycles are needed


    ---------------------------------------------------------------------------
                         Redundant Internal Coordinates
                            (Angstroem and degrees)

        Definition                    Value    dE/dq     Step     New-Value
    ----------------------------------------------------------------------------
     1. B(H   1,C   0)                1.0842 -0.000211 -0.0001    1.0840   
     2. B(H   2,C   0)                1.0886  0.000036  0.0000    1.0886   
     3. B(H   3,C   0)                1.0836  0.000073 -0.0006    1.0830   
     4. B(N   4,C   0)                1.4924  0.000007  0.0004    1.4928   
     5. B(O   5,N   4)                1.2210  0.000023 -0.0002    1.2208   
     6. B(O   6,N   4)                1.2214  0.000083  0.0000    1.2215   
     7. B(O   8,C   7)                1.2493  0.000357 -0.0006    1.2487   
     8. B(O   9,C   7)                1.2556  0.001161  0.0005    1.2561   
     9. B(C  10,C   7)                1.5396 -0.000358  0.0007    1.5402   
    10. B(Cl 11,C  10)                1.8168 -0.000312 -0.0015    1.8153   
    11. B(H  12,C  10)                1.0876  0.000151  0.0009    1.0884   
    12. B(H  13,C  10)                1.0861  0.000046 -0.0002    1.0859   
    13. B(H  14,C   0)                3.1596  0.000149  0.0275    3.1871   
    14. B(H  14,H  12)                3.7830 -0.000297  0.0238    3.8068   
    15. B(H  14,H   3)                2.9190 -0.000049  0.0327    2.9516   
    16. B(H  14,H   2)                2.7517  0.000087  0.0193    2.7711   
    17. B(O  15,H  14)                0.9645  0.000372  0.0004    0.9649   
    18. B(O  15,H  12)                4.1072 -0.000081  0.0153    4.1225   
    19. B(O  15,C   7)                3.5654  0.000260  0.0249    3.5903   
    20. B(O  15,H   3)                3.3349 -0.000174  0.0415    3.3764   
    21. B(O  15,H   2)                2.9809 -0.000190  0.0417    3.0226   
    22. B(O  15,H   1)                3.3120 -0.000009  0.0489    3.3609   
    23. B(O  15,C   0)                3.3637 -0.000158  0.0451    3.4088   
    24. B(H  16,H  12)                3.5344  0.000231 -0.0014    3.5330   
    25. B(H  16,O  15)                0.9872  0.000490 -0.0000    0.9872   
    26. B(H  16,O   9)                1.7412 -0.000153 -0.0014    1.7398   
    27. B(H  16,C   7)                2.6434  0.000111  0.0161    2.6595   
    28. B(H  16,H   1)                3.4156  0.000229  0.0248    3.4403   
    29. A(H   2,C   0,O  15)           60.43 -0.000017   -0.06     60.38   
    30. A(N   4,C   0,O  15)          166.75 -0.000119   -0.14    166.61   
    31. A(H   3,C   0,O  15)           79.19 -0.000017   -0.06     79.13   
    32. A(H   3,C   0,N   4)          108.41  0.000080   -0.00    108.41   
    33. A(H   1,C   0,H   3)          112.95  0.000081   -0.00    112.95   
    34. A(H   1,C   0,H   2)          110.37  0.000090    0.11    110.48   
    35. A(H   2,C   0,H   3)          110.70 -0.000118    0.07    110.77   
    36. A(H   1,C   0,N   4)          107.77 -0.000042   -0.09    107.68   
    37. A(H   2,C   0,N   4)          106.36 -0.000100   -0.10    106.26   
    38. A(H   1,C   0,O  15)           77.97  0.000081    0.33     78.30   
    39. A(C   0,N   4,O   5)          118.18  0.000311    0.01    118.19   
    40. A(O   5,N   4,O   6)          124.09 -0.000122    0.04    124.14   
    41. A(C   0,N   4,O   6)          117.71 -0.000192   -0.05    117.66   
    42. A(C  10,C   7,O  15)           91.02 -0.000118   -0.16     90.85   
    43. A(O   9,C   7,O  15)           40.01  0.000349   -1.30     38.71   
    44. A(O   9,C   7,C  10)          120.39  0.000143   -0.10    120.28   
    45. A(O   8,C   7,C  10)          112.26  0.000048    0.13    112.39   
    46. A(O   8,C   7,O   9)          127.35 -0.000190   -0.03    127.33   
    47. A(O   8,C   7,O  15)          143.36  0.000031    1.27    144.63   
    48. A(C   7,C  10,H  12)          109.54 -0.000056   -0.03    109.51   
    49. A(C   7,C  10,Cl 11)          116.18  0.000444    0.03    116.21   
    50. A(Cl 11,C  10,H  12)          106.28  0.000042   -0.07    106.21   
    51. A(H  12,C  10,H  13)          109.30  0.000118   -0.15    109.15   
    52. A(Cl 11,C  10,H  13)          105.94 -0.000143    0.13    106.07   
    53. A(C   7,C  10,H  13)          109.37 -0.000400    0.08    109.45   
    54. A(C   7,O  15,H  16)           17.89  0.000385   -1.16     16.73   
    55. A(C   7,O  15,H  14)           92.02 -0.000149    0.54     92.56   
    56. A(C   0,O  15,H  16)           97.66  0.000080   -1.60     96.06   
    57. A(C   0,O  15,H  14)           69.60  0.000178   -0.94     68.67   
    58. A(C   0,O  15,C   7)          106.67  0.000353   -3.10    103.57   
    59. A(H  14,O  15,H  16)          103.58  0.000073    0.38    103.96   
    60. D(O   6,N   4,C   0,H   3)   -158.29 -0.000157   -0.03   -158.33   
    61. D(O   5,N   4,C   0,O  15)   -100.24 -0.000015    0.70    -99.54   
    62. D(O   6,N   4,C   0,H   2)     82.64 -0.000005   -0.06     82.58   
    63. D(O   5,N   4,C   0,H   3)     23.22 -0.000063   -0.13     23.09   
    64. D(O   5,N   4,C   0,H   1)    145.79  0.000058   -0.19    145.60   
    65. D(O   6,N   4,C   0,H   1)    -35.72 -0.000036   -0.09    -35.82   
    66. D(O   5,N   4,C   0,H   2)    -95.85  0.000089   -0.15    -96.00   
    67. D(O   6,N   4,C   0,O  15)     78.26 -0.000109    0.79     79.05   
    68. D(Cl 11,C  10,C   7,O   9)      7.71 -0.000074    2.04      9.75   
    69. D(H  12,C  10,C   7,O   8)     66.91 -0.000168    1.73     68.64   
    70. D(H  12,C  10,C   7,O  15)    -84.06 -0.000142    0.11    -83.95   
    71. D(H  13,C  10,C   7,O   8)    -52.86 -0.000034    1.88    -50.99   
    72. D(Cl 11,C  10,C   7,O  15)     36.35  0.000180    0.01     36.35   
    73. D(H  12,C  10,C   7,O   9)   -112.70 -0.000396    2.14   -110.56   
    74. D(H  13,C  10,C   7,O  15)    156.17 -0.000009    0.26    156.42   
    75. D(H  13,C  10,C   7,O   9)    127.53 -0.000263    2.29    129.82   
    76. D(Cl 11,C  10,C   7,O   8)   -172.68  0.000155    1.63   -171.06   
    77. D(H  14,O  15,C   7,O   8)   -129.60  0.000036   -1.19   -130.79   
    78. D(C   7,O  15,C   0,N   4)    169.12 -0.000146   -0.52    168.60   
    79. D(C   7,O  15,C   0,H   3)     42.82 -0.000135    0.24     43.06   
    80. D(C   7,O  15,C   0,H   1)    -73.70 -0.000202    0.33    -73.38   
    81. D(H  16,O  15,C   0,N   4)   -175.05  0.000162   -1.13   -176.17   
    82. D(H  16,O  15,C   0,H   3)     58.66  0.000173   -0.37     58.29   
    83. D(H  16,O  15,C   0,H   2)   -179.88  0.000044   -0.20   -180.08   
    84. D(H  16,O  15,C   0,H   1)    -57.87  0.000106   -0.28    -58.15   
    85. D(C   7,O  15,C   0,H   2)    164.29 -0.000264    0.41    164.70   
    86. D(H  14,O  15,C   0,N   4)     83.26  0.000102   -1.98     81.28   
    87. D(H  14,O  15,C   0,H   3)    -43.04  0.000113   -1.22    -44.26   
    88. D(H  14,O  15,C   0,H   2)     78.42 -0.000016   -1.05     77.37   
    89. D(H  14,O  15,C   7,O   9)    141.57 -0.000011    1.91    143.48   
    90. D(C   0,O  15,C   7,O   8)    161.10 -0.000078   -0.70    160.40   
    91. D(H  14,O  15,C   0,H   1)   -159.57  0.000046   -1.13   -160.70   
    92. D(H  16,O  15,C   7,C  10)   -129.36  0.000063   -1.86   -131.22   
    93. D(H  16,O  15,C   7,O   9)     10.62  0.000093   -0.17     10.45   
    94. D(H  16,O  15,C   7,O   8)     99.45  0.000140   -3.27     96.18   
    95. D(C   0,O  15,C   7,O   9)     72.27 -0.000125    2.40     74.67   
    96. D(C   0,O  15,C   7,C  10)    -67.71 -0.000155    0.70    -67.00   
    97. D(H  14,O  15,C   7,C  10)      1.59 -0.000041    0.22      1.81   
    ----------------------------------------------------------------------------




    ----------------------------------------------------------------------------
                                  WARNING !!!
       The optimization did not converge but reached the maximum number of
       optimization cycles.
       Please check your results very carefully.
    ----------------------------------------------------------------------------



                            ***************************************
                            *     ORCA property calculations      *
                            ***************************************

                                    ---------------------
                                    Active property flags
                                    ---------------------
   (+) Dipole Moment


------------------------------------------------------------------------------
                       ORCA ELECTRIC PROPERTIES CALCULATION
------------------------------------------------------------------------------

Dipole Moment Calculation                       ... on
Quadrupole Moment Calculation                   ... off
Polarizability Calculation                      ... off
GBWName                                         ... /home/rudenko/mop_saddle_orca_4_serv/for_orca/CH3NO2_ch2clcoo_near_freez/orca/orca_start/start.gbw
Electron density                                ... /home/rudenko/mop_saddle_orca_4_serv/for_orca/CH3NO2_ch2clcoo_near_freez/orca/orca_start/start.scfp
The origin for moment calculation is the CENTER OF MASS  = ( 5.521003, -0.008232  1.593888)

-------------
DIPOLE MOMENT
-------------
                                X             Y             Z
Electronic contribution:     -1.32349      -3.39609       5.61194
Nuclear contribution   :     -1.65336       2.66749      -2.80180
                        -----------------------------------------
Total Dipole Moment    :     -2.97685      -0.72860       2.81014
                        -----------------------------------------
Magnitude (a.u.)       :      4.15805
Magnitude (Debye)      :     10.56892



--------------------
Rotational spectrum 
--------------------
 
Rotational constants in cm-1:     0.059522     0.010608     0.009766 
Rotational constants in MHz :  1784.412815   318.023192   292.766832 

 Dipole components along the rotational axes: 
x,y,z [a.u.] :     3.487034     2.200618    -0.535960 
x,y,z [Debye]:     8.863335     5.593527    -1.362301 

 

Timings for individual modules:

Sum of individual times         ...     2719.751 sec (=  45.329 min)
GTO integral calculation        ...      249.578 sec (=   4.160 min)   9.2 %
SCF iterations                  ...     2011.375 sec (=  33.523 min)  74.0 %
SCF Gradient evaluation         ...      457.487 sec (=   7.625 min)  16.8 %
Geometry relaxation             ...        1.311 sec (=   0.022 min)   0.0 %
                             ****ORCA TERMINATED NORMALLY****
TOTAL RUN TIME: 0 days 0 hours 49 minutes 0 seconds 954 msec
