
                                 *****************
                                 * O   R   C   A *
                                 *****************

                                            #,                                       
                                            ###                                      
                                            ####                                     
                                            #####                                    
                                            ######                                   
                                           ########,                                 
                                     ,,################,,,,,                         
                               ,,#################################,,                 
                          ,,##########################################,,             
                       ,#########################################, ''#####,          
                    ,#############################################,,   '####,        
                  ,##################################################,,,,####,       
                ,###########''''           ''''###############################       
              ,#####''   ,,,,##########,,,,          '''####'''          '####       
            ,##' ,,,,###########################,,,                        '##       
           ' ,,###''''                  '''############,,,                           
         ,,##''                                '''############,,,,        ,,,,,,###''
      ,#''                                            '''#######################'''  
     '                                                          ''''####''''         
             ,#######,   #######,   ,#######,      ##                                
            ,#'     '#,  ##    ##  ,#'     '#,    #''#        ######   ,####,        
            ##       ##  ##   ,#'  ##            #'  '#       #        #'  '#        
            ##       ##  #######   ##           ,######,      #####,   #    #        
            '#,     ,#'  ##    ##  '#,     ,#' ,#      #,         ##   #,  ,#        
             '#######'   ##     ##  '#######'  #'      '#     #####' # '####'        



                  #######################################################
                  #                        -***-                        #
                  #          Department of theory and spectroscopy      #
                  #    Directorship and core code : Frank Neese         #
                  #        Max Planck Institute fuer Kohlenforschung    #
                  #                Kaiser Wilhelm Platz 1               #
                  #                 D-45470 Muelheim/Ruhr               #
                  #                      Germany                        #
                  #                                                     #
                  #                  All rights reserved                #
                  #                        -***-                        #
                  #######################################################


                         Program Version 5.0.4 -  RELEASE  -


 With contributions from (in alphabetic order):
   Daniel Aravena         : Magnetic Suceptibility
   Michael Atanasov       : Ab Initio Ligand Field Theory (pilot matlab implementation)
   Alexander A. Auer      : GIAO ZORA, VPT2 properties, NMR spectrum
   Ute Becker             : Parallelization
   Giovanni Bistoni       : ED, misc. LED, open-shell LED, HFLD
   Martin Brehm           : Molecular dynamics
   Dmytro Bykov           : SCF Hessian
   Vijay G. Chilkuri      : MRCI spin determinant printing, contributions to CSF-ICE
   Dipayan Datta          : RHF DLPNO-CCSD density
   Achintya Kumar Dutta   : EOM-CC, STEOM-CC
   Dmitry Ganyushin       : Spin-Orbit,Spin-Spin,Magnetic field MRCI
   Miquel Garcia          : C-PCM and meta-GGA Hessian, CC/C-PCM, Gaussian charge scheme
   Yang Guo               : DLPNO-NEVPT2, F12-NEVPT2, CIM, IAO-localization
   Andreas Hansen         : Spin unrestricted coupled pair/coupled cluster methods
   Benjamin Helmich-Paris : MC-RPA, TRAH-SCF, COSX integrals
   Lee Huntington         : MR-EOM, pCC
   Robert Izsak           : Overlap fitted RIJCOSX, COSX-SCS-MP3, EOM
   Marcus Kettner         : VPT2
   Christian Kollmar      : KDIIS, OOCD, Brueckner-CCSD(T), CCSD density, CASPT2, CASPT2-K
   Simone Kossmann        : Meta GGA functionals, TD-DFT gradient, OOMP2, MP2 Hessian
   Martin Krupicka        : Initial AUTO-CI
   Lucas Lang             : DCDCAS
   Marvin Lechner         : AUTO-CI (C++ implementation), FIC-MRCC
   Dagmar Lenk            : GEPOL surface, SMD
   Dimitrios Liakos       : Extrapolation schemes; Compound Job, initial MDCI parallelization
   Dimitrios Manganas     : Further ROCIS development; embedding schemes
   Dimitrios Pantazis     : SARC Basis sets
   Anastasios Papadopoulos: AUTO-CI, single reference methods and gradients
   Taras Petrenko         : DFT Hessian,TD-DFT gradient, ASA, ECA, R-Raman, ABS, FL, XAS/XES, NRVS
   Peter Pinski           : DLPNO-MP2, DLPNO-MP2 Gradient
   Christoph Reimann      : Effective Core Potentials
   Marius Retegan         : Local ZFS, SOC
   Christoph Riplinger    : Optimizer, TS searches, QM/MM, DLPNO-CCSD(T), (RO)-DLPNO pert. Triples
   Tobias Risthaus        : Range-separated hybrids, TD-DFT gradient, RPA, STAB
   Michael Roemelt        : Original ROCIS implementation
   Masaaki Saitow         : Open-shell DLPNO-CCSD energy and density
   Barbara Sandhoefer     : DKH picture change effects
   Avijit Sen             : IP-ROCIS
   Kantharuban Sivalingam : CASSCF convergence, NEVPT2, FIC-MRCI
   Bernardo de Souza      : ESD, SOC TD-DFT
   Georgi Stoychev        : AutoAux, RI-MP2 NMR, DLPNO-MP2 response
   Willem Van den Heuvel  : Paramagnetic NMR
   Boris Wezisla          : Elementary symmetry handling
   Frank Wennmohs         : Technical directorship


 We gratefully acknowledge several colleagues who have allowed us to
 interface, adapt or use parts of their codes:
   Stefan Grimme, W. Hujo, H. Kruse, P. Pracht,  : VdW corrections, initial TS optimization,
                  C. Bannwarth, S. Ehlert          DFT functionals, gCP, sTDA/sTD-DF
   Ed Valeev, F. Pavosevic, A. Kumar             : LibInt (2-el integral package), F12 methods
   Garnet Chan, S. Sharma, J. Yang, R. Olivares  : DMRG
   Ulf Ekstrom                                   : XCFun DFT Library
   Mihaly Kallay                                 : mrcc  (arbitrary order and MRCC methods)
   Jiri Pittner, Ondrej Demel                    : Mk-CCSD
   Frank Weinhold                                : gennbo (NPA and NBO analysis)
   Christopher J. Cramer and Donald G. Truhlar   : smd solvation model
   Lars Goerigk                                  : TD-DFT with DH, B97 family of functionals
   V. Asgeirsson, H. Jonsson                     : NEB implementation
   FAccTs GmbH                                   : IRC, NEB, NEB-TS, DLPNO-Multilevel, CI-OPT
                                                   MM, QMMM, 2- and 3-layer-ONIOM, Crystal-QMMM,
                                                   LR-CPCM, SF, NACMEs, symmetry and pop. for TD-DFT,
                                                   nearIR, NL-DFT gradient (VV10), updates on ESD,
                                                   ML-optimized integration grids
   S Lehtola, MJT Oliveira, MAL Marques          : LibXC Library
   Liviu Ungur et al                             : ANISO software


 Your calculation uses the libint2 library for the computation of 2-el integrals
 For citations please refer to: http://libint.valeyev.net

 Your ORCA version has been built with support for libXC version: 5.1.0
 For citations please refer to: https://tddft.org/programs/libxc/

 This ORCA versions uses:
   CBLAS   interface :  Fast vector & matrix operations
   LAPACKE interface :  Fast linear algebra routines
   SCALAPACK package :  Parallel linear algebra routines
   Shared memory     :  Shared parallel matrices
   BLAS/LAPACK       :  OpenBLAS 0.3.15  USE64BITINT DYNAMIC_ARCH NO_AFFINITY Prescott SINGLE_THREADED
        Core in use  :  Prescott
   Copyright (c) 2011-2014, The OpenBLAS Project


Your calculation utilizes the atom-pairwise dispersion correction
with the Becke-Johnson damping scheme (D3BJ)
Cite in your paper:
S.Grimme, S.Ehrlich, L.Goerigk, J Comput Chem, (2011), 32, 1456–1465 
S.Grimme, J.Antony, S.Ehrlich and H.Krieg, J.Chem.Phys., 132, (2010), 154104 
   

================================================================================

----- Orbital basis set information -----
Your calculation utilizes the basis: def2-TZVP
   F. Weigend and R. Ahlrichs, Phys. Chem. Chem. Phys. 7, 3297 (2005).

----- AuxJ basis set information -----
Your calculation utilizes the auxiliary basis: def2/J
   F. Weigend, Phys. Chem. Chem. Phys. 8, 1057 (2006).

================================================================================
                                        WARNINGS
                       Please study these warnings very carefully!
================================================================================


WARNING: Geometry Optimization
  ===> : Switching off AutoStart
         For restart on a previous wavefunction, please use MOREAD

INFO   : the flag for use of the SHARK integral package has been found!

================================================================================
                                       INPUT FILE
================================================================================
NAME = /home/rudenko/mop_saddle_orca_4_serv/for_orca/p-o2nc6h4chno2ch3_oh/orca/orca_start/start.inp
|  1> !  opt B3LYP def2-TZVP CPCM D3 
|  2> %pal nprocs 102 end
|  3> %cpcm epsilon 78.4 end 
|  4> *xyz -1 1 
|  5> C   -0.80163 1.17051 0.01907
|  6> C   0.54035 1.16033 0.37713
|  7> C   1.29307 -0.01788 0.28723
|  8> C   0.68731 -1.19598 -0.15115
|  9> C   -0.65869 -1.20598 -0.50678
| 10> C   -1.39351 -0.01991 -0.42119
| 11> H   -1.38705 2.09519 0.08186
| 12> H   1.00541 2.089 0.72489
| 13> H   1.2528 -2.12993 -0.22492
| 14> C   2.74452 0.03205 0.69523
| 15> H   2.82647 0.51968 1.73239
| 16> C   3.44606 -1.3177 0.75773
| 17> H   4.49308 -1.22253 1.0875
| 18> H   3.46042 -1.84483 -0.20655
| 19> H   2.94865 -1.98081 1.48567
| 20> N   3.51499 0.91132 -0.24424
| 21> O   4.68449 1.14756 0.01828
| 22> O   2.96521 1.37036 -1.23099
| 23> O   2.5427 1.26596 5.95487
| 24> H   2.20381 0.5955 6.48792
| 25> H   -1.13127 -2.13339 -0.84833
| 26> N   -2.78709 -0.02162 -0.79634
| 27> O   -3.3258 -1.0802 -1.09529
| 28> O   -3.40525 1.03586 -0.80857
| 29> H   1.60852 0.09085 3.54568
| 30> H   2.52788 0.74038 4.75983
| 31> O   2.51578 0.26073 3.71071
| 32> *
| 33> 
| 34>                          ****END OF INPUT****
================================================================================

                       *****************************
                       * Geometry Optimization Run *
                       *****************************

Geometry optimization settings:
Update method            Update   .... BFGS
Choice of coordinates    CoordSys .... Z-matrix Internals
Initial Hessian          InHess   .... Almoef's Model

Convergence Tolerances:
Energy Change            TolE     ....  5.0000e-06 Eh
Max. Gradient            TolMAXG  ....  3.0000e-04 Eh/bohr
RMS Gradient             TolRMSG  ....  1.0000e-04 Eh/bohr
Max. Displacement        TolMAXD  ....  4.0000e-03 bohr
RMS Displacement         TolRMSD  ....  2.0000e-03 bohr
Strict Convergence                ....  False
------------------------------------------------------------------------------
                        ORCA OPTIMIZATION COORDINATE SETUP
------------------------------------------------------------------------------

The optimization will be done in new redundant internal coordinates
Making redundant internal coordinates   ...  (new redundants) done
Evaluating the initial hessian          ...  (Almloef) done
Evaluating the coordinates              ...  done
Calculating the B-matrix                .... done
Calculating the G-matrix                .... done
Diagonalizing the G-matrix              .... done
Small eigenvalue found = 9.685e-03
Small eigenvalue found = 1.804e-02
Small eigenvalue found = 2.206e-02
The first mode is                       ....   61
The number of degrees of freedom        ....   75

    -----------------------------------------------------------------
                    Redundant Internal Coordinates


    -----------------------------------------------------------------
         Definition                    Initial Value    Approx d2E/dq
    -----------------------------------------------------------------
      1. B(C   1,C   0)                  1.3890         0.627179   
      2. B(C   2,C   1)                  1.4010         0.600015   
      3. B(C   3,C   2)                  1.3954         0.612604   
      4. B(C   4,C   3)                  1.3922         0.619712   
      5. B(C   5,C   4)                  1.3979         0.606985   
      6. B(C   5,C   0)                  1.4004         0.601273   
      7. B(H   6,C   0)                  1.0962         0.351969   
      8. B(H   7,C   1)                  1.0953         0.353178   
      9. B(H   8,C   3)                  1.0943         0.354462   
     10. B(C   9,C   2)                  1.5085         0.404232   
     11. B(H  10,C   9)                  1.1490         0.289930   
     12. B(C  11,C   9)                  1.5225         0.384065   
     13. B(H  12,C  11)                  1.1018         0.344770   
     14. B(H  13,C  11)                  1.0990         0.348326   
     15. B(H  14,C  11)                  1.1032         0.343067   
     16. B(N  15,C   9)                  1.4998         0.373875   
     17. B(O  16,N  15)                  1.2217         0.930221   
     18. B(O  17,N  15)                  1.2193         0.938383   
     19. B(H  19,O  18)                  0.9211         0.599736   
     20. B(H  20,C   4)                  1.0955         0.352922   
     21. B(N  21,C   5)                  1.4432         0.460267   
     22. B(O  22,N  21)                  1.2248         0.919507   
     23. B(O  23,N  21)                  1.2250         0.919005   
     24. B(H  24,H  10)                  2.2261         0.001062   
     25. B(H  25,O  18)                  1.3056         0.146081   
     26. B(O  26,H  10)                  2.0192         0.010617   
     27. B(O  26,H  25)                  1.1536         0.255295   
     28. B(O  26,H  24)                  0.9377         0.564419   
     29. A(C   1,C   0,C   5)          118.8914         0.432573   
     30. A(C   1,C   0,H   6)          120.4900         0.352233   
     31. A(C   5,C   0,H   6)          120.6185         0.349732   
     32. A(C   0,C   1,C   2)          120.5783         0.432410   
     33. A(C   0,C   1,H   7)          119.0698         0.352438   
     34. A(C   2,C   1,H   7)          120.3506         0.349811   
     35. A(C   3,C   2,C   9)          122.0468         0.401376   
     36. A(C   1,C   2,C   9)          118.1478         0.399912   
     37. A(C   1,C   2,C   3)          119.7981         0.430587   
     38. A(C   2,C   3,H   8)          121.1595         0.351255   
     39. A(C   4,C   3,H   8)          118.4410         0.351940   
     40. A(C   2,C   3,C   4)          120.3994         0.433094   
     41. A(C   3,C   4,H  20)          120.1847         0.351681   
     42. A(C   3,C   4,C   5)          119.1096         0.432377   
     43. A(C   5,C   4,H  20)          120.7056         0.350451   
     44. A(C   4,C   5,N  21)          119.3851         0.407379   
     45. A(C   0,C   5,N  21)          119.3954         0.406698   
     46. A(C   0,C   5,C   4)          121.2193         0.430037   
     47. A(C   2,C   9,H  10)          109.0751         0.317089   
     48. A(C  11,C   9,N  15)          107.9841         0.362855   
     49. A(H  10,C   9,N  15)          106.2593         0.311250   
     50. A(C   2,C   9,N  15)          110.1372         0.366045   
     51. A(H  10,C   9,C  11)          107.8382         0.314462   
     52. A(C   2,C   9,C  11)          115.1581         0.370049   
     53. A(C   9,H  10,O  26)          144.9820         0.174550   
     54. A(H  24,H  10,O  26)           24.9118         0.108216   
     55. A(C   9,H  10,H  24)          127.9162         0.130100   
     56. A(H  13,C  11,H  14)          107.2496         0.287141   
     57. A(H  12,C  11,H  14)          106.4322         0.286682   
     58. A(C   9,C  11,H  14)          110.6232         0.323216   
     59. A(H  12,C  11,H  13)          106.9538         0.287364   
     60. A(C   9,C  11,H  13)          113.2795         0.324023   
     61. A(C   9,C  11,H  12)          111.9364         0.323478   
     62. A(O  16,N  15,O  17)          122.1918         0.490811   
     63. A(C   9,N  15,O  17)          119.7371         0.418674   
     64. A(C   9,N  15,O  16)          118.0700         0.418023   
     65. A(H  19,O  18,H  25)          103.4443         0.269419   
     66. A(O  22,N  21,O  23)          121.4476         0.487871   
     67. A(C   5,N  21,O  23)          119.2657         0.432928   
     68. A(C   5,N  21,O  22)          119.2867         0.432971   
     69. A(H  10,H  24,O  26)           65.1068         0.136232   
     70. L(O  18,H  25,O  26,H  24, 2) 181.5113         0.237706   
     71. L(O  18,H  25,O  26,H  24, 1) 179.9617         0.237706   
     72. A(H  10,O  26,H  25)          146.7248         0.171153   
     73. A(H  10,O  26,H  24)           89.9814         0.187313   
     74. A(H  24,O  26,H  25)          104.2133         0.290925   
     75. D(C   2,C   1,C   0,H   6)   -179.4761         0.027258   
     76. D(H   7,C   1,C   0,H   6)      0.1037         0.027258   
     77. D(H   7,C   1,C   0,C   5)   -179.8077         0.027258   
     78. D(C   2,C   1,C   0,C   5)      0.6125         0.027258   
     79. D(C   3,C   2,C   1,H   7)    179.6919         0.024819   
     80. D(C   3,C   2,C   1,C   0)     -0.7338         0.024819   
     81. D(C   9,C   2,C   1,C   0)   -179.7726         0.024819   
     82. D(C   9,C   2,C   1,H   7)      0.6530         0.024819   
     83. D(H   8,C   3,C   2,C   1)   -179.6830         0.025932   
     84. D(H   8,C   3,C   2,C   9)     -0.6828         0.025932   
     85. D(C   4,C   3,C   2,C   9)    179.3568         0.025932   
     86. D(C   4,C   3,C   2,C   1)      0.3567         0.025932   
     87. D(C   5,C   4,C   3,H   8)   -179.8356         0.026573   
     88. D(H  20,C   4,C   3,C   2)   -179.8618         0.026573   
     89. D(C   5,C   4,C   3,C   2)      0.1258         0.026573   
     90. D(H  20,C   4,C   3,H   8)      0.1768         0.026573   
     91. D(N  21,C   5,C   4,H  20)     -0.3983         0.025431   
     92. D(N  21,C   5,C   4,C   3)    179.6142         0.025431   
     93. D(C   0,C   5,C   4,H  20)    179.7424         0.025431   
     94. D(N  21,C   5,C   0,H   6)      0.1067         0.024929   
     95. D(C   0,C   5,C   4,C   3)     -0.2451         0.025431   
     96. D(N  21,C   5,C   0,C   1)   -179.9820         0.024929   
     97. D(C   4,C   5,C   0,H   6)    179.9660         0.024929   
     98. D(C   4,C   5,C   0,C   1)     -0.1227         0.024929   
     99. D(N  15,C   9,C   2,C   3)    115.1757         0.012116   
    100. D(N  15,C   9,C   2,C   1)    -65.8084         0.012116   
    101. D(C  11,C   9,C   2,C   3)     -7.2050         0.012116   
    102. D(C  11,C   9,C   2,C   1)    171.8109         0.012116   
    103. D(H  10,C   9,C   2,C   3)   -128.5713         0.012116   
    104. D(H  10,C   9,C   2,C   1)     50.4447         0.012116   
    105. D(H  24,H  10,C   9,C   2)     46.4905         0.078707   
    106. D(O  26,H  10,C   9,N  15)   -167.8970         0.078707   
    107. D(O  26,H  10,C   9,C  11)    -52.3207         0.078707   
    108. D(O  26,H  10,C   9,C   2)     73.3982         0.078707   
    109. D(H  24,H  10,C   9,N  15)    165.1953         0.078707   
    110. D(H  24,H  10,C   9,C  11)    -79.2284         0.078707   
    111. D(H  14,C  11,C   9,N  15)    176.5827         0.011744   
    112. D(H  14,C  11,C   9,H  10)     62.1456         0.011744   
    113. D(H  14,C  11,C   9,C   2)    -59.8890         0.011744   
    114. D(H  13,C  11,C   9,N  15)    -62.9641         0.011744   
    115. D(H  13,C  11,C   9,H  10)   -177.4011         0.011744   
    116. D(H  13,C  11,C   9,C   2)     60.5642         0.011744   
    117. D(H  12,C  11,C   9,N  15)     58.0666         0.011744   
    118. D(H  12,C  11,C   9,H  10)    -56.3705         0.011744   
    119. D(H  12,C  11,C   9,C   2)   -178.4051         0.011744   
    120. D(O  17,N  15,C   9,C  11)    120.6977         0.011984   
    121. D(O  17,N  15,C   9,H  10)   -123.8248         0.011984   
    122. D(O  17,N  15,C   9,C   2)     -5.8210         0.011984   
    123. D(O  16,N  15,C   9,C  11)    -59.6720         0.011984   
    124. D(O  16,N  15,C   9,H  10)     55.8055         0.011984   
    125. D(O  16,N  15,C   9,C   2)    173.8093         0.011984   
    126. D(O  23,N  21,C   5,C   4)   -175.0246         0.016689   
    127. D(O  23,N  21,C   5,C   0)      4.8372         0.016689   
    128. D(O  22,N  21,C   5,C   4)      4.9857         0.016689   
    129. D(O  22,N  21,C   5,C   0)   -175.1524         0.016689   
    130. D(O  26,H  24,H  10,C   9)    141.9377         0.001510   
    131. D(H  25,O  26,H  24,H  10)    149.5830         0.428156   
    132. D(H  10,O  26,O  18,H  19)    175.1371         0.001506   
    133. D(H  24,O  26,O  18,H  19)     62.1200         0.001506   
    134. D(H  25,O  26,H  10,H  24)   -116.5524         0.001565   
    135. D(H  25,O  26,H  10,C   9)   -174.5033         0.001565   
    136. D(H  24,O  26,H  10,C   9)    -57.9508         0.001565   
    -----------------------------------------------------------------

Number of atoms                         .... 27
Number of degrees of freedom            .... 136

         *************************************************************
         *                GEOMETRY OPTIMIZATION CYCLE   1            *
         *************************************************************
---------------------------------
CARTESIAN COORDINATES (ANGSTROEM)
---------------------------------
  C     -0.801630    1.170510    0.019070
  C      0.540350    1.160330    0.377130
  C      1.293070   -0.017880    0.287230
  C      0.687310   -1.195980   -0.151150
  C     -0.658690   -1.205980   -0.506780
  C     -1.393510   -0.019910   -0.421190
  H     -1.387050    2.095190    0.081860
  H      1.005410    2.089000    0.724890
  H      1.252800   -2.129930   -0.224920
  C      2.744520    0.032050    0.695230
  H      2.826470    0.519680    1.732390
  C      3.446060   -1.317700    0.757730
  H      4.493080   -1.222530    1.087500
  H      3.460420   -1.844830   -0.206550
  H      2.948650   -1.980810    1.485670
  N      3.514990    0.911320   -0.244240
  O      4.684490    1.147560    0.018280
  O      2.965210    1.370360   -1.230990
  O      2.542700    1.265960    5.954870
  H      2.203810    0.595500    6.487920
  H     -1.131270   -2.133390   -0.848330
  N     -2.787090   -0.021620   -0.796340
  O     -3.325800   -1.080200   -1.095290
  O     -3.405250    1.035860   -0.808570
  H      1.608520    0.090850    3.545680
  H      2.527880    0.740380    4.759830
  O      2.515780    0.260730    3.710710

----------------------------
CARTESIAN COORDINATES (A.U.)
----------------------------
  NO LB      ZA    FRAG     MASS         X           Y           Z
   0 C     6.0000    0    12.011   -1.514861    2.211943    0.036037
   1 C     6.0000    0    12.011    1.021114    2.192706    0.712672
   2 C     6.0000    0    12.011    2.443548   -0.033788    0.542786
   3 C     6.0000    0    12.011    1.298828   -2.260075   -0.285632
   4 C     6.0000    0    12.011   -1.244744   -2.278972   -0.957675
   5 C     6.0000    0    12.011   -2.633352   -0.037624   -0.795934
   6 H     1.0000    0     1.008   -2.621145    3.959335    0.154693
   7 H     1.0000    0     1.008    1.899950    3.947638    1.369844
   8 H     1.0000    0     1.008    2.367449   -4.024984   -0.425037
   9 C     6.0000    0    12.011    5.186391    0.060566    1.313794
  10 H     1.0000    0     1.008    5.341254    0.982053    3.273743
  11 C     6.0000    0    12.011    6.512110   -2.490092    1.431902
  12 H     1.0000    0     1.008    8.490691   -2.310247    2.055077
  13 H     1.0000    0     1.008    6.539246   -3.486223   -0.390323
  14 H     1.0000    0     1.008    5.572141   -3.743188    2.807509
  15 N     7.0000    0    14.007    6.642368    1.722145   -0.461547
  16 O     8.0000    0    15.999    8.852403    2.168574    0.034544
  17 O     8.0000    0    15.999    5.603435    2.589605   -2.326234
  18 O     8.0000    0    15.999    4.805007    2.392318   11.253073
  19 H     1.0000    0     1.008    4.164597    1.125332   12.260392
  20 H     1.0000    0     1.008   -2.137790   -4.031523   -1.603111
  21 N     7.0000    0    14.007   -5.266837   -0.040856   -1.504865
  22 O     8.0000    0    15.999   -6.284851   -2.041282   -2.069798
  23 O     8.0000    0    15.999   -6.434990    1.957492   -1.527976
  24 H     1.0000    0     1.008    3.039662    0.171682    6.700364
  25 H     1.0000    0     1.008    4.777001    1.399115    8.994775
  26 O     8.0000    0    15.999    4.754135    0.492708    7.012226

--------------------------------
INTERNAL COORDINATES (ANGSTROEM)
--------------------------------
 C      0   0   0     0.000000000000     0.00000000     0.00000000
 C      1   0   0     1.388963972319     0.00000000     0.00000000
 C      2   1   0     1.401016849470   120.57826573     0.00000000
 C      3   2   1     1.395364401151   119.79807719   359.26624731
 C      4   3   2     1.392224370172   120.39942973     0.35666619
 C      5   4   3     1.397872714306   119.10963183     0.12579523
 H      1   2   3     1.096217251689   120.49002092   180.52390597
 H      2   1   3     1.095283429118   119.06982393   179.57978527
 H      4   3   2     1.094295917702   121.15954430   180.31699496
 C      3   2   1     1.508530446295   118.14781902   180.22739768
 H     10   3   2     1.148999427763   109.07509446    50.44472578
 C     10   3   2     1.522461718435   115.15805737   171.81093528
 H     12  10   3     1.101842303690   111.93643260   181.59489852
 H     12  10   3     1.099048754560   113.27949620    60.56423234
 H     12  10   3     1.103190021619   110.62315051   300.11099631
 N     10   3   2     1.499781195608   110.13718201   294.19164057
 O     16  10   3     1.221661302489   118.07001963   173.80930336
 O     16  10   3     1.219283122372   119.73711347   354.17899265
 O     11  10   3     4.297301083436   162.92846426    67.88645960
 H     19  11  10     0.921143499244   117.80735663     4.86770491
 H      5   4   3     1.095480518768   120.18474363   180.13822815
 N      6   5   4     1.443192871033   119.38513544   179.61415797
 O     22   6   5     1.224814754565   119.28672532     4.98569653
 O     22   6   5     1.224963390841   119.26567770   184.97536673
 H     11  10   3     2.226054355918   127.91622909    46.49046906
 H     19  11  10     1.305593570143    14.40848622     9.66514358
 O     25  11  10     0.937664557771    65.10681173   141.93766050

---------------------------
INTERNAL COORDINATES (A.U.)
---------------------------
 C      0   0   0     0.000000000000     0.00000000     0.00000000
 C      1   0   0     2.624761517566     0.00000000     0.00000000
 C      2   1   0     2.647538154508   120.57826573     0.00000000
 C      3   2   1     2.636856575199   119.79807719   359.26624731
 C      4   3   2     2.630922776596   120.39942973     0.35666619
 C      5   4   3     2.641596600119   119.10963183     0.12579523
 H      1   2   3     2.071550388972   120.49002092   180.52390597
 H      2   1   3     2.069785720055   119.06982393   179.57978527
 H      4   3   2     2.067919593925   121.15954430   180.31699496
 C      3   2   1     2.850709408180   118.14781902   180.22739768
 H     10   3   2     2.171294246505   109.07509446    50.44472578
 C     10   3   2     2.877035697221   115.15805737   171.81093528
 H     12  10   3     2.082180196742   111.93643260   181.59489852
 H     12  10   3     2.076901153946   113.27949620    60.56423234
 H     12  10   3     2.084727014535   110.62315051   300.11099631
 N     10   3   2     2.834175720505   110.13718201   294.19164057
 O     16  10   3     2.308605290114   118.07001963   173.80930336
 O     16  10   3     2.304111180995   119.73711347   354.17899265
 O     11  10   3     8.120722162697   162.92846426    67.88645960
 H     19  11  10     1.740708943614   117.80735663     4.86770491
 H      5   4   3     2.070158165517   120.18474363   180.13822815
 N      6   5   4     2.727239284680   119.38513544   179.61415797
 O     22   6   5     2.314564450914   119.28672532     4.98569653
 O     22   6   5     2.314845332769   119.26567770   184.97536673
 H     11  10   3     4.206633091907   127.91622909    46.49046906
 H     19  11  10     2.467214289780    14.40848622     9.66514358
 O     25  11  10     1.771929219672    65.10681173   141.93766050

---------------------
BASIS SET INFORMATION
---------------------
There are 4 groups of distinct atoms

 Group   1 Type C   : 11s6p2d1f contracted to 5s3p2d1f pattern {62111/411/11/1}
 Group   2 Type H   : 5s1p contracted to 3s1p pattern {311/1}
 Group   3 Type N   : 11s6p2d1f contracted to 5s3p2d1f pattern {62111/411/11/1}
 Group   4 Type O   : 11s6p2d1f contracted to 5s3p2d1f pattern {62111/411/11/1}

Atom   0C    basis set group =>   1
Atom   1C    basis set group =>   1
Atom   2C    basis set group =>   1
Atom   3C    basis set group =>   1
Atom   4C    basis set group =>   1
Atom   5C    basis set group =>   1
Atom   6H    basis set group =>   2
Atom   7H    basis set group =>   2
Atom   8H    basis set group =>   2
Atom   9C    basis set group =>   1
Atom  10H    basis set group =>   2
Atom  11C    basis set group =>   1
Atom  12H    basis set group =>   2
Atom  13H    basis set group =>   2
Atom  14H    basis set group =>   2
Atom  15N    basis set group =>   3
Atom  16O    basis set group =>   4
Atom  17O    basis set group =>   4
Atom  18O    basis set group =>   4
Atom  19H    basis set group =>   2
Atom  20H    basis set group =>   2
Atom  21N    basis set group =>   3
Atom  22O    basis set group =>   4
Atom  23O    basis set group =>   4
Atom  24H    basis set group =>   2
Atom  25H    basis set group =>   2
Atom  26O    basis set group =>   4
---------------------------------
AUXILIARY/J BASIS SET INFORMATION
---------------------------------
There are 4 groups of distinct atoms

 Group   1 Type C   : 12s5p4d2f1g contracted to 6s4p3d1f1g pattern {711111/2111/211/2/1}
 Group   2 Type H   : 5s2p1d contracted to 3s1p1d pattern {311/2/1}
 Group   3 Type N   : 12s5p4d2f1g contracted to 6s4p3d1f1g pattern {711111/2111/211/2/1}
 Group   4 Type O   : 12s5p4d2f1g contracted to 6s4p3d1f1g pattern {711111/2111/211/2/1}

Atom   0C    basis set group =>   1
Atom   1C    basis set group =>   1
Atom   2C    basis set group =>   1
Atom   3C    basis set group =>   1
Atom   4C    basis set group =>   1
Atom   5C    basis set group =>   1
Atom   6H    basis set group =>   2
Atom   7H    basis set group =>   2
Atom   8H    basis set group =>   2
Atom   9C    basis set group =>   1
Atom  10H    basis set group =>   2
Atom  11C    basis set group =>   1
Atom  12H    basis set group =>   2
Atom  13H    basis set group =>   2
Atom  14H    basis set group =>   2
Atom  15N    basis set group =>   3
Atom  16O    basis set group =>   4
Atom  17O    basis set group =>   4
Atom  18O    basis set group =>   4
Atom  19H    basis set group =>   2
Atom  20H    basis set group =>   2
Atom  21N    basis set group =>   3
Atom  22O    basis set group =>   4
Atom  23O    basis set group =>   4
Atom  24H    basis set group =>   2
Atom  25H    basis set group =>   2
Atom  26O    basis set group =>   4


           ************************************************************
           *        Program running with 102 parallel MPI-processes   *
           *              working on a common directory               *
           ************************************************************
------------------------------------------------------------------------------
                           ORCA GTO INTEGRAL CALCULATION
                           -- RI-GTO INTEGRALS CHOSEN --
------------------------------------------------------------------------------
------------------------------------------------------------------------------
                   ___                                                        
                  /   \      - P O W E R E D   B Y -                         
                 /     \                                                     
                 |  |  |   _    _      __       _____    __    __             
                 |  |  |  | |  | |    /  \     |  _  \  |  |  /  |          
                  \  \/   | |  | |   /    \    | | | |  |  | /  /          
                 / \  \   | |__| |  /  /\  \   | |_| |  |  |/  /          
                |  |  |   |  __  | /  /__\  \  |    /   |      \           
                |  |  |   | |  | | |   __   |  |    \   |  |\   \          
                \     /   | |  | | |  |  |  |  | |\  \  |  | \   \       
                 \___/    |_|  |_| |__|  |__|  |_| \__\ |__|  \__/        
                                                                              
                      - O R C A' S   B I G   F R I E N D -                    
                                      &                                       
                       - I N T E G R A L  F E E D E R -                       
                                                                              
 v1 FN, 2020, v2 2021                                                         
------------------------------------------------------------------------------


Reading SHARK input file /home/rudenko/mop_saddle_orca_4_serv/for_orca/p-o2nc6h4chno2ch3_oh/orca/orca_start/start.SHARKINP.tmp ... ok
----------------------
SHARK INTEGRAL PACKAGE
----------------------

Number of atoms                             ...     27
Number of basis functions                   ...    562
Number of shells                            ...    220
Maximum angular momentum                    ...      3
Integral batch strategy                     ... SHARK/LIBINT Hybrid
RI-J (if used) integral strategy            ... SPLIT-RIJ (Revised 2003 algorithm where possible)
Printlevel                                  ...      1
Contraction scheme used                     ... SEGMENTED contraction
Coulomb Range Separation                    ... NOT USED
Exchange Range Separation                   ... NOT USED
Finite Nucleus Model                        ... NOT USED
Auxiliary Coulomb fitting basis             ... AVAILABLE
   # of basis functions in Aux-J            ...    905
   # of shells in Aux-J                     ...    295
   Maximum angular momentum in Aux-J        ...      4
Auxiliary J/K fitting basis                 ... NOT available
Auxiliary Correlation fitting basis         ... NOT available
Auxiliary 'external' fitting basis          ... NOT available
Integral threshold                          ...     2.500000e-11
Primitive cut-off                           ...     2.500000e-12
Primitive pair pre-selection threshold      ...     2.500000e-12

Calculating pre-screening integrals         ... done (  0.1 sec) Dimension = 220
Organizing shell pair data                  ... done (  0.5 sec)
Shell pair information
Total number of shell pairs                 ...     24310
Shell pairs after pre-screening             ...     17511
Total number of primitive shell pairs       ...     75076
Primitive shell pairs kept                  ...     36978
          la=0 lb=0:   4516 shell pairs
          la=1 lb=0:   5032 shell pairs
          la=1 lb=1:   1421 shell pairs
          la=2 lb=0:   2496 shell pairs
          la=2 lb=1:   1405 shell pairs
          la=2 lb=2:    360 shell pairs
          la=3 lb=0:   1184 shell pairs
          la=3 lb=1:    681 shell pairs
          la=3 lb=2:    331 shell pairs
          la=3 lb=3:     85 shell pairs

Calculating one electron integrals          ... done (  0.2 sec)
Calculating RI/J V-Matrix + Cholesky decomp.... done (  0.1 sec)
Calculating Nuclear repulsion               ... done (  0.0 sec) ENN=   1085.823475345486 Eh

SHARK setup successfully completed in   1.2 seconds

Maximum memory used throughout the entire GTOINT-calculation: 29.8 MB


           ************************************************************
           *        Program running with 102 parallel MPI-processes   *
           *              working on a common directory               *
           ************************************************************
-------------------------------------------------------------------------------
                                 ORCA SCF
-------------------------------------------------------------------------------

------------
SCF SETTINGS
------------
Hamiltonian:
 Density Functional     Method          .... DFT(GTOs)
 Exchange Functional    Exchange        .... B88
   X-Alpha parameter    XAlpha          ....  0.666667
   Becke's b parameter  XBeta           ....  0.004200
 Correlation Functional Correlation     .... LYP
 LDA part of GGA corr.  LDAOpt          .... VWN-5
 Gradients option       PostSCFGGA      .... off
 Hybrid DFT is turned on
   Fraction HF Exchange ScalHFX         ....  0.200000
   Scaling of DF-GGA-X  ScalDFX         ....  0.720000
   Scaling of DF-GGA-C  ScalDFC         ....  0.810000
   Scaling of DF-LDA-C  ScalLDAC        ....  1.000000
   Perturbative correction              ....  0.000000
   Density functional embedding theory  .... OFF
   NL short-range parameter             ....  4.800000
 RI-approximation to the Coulomb term is turned on
   Number of AuxJ basis functions       .... 905
   RIJ-COSX (HFX calculated with COS-X)).... on


General Settings:
 Integral files         IntName         .... /home/rudenko/mop_saddle_orca_4_serv/for_orca/p-o2nc6h4chno2ch3_oh/orca/orca_start/start
 Hartree-Fock type      HFTyp           .... RHF
 Total Charge           Charge          ....   -1
 Multiplicity           Mult            ....    1
 Number of Electrons    NEL             ....  122
 Basis Dimension        Dim             ....  562
 Nuclear Repulsion      ENuc            ....   1085.8234753455 Eh

Convergence Acceleration:
 DIIS                   CNVDIIS         .... on
   Start iteration      DIISMaxIt       ....    12
   Startup error        DIISStart       ....  0.200000
   # of expansion vecs  DIISMaxEq       ....     5
   Bias factor          DIISBfac        ....   1.050
   Max. coefficient     DIISMaxC        ....  10.000
 Trust-Rad. Augm. Hess. CNVTRAH         .... auto
   Auto Start mean grad. ratio tolernc. ....  1.125000
   Auto Start start iteration           ....    20
   Auto Start num. interpolation iter.  ....    10
   Max. Number of Micro iterations      ....    16
   Max. Number of Macro iterations      .... Maxiter - #DIIS iter
   Number of Davidson start vectors     ....     2
   Converg. threshold I  (grad. norm)   ....   1.000e-05
   Converg. threshold II (energy diff.) ....   1.000e-08
   Grad. Scal. Fac. for Micro threshold ....   0.100
   Minimum threshold for Micro iter.    ....   0.010
   NR start threshold (gradient norm)   ....   0.001
   Initial trust radius                 ....   0.400
   Minimum AH scaling param. (alpha)    ....   1.000
   Maximum AH scaling param. (alpha)    .... 1000.000
   Orbital update algorithm             .... Taylor
   White noise on init. David. guess    .... on
   Maximum white noise                  ....   0.010
   Quad. conv. algorithm                .... NR
 SOSCF                  CNVSOSCF        .... on
   Start iteration      SOSCFMaxIt      ....   150
   Startup grad/error   SOSCFStart      ....  0.003300
 Level Shifting         CNVShift        .... on
   Level shift para.    LevelShift      ....    0.2500
   Turn off err/grad.   ShiftErr        ....    0.0010
 Zerner damping         CNVZerner       .... off
 Static damping         CNVDamp         .... on
   Fraction old density DampFac         ....    0.7000
   Max. Damping (<1)    DampMax         ....    0.9800
   Min. Damping (>=0)   DampMin         ....    0.0000
   Turn off err/grad.   DampErr         ....    0.1000
 Fernandez-Rico         CNVRico         .... off

SCF Procedure:
 Maximum # iterations   MaxIter         ....   125
 SCF integral mode      SCFMode         .... Direct
   Integral package                     .... SHARK and LIBINT hybrid scheme
 Reset frequency        DirectResetFreq ....    20
 Integral Threshold     Thresh          ....  2.500e-11 Eh
 Primitive CutOff       TCut            ....  2.500e-12 Eh

Convergence Tolerance:
 Convergence Check Mode ConvCheckMode   .... Total+1el-Energy
 Convergence forced     ConvForced      .... 0
 Energy Change          TolE            ....  1.000e-08 Eh
 1-El. energy change                    ....  1.000e-05 Eh
 Orbital Gradient       TolG            ....  1.000e-05
 Orbital Rotation angle TolX            ....  1.000e-05
 DIIS Error             TolErr          ....  5.000e-07


Diagonalization of the overlap matrix:
Smallest eigenvalue                        ... 7.585e-06
Time for diagonalization                   ...    0.175 sec
Threshold for overlap eigenvalues          ... 1.000e-08
Number of eigenvalues below threshold      ... 0
Time for construction of square roots      ...    0.235 sec
Total time needed                          ...    0.412 sec

Time for model grid setup =    0.209 sec

------------------------------
INITIAL GUESS: MODEL POTENTIAL
------------------------------
Loading Hartree-Fock densities                     ... done
Calculating cut-offs                               ... done
Initializing the effective Hamiltonian             ... done
Setting up the integral package (SHARK)            ... done
Starting the Coulomb interaction                   ... done (   0.1 sec)
Reading the grid                                   ... done
Mapping shells                                     ... done
Starting the XC term evaluation                    ... done (   0.0 sec)
  promolecular density results
     # of electrons  =    121.002996747
     EX              =   -106.666880502
     EC              =     -4.216451325
     EX+EC           =   -110.883331827
Transforming the Hamiltonian                       ... done (   0.2 sec)
Diagonalizing the Hamiltonian                      ... done (   0.2 sec)
Back transforming the eigenvectors                 ... done (   0.1 sec)
Now organizing SCF variables                       ... done
                      ------------------
                      INITIAL GUESS DONE (   0.9 sec)
                      ------------------
-------------------
DFT GRID GENERATION
-------------------

General Integration Accuracy     IntAcc      ... 4.388
Radial Grid Type                 RadialGrid  ... OptM3 with GC (2021)
Angular Grid (max. ang.)         AngularGrid ... 4 (Lebedev-302)
Angular grid pruning method      GridPruning ... 4 (adaptive)
Weight generation scheme         WeightScheme... Becke
Basis function cutoff            BFCut       ... 1.0000e-11
Integration weight cutoff        WCut        ... 1.0000e-14
Angular grids for H and He will be reduced by one unit
Partially contracted basis set               ... off
Rotationally invariant grid construction     ... off

Total number of grid points                  ...   131667
Total number of batches                      ...     2071
Average number of points per batch           ...       63
Average number of grid points per atom       ...     4877
Time for grid setup =    1.076 sec

--------------------
COSX GRID GENERATION
--------------------

GRIDX 1
-------
General Integration Accuracy     IntAcc      ... 3.816
Radial Grid Type                 RadialGrid  ... OptM3 with GC (2021)
Angular Grid (max. ang.)         AngularGrid ... 1 (Lebedev-50)
Angular grid pruning method      GridPruning ... 4 (adaptive)
Weight generation scheme         WeightScheme... Becke
Basis function cutoff            BFCut       ... 1.0000e-11
Integration weight cutoff        WCut        ... 1.0000e-14
Angular grids for H and He will be reduced by one unit
Partially contracted basis set               ... on
Rotationally invariant grid construction     ... off

Total number of grid points                  ...    16745
Total number of batches                      ...      274
Average number of points per batch           ...       61
Average number of grid points per atom       ...      620
UseSFitting                                  ... on

GRIDX 2
-------
General Integration Accuracy     IntAcc      ... 4.020
Radial Grid Type                 RadialGrid  ... OptM3 with GC (2021)
Angular Grid (max. ang.)         AngularGrid ... 2 (Lebedev-110)
Angular grid pruning method      GridPruning ... 4 (adaptive)
Weight generation scheme         WeightScheme... Becke
Basis function cutoff            BFCut       ... 1.0000e-11
Integration weight cutoff        WCut        ... 1.0000e-14
Angular grids for H and He will be reduced by one unit
Partially contracted basis set               ... on
Rotationally invariant grid construction     ... off

Total number of grid points                  ...    36882
Total number of batches                      ...      589
Average number of points per batch           ...       62
Average number of grid points per atom       ...     1366
UseSFitting                                  ... on

GRIDX 3
-------
General Integration Accuracy     IntAcc      ... 4.338
Radial Grid Type                 RadialGrid  ... OptM3 with GC (2021)
Angular Grid (max. ang.)         AngularGrid ... 3 (Lebedev-194)
Angular grid pruning method      GridPruning ... 4 (adaptive)
Weight generation scheme         WeightScheme... Becke
Basis function cutoff            BFCut       ... 1.0000e-11
Integration weight cutoff        WCut        ... 1.0000e-14
Angular grids for H and He will be reduced by one unit
Partially contracted basis set               ... on
Rotationally invariant grid construction     ... off

Total number of grid points                  ...    80933
Total number of batches                      ...     1279
Average number of points per batch           ...       63
Average number of grid points per atom       ...     2998
UseSFitting                                  ... on

Time for X-Grid setup             =    1.652 sec


--------------------
CPCM SOLVATION MODEL
--------------------
CPCM parameters:
  Epsilon                                         ...      78.4000
  Refrac                                          ...       1.3300
  Rsolv                                           ...       1.3000
  Surface type                                    ... GAUSSIAN VDW
  Epsilon function type                           ...         CPCM
Radii:
 Radius for C  used is    3.8550 Bohr (=   2.0400 Ang.)
 Radius for H  used is    2.4944 Bohr (=   1.3200 Ang.)
 Radius for N  used is    3.5149 Bohr (=   1.8600 Ang.)
 Radius for O  used is    3.4469 Bohr (=   1.8240 Ang.)
Calculating surface                               ...        done! (  0.0s)
GEPOL surface points                              ...         1525
GEPOL Volume                                      ...    1788.9383
GEPOL Surface-area                                ...    1012.4696
Calculating surface distance matrix               ...        done! (  0.1s)
Performing Cholesky decomposition & store         ...        done! (  0.5s)
Overall time for CPCM initialization              ...                 0.6s
--------------
SCF ITERATIONS
--------------
ITER       Energy         Delta-E        Max-DP      RMS-DP      [F,P]     Damp
               ***  Starting incremental Fock matrix formation  ***
  0   -871.4737895897   0.000000000000 0.37707878  0.00178202  0.4440036 0.7000
  1   -871.8229553375  -0.349165747758 0.35022905  0.00142832  0.1723839 0.7000
                               ***Turning on DIIS***
  2   -871.9344791483  -0.111523810819 0.36942393  0.00169027  0.0372538 0.0000
  3   -872.1456914523  -0.211212304049 0.09769501  0.00037102  0.1020196 0.7000
  4   -872.1599280369  -0.014236584560 0.34308381  0.00128581  0.0689713 0.0000
  5   -872.1798472544  -0.019919217555 0.02091742  0.00010201  0.0171036 0.0000
                      *** Initiating the SOSCF procedure ***
                           *** Shutting down DIIS ***
                      *** Re-Reading the Fockian *** 
                      *** Removing any level shift *** 
ITER      Energy       Delta-E        Grad      Rot      Max-DP    RMS-DP
  6   -872.18085775  -0.0010104989  0.000493  0.000493  0.002461  0.000032
               *** Restarting incremental Fock matrix formation ***
  7   -872.18083344   0.0000243106  0.000500  0.002767  0.003174  0.000030
  8   -872.18082801   0.0000054320  0.000913  0.000698  0.000751  0.000010
  9   -872.18084077  -0.0000127641  0.000038  0.000182  0.000238  0.000004
 10   -872.18084078  -0.0000000006  0.000027  0.000063  0.000196  0.000002
 11   -872.18084090  -0.0000001239  0.000007  0.000022  0.000167  0.000002
 12   -872.18084090   0.0000000010  0.000012  0.000021  0.000090  0.000001
 13   -872.18084091  -0.0000000118  0.000006  0.000021  0.000138  0.000001
 14   -872.18084090   0.0000000109  0.000012  0.000015  0.000129  0.000001
                  ***Gradient check signals convergence***
              ***Rediagonalizing the Fockian in SOSCF/NRSCF***

               *****************************************************
               *                     SUCCESS                       *
               *           SCF CONVERGED AFTER  15 CYCLES          *
               *****************************************************

Old exchange energy                            =    -21.592791600 Eh
New exchange energy                            =    -21.592770721 Eh
Exchange energy change after final integration =      0.000020879 Eh
Total energy after final integration           =   -872.180820007 Eh
Final COS-X integration done in                =     1.935 sec

----------------
TOTAL SCF ENERGY
----------------

Total Energy       :         -872.18082001 Eh          -23733.24669 eV

Components:
Nuclear Repulsion  :         1085.82347535 Eh           29546.75889 eV
Electronic Energy  :        -1958.00429535 Eh          -53280.00558 eV
One Electron Energy:        -3361.96146681 Eh          -91483.62245 eV
Two Electron Energy:         1403.95717146 Eh           38203.61687 eV
Max COSX asymmetry :            0.00000252 Eh               0.00007 eV
CPCM Dielectric    :           -0.11648738 Eh              -3.16978 eV

Virial components:
Potential Energy   :        -1740.86968476 Eh          -47371.47244 eV
Kinetic Energy     :          868.68886476 Eh           23638.22575 eV
Virial Ratio       :            2.00401980


DFT components:
N(Alpha)           :       60.999951992489 electrons
N(Beta)            :       60.999951992489 electrons
N(Total)           :      121.999903984977 electrons
E(X)               :      -86.063479572000 Eh       
E(C)               :       -4.999833017538 Eh       
E(XC)              :      -91.063312589538 Eh       
DFET-embed. en.    :        0.000000000000 Eh       
CPCM Solvation Model Properties:
Surface-charge          :            0.97285263
Charge-correction       :           -0.00315054 Eh              -0.08573 eV
Free-energy (cav+disp)  :  This term is not implemented in the current solvation scheme

---------------
SCF CONVERGENCE
---------------

  Last Energy change         ...    1.3244e-08  Tolerance :   1.0000e-08
  Last MAX-Density change    ...    1.3323e-15  Tolerance :   1.0000e-07
  Last RMS-Density change    ...    1.3768e-17  Tolerance :   5.0000e-09
  Last Orbital Gradient      ...    5.6592e-07  Tolerance :   1.0000e-05
  Last Orbital Rotation      ...    1.7523e-06  Tolerance :   1.0000e-05

             **** THE GBW FILE WAS UPDATED (/home/rudenko/mop_saddle_orca_4_serv/for_orca/p-o2nc6h4chno2ch3_oh/orca/orca_start/start.gbw) ****
             **** DENSITY /home/rudenko/mop_saddle_orca_4_serv/for_orca/p-o2nc6h4chno2ch3_oh/orca/orca_start/start.scfp WAS UPDATED ****
             **** ENERGY FILE WAS UPDATED (/home/rudenko/mop_saddle_orca_4_serv/for_orca/p-o2nc6h4chno2ch3_oh/orca/orca_start/start.en.tmp) ****
             **** THE GBW FILE WAS UPDATED (/home/rudenko/mop_saddle_orca_4_serv/for_orca/p-o2nc6h4chno2ch3_oh/orca/orca_start/start.gbw) ****
             **** DENSITY /home/rudenko/mop_saddle_orca_4_serv/for_orca/p-o2nc6h4chno2ch3_oh/orca/orca_start/start.scfp WAS UPDATED ****
----------------
ORBITAL ENERGIES
----------------

  NO   OCC          E(Eh)            E(eV) 
   0   2.0000     -19.168097      -521.5904 
   1   2.0000     -19.165826      -521.5286 
   2   2.0000     -19.165346      -521.5156 
   3   2.0000     -19.165232      -521.5125 
   4   2.0000     -19.048624      -518.3394 
   5   2.0000     -19.014036      -517.3982 
   6   2.0000     -14.560851      -396.2209 
   7   2.0000     -14.553084      -396.0096 
   8   2.0000     -10.241433      -278.6835 
   9   2.0000     -10.235865      -278.5320 
  10   2.0000     -10.210397      -277.8390 
  11   2.0000     -10.204135      -277.6686 
  12   2.0000     -10.203201      -277.6432 
  13   2.0000     -10.195188      -277.4252 
  14   2.0000     -10.194732      -277.4128 
  15   2.0000     -10.173816      -276.8436 
  16   2.0000      -1.243000       -33.8238 
  17   2.0000      -1.242090       -33.7990 
  18   2.0000      -1.063990       -28.9526 
  19   2.0000      -1.062175       -28.9032 
  20   2.0000      -0.930878       -25.3305 
  21   2.0000      -0.897291       -24.4165 
  22   2.0000      -0.879797       -23.9405 
  23   2.0000      -0.853453       -23.2236 
  24   2.0000      -0.800871       -21.7928 
  25   2.0000      -0.771231       -20.9863 
  26   2.0000      -0.707502       -19.2521 
  27   2.0000      -0.702027       -19.1031 
  28   2.0000      -0.631503       -17.1841 
  29   2.0000      -0.612104       -16.6562 
  30   2.0000      -0.584044       -15.8926 
  31   2.0000      -0.569677       -15.5017 
  32   2.0000      -0.555088       -15.1047 
  33   2.0000      -0.548871       -14.9356 
  34   2.0000      -0.539708       -14.6862 
  35   2.0000      -0.530229       -14.4283 
  36   2.0000      -0.528213       -14.3734 
  37   2.0000      -0.485376       -13.2077 
  38   2.0000      -0.477814       -13.0020 
  39   2.0000      -0.461111       -12.5475 
  40   2.0000      -0.456068       -12.4103 
  41   2.0000      -0.442552       -12.0424 
  42   2.0000      -0.418345       -11.3838 
  43   2.0000      -0.401159       -10.9161 
  44   2.0000      -0.392924       -10.6920 
  45   2.0000      -0.385871       -10.5001 
  46   2.0000      -0.374045       -10.1783 
  47   2.0000      -0.366788        -9.9808 
  48   2.0000      -0.358493        -9.7551 
  49   2.0000      -0.332280        -9.0418 
  50   2.0000      -0.331459        -9.0195 
  51   2.0000      -0.328043        -8.9265 
  52   2.0000      -0.327194        -8.9034 
  53   2.0000      -0.321555        -8.7500 
  54   2.0000      -0.308046        -8.3823 
  55   2.0000      -0.304475        -8.2852 
  56   2.0000      -0.279900        -7.6165 
  57   2.0000      -0.274740        -7.4760 
  58   2.0000      -0.257319        -7.0020 
  59   2.0000      -0.226770        -6.1707 
  60   2.0000      -0.220490        -5.9998 
  61   0.0000      -0.105881        -2.8812 
  62   0.0000      -0.078910        -2.1472 
  63   0.0000      -0.031140        -0.8474 
  64   0.0000      -0.012458        -0.3390 
  65   0.0000       0.042672         1.1612 
  66   0.0000       0.059045         1.6067 
  67   0.0000       0.067283         1.8309 
  68   0.0000       0.082632         2.2485 
  69   0.0000       0.088919         2.4196 
  70   0.0000       0.097308         2.6479 
  71   0.0000       0.107787         2.9330 
  72   0.0000       0.108437         2.9507 
  73   0.0000       0.120730         3.2852 
  74   0.0000       0.132386         3.6024 
  75   0.0000       0.133980         3.6458 
  76   0.0000       0.152634         4.1534 
  77   0.0000       0.157985         4.2990 
  78   0.0000       0.164288         4.4705 
  79   0.0000       0.176412         4.8004 
  80   0.0000       0.184153         5.0111 
  81   0.0000       0.192361         5.2344 
  82   0.0000       0.198354         5.3975 
  83   0.0000       0.204060         5.5528 
  84   0.0000       0.221365         6.0236 
  85   0.0000       0.224938         6.1209 
  86   0.0000       0.228231         6.2105 
  87   0.0000       0.229551         6.2464 
  88   0.0000       0.235964         6.4209 
  89   0.0000       0.241613         6.5746 
  90   0.0000       0.251230         6.8363 
  91   0.0000       0.254778         6.9329 
  92   0.0000       0.270621         7.3640 
  93   0.0000       0.279410         7.6031 
  94   0.0000       0.289245         7.8707 
  95   0.0000       0.309720         8.4279 
  96   0.0000       0.312686         8.5086 
  97   0.0000       0.316698         8.6178 
  98   0.0000       0.322502         8.7757 
  99   0.0000       0.326559         8.8861 
 100   0.0000       0.334376         9.0988 
 101   0.0000       0.335482         9.1289 
 102   0.0000       0.350032         9.5248 
 103   0.0000       0.355744         9.6803 
 104   0.0000       0.359953         9.7948 
 105   0.0000       0.372024        10.1233 
 106   0.0000       0.380176        10.3451 
 107   0.0000       0.385470        10.4892 
 108   0.0000       0.390200        10.6179 
 109   0.0000       0.390421        10.6239 
 110   0.0000       0.394815        10.7435 
 111   0.0000       0.408102        11.1050 
 112   0.0000       0.411090        11.1863 
 113   0.0000       0.414874        11.2893 
 114   0.0000       0.422721        11.5028 
 115   0.0000       0.431629        11.7452 
 116   0.0000       0.436500        11.8778 
 117   0.0000       0.444235        12.0882 
 118   0.0000       0.445580        12.1248 
 119   0.0000       0.452784        12.3209 
 120   0.0000       0.458964        12.4890 
 121   0.0000       0.464876        12.6499 
 122   0.0000       0.468397        12.7457 
 123   0.0000       0.474319        12.9069 
 124   0.0000       0.477578        12.9956 
 125   0.0000       0.481022        13.0893 
 126   0.0000       0.485463        13.2101 
 127   0.0000       0.491684        13.3794 
 128   0.0000       0.502227        13.6663 
 129   0.0000       0.506667        13.7871 
 130   0.0000       0.509212        13.8564 
 131   0.0000       0.520253        14.1568 
 132   0.0000       0.529504        14.4085 
 133   0.0000       0.535149        14.5621 
 134   0.0000       0.545871        14.8539 
 135   0.0000       0.553272        15.0553 
 136   0.0000       0.556175        15.1343 
 137   0.0000       0.577470        15.7138 
 138   0.0000       0.580710        15.8019 
 139   0.0000       0.583952        15.8901 
 140   0.0000       0.589402        16.0384 
 141   0.0000       0.598161        16.2768 
 142   0.0000       0.608894        16.5688 
 143   0.0000       0.611096        16.6288 
 144   0.0000       0.621801        16.9201 
 145   0.0000       0.630982        17.1699 
 146   0.0000       0.638817        17.3831 
 147   0.0000       0.642598        17.4860 
 148   0.0000       0.647240        17.6123 
 149   0.0000       0.657517        17.8919 
 150   0.0000       0.666505        18.1365 
 151   0.0000       0.681978        18.5576 
 152   0.0000       0.697868        18.9899 
 153   0.0000       0.703307        19.1380 
 154   0.0000       0.722938        19.6721 
 155   0.0000       0.733689        19.9647 
 156   0.0000       0.742017        20.1913 
 157   0.0000       0.752729        20.4828 
 158   0.0000       0.763929        20.7876 
 159   0.0000       0.769883        20.9496 
 160   0.0000       0.777254        21.1502 
 161   0.0000       0.791701        21.5433 
 162   0.0000       0.794241        21.6124 
 163   0.0000       0.812283        22.1033 
 164   0.0000       0.825373        22.4595 
 165   0.0000       0.829357        22.5680 
 166   0.0000       0.839496        22.8438 
 167   0.0000       0.852078        23.1862 
 168   0.0000       0.871262        23.7083 
 169   0.0000       0.880019        23.9465 
 170   0.0000       0.881790        23.9947 
 171   0.0000       0.893506        24.3135 
 172   0.0000       0.910650        24.7800 
 173   0.0000       0.941743        25.6261 
 174   0.0000       0.960643        26.1404 
 175   0.0000       0.965426        26.2706 
 176   0.0000       0.974987        26.5307 
 177   0.0000       0.995149        27.0794 
 178   0.0000       1.000474        27.2243 
 179   0.0000       1.010999        27.5107 
 180   0.0000       1.023871        27.8609 
 181   0.0000       1.037345        28.2276 
 182   0.0000       1.053079        28.6557 
 183   0.0000       1.062229        28.9047 
 184   0.0000       1.074353        29.2346 
 185   0.0000       1.091798        29.7093 
 186   0.0000       1.113533        30.3008 
 187   0.0000       1.128606        30.7109 
 188   0.0000       1.137381        30.9497 
 189   0.0000       1.166133        31.7321 
 190   0.0000       1.180647        32.1270 
 191   0.0000       1.187428        32.3115 
 192   0.0000       1.203570        32.7508 
 193   0.0000       1.213773        33.0284 
 194   0.0000       1.228277        33.4231 
 195   0.0000       1.234798        33.6006 
 196   0.0000       1.251772        34.0624 
 197   0.0000       1.262827        34.3633 
 198   0.0000       1.266389        34.4602 
 199   0.0000       1.268147        34.5080 
 200   0.0000       1.272058        34.6144 
 201   0.0000       1.294085        35.2138 
 202   0.0000       1.313531        35.7430 
 203   0.0000       1.317015        35.8378 
 204   0.0000       1.332872        36.2693 
 205   0.0000       1.336894        36.3787 
 206   0.0000       1.347506        36.6675 
 207   0.0000       1.354601        36.8606 
 208   0.0000       1.385015        37.6882 
 209   0.0000       1.396575        38.0028 
 210   0.0000       1.404181        38.2097 
 211   0.0000       1.415567        38.5195 
 212   0.0000       1.420330        38.6491 
 213   0.0000       1.451283        39.4914 
 214   0.0000       1.463200        39.8157 
 215   0.0000       1.469210        39.9792 
 216   0.0000       1.482703        40.3464 
 217   0.0000       1.494610        40.6704 
 218   0.0000       1.513579        41.1866 
 219   0.0000       1.515061        41.2269 
 220   0.0000       1.520091        41.3638 
 221   0.0000       1.522882        41.4397 
 222   0.0000       1.535666        41.7876 
 223   0.0000       1.547521        42.1102 
 224   0.0000       1.557561        42.3834 
 225   0.0000       1.569919        42.7197 
 226   0.0000       1.578734        42.9595 
 227   0.0000       1.589771        43.2599 
 228   0.0000       1.606218        43.7074 
 229   0.0000       1.608953        43.7818 
 230   0.0000       1.618935        44.0535 
 231   0.0000       1.626227        44.2519 
 232   0.0000       1.637290        44.5529 
 233   0.0000       1.651224        44.9321 
 234   0.0000       1.658302        45.1247 
 235   0.0000       1.670524        45.4573 
 236   0.0000       1.677078        45.6356 
 237   0.0000       1.686010        45.8787 
 238   0.0000       1.696393        46.1612 
 239   0.0000       1.719664        46.7944 
 240   0.0000       1.720964        46.8298 
 241   0.0000       1.734887        47.2087 
 242   0.0000       1.738925        47.3186 
 243   0.0000       1.744279        47.4642 
 244   0.0000       1.761794        47.9409 
 245   0.0000       1.785594        48.5885 
 246   0.0000       1.791640        48.7530 
 247   0.0000       1.805409        49.1277 
 248   0.0000       1.815400        49.3995 
 249   0.0000       1.831449        49.8363 
 250   0.0000       1.833422        49.8900 
 251   0.0000       1.864219        50.7280 
 252   0.0000       1.879332        51.1392 
 253   0.0000       1.886277        51.3282 
 254   0.0000       1.896247        51.5995 
 255   0.0000       1.911663        52.0190 
 256   0.0000       1.954254        53.1780 
 257   0.0000       1.960854        53.3575 
 258   0.0000       1.965901        53.4949 
 259   0.0000       1.990510        54.1645 
 260   0.0000       2.002136        54.4809 
 261   0.0000       2.009419        54.6791 
 262   0.0000       2.012666        54.7674 
 263   0.0000       2.024421        55.0873 
 264   0.0000       2.032748        55.3139 
 265   0.0000       2.039396        55.4948 
 266   0.0000       2.058066        56.0028 
 267   0.0000       2.062697        56.1289 
 268   0.0000       2.072050        56.3833 
 269   0.0000       2.097690        57.0810 
 270   0.0000       2.108427        57.3732 
 271   0.0000       2.125690        57.8430 
 272   0.0000       2.134841        58.0920 
 273   0.0000       2.138264        58.1851 
 274   0.0000       2.144839        58.3640 
 275   0.0000       2.154748        58.6337 
 276   0.0000       2.159186        58.7544 
 277   0.0000       2.173333        59.1394 
 278   0.0000       2.183162        59.4069 
 279   0.0000       2.185663        59.4749 
 280   0.0000       2.203567        59.9621 
 281   0.0000       2.221055        60.4380 
 282   0.0000       2.223198        60.4963 
 283   0.0000       2.247117        61.1472 
 284   0.0000       2.261733        61.5449 
 285   0.0000       2.265927        61.6590 
 286   0.0000       2.273793        61.8731 
 287   0.0000       2.300883        62.6102 
 288   0.0000       2.311669        62.9037 
 289   0.0000       2.333528        63.4985 
 290   0.0000       2.353311        64.0368 
 291   0.0000       2.368289        64.4444 
 292   0.0000       2.389353        65.0176 
 293   0.0000       2.397621        65.2426 
 294   0.0000       2.417469        65.7827 
 295   0.0000       2.428439        66.0812 
 296   0.0000       2.448114        66.6166 
 297   0.0000       2.465700        67.0951 
 298   0.0000       2.477179        67.4075 
 299   0.0000       2.482496        67.5522 
 300   0.0000       2.499166        68.0058 
 301   0.0000       2.509959        68.2995 
 302   0.0000       2.526652        68.7537 
 303   0.0000       2.534095        68.9562 
 304   0.0000       2.539792        69.1113 
 305   0.0000       2.554150        69.5020 
 306   0.0000       2.568417        69.8902 
 307   0.0000       2.581589        70.2486 
 308   0.0000       2.588482        70.4362 
 309   0.0000       2.590192        70.4827 
 310   0.0000       2.604386        70.8689 
 311   0.0000       2.618569        71.2549 
 312   0.0000       2.623038        71.3765 
 313   0.0000       2.637591        71.7725 
 314   0.0000       2.643844        71.9427 
 315   0.0000       2.655441        72.2582 
 316   0.0000       2.663668        72.4821 
 317   0.0000       2.680849        72.9496 
 318   0.0000       2.689801        73.1932 
 319   0.0000       2.696887        73.3860 
 320   0.0000       2.709119        73.7189 
 321   0.0000       2.713783        73.8458 
 322   0.0000       2.720963        74.0412 
 323   0.0000       2.732058        74.3431 
 324   0.0000       2.734862        74.4194 
 325   0.0000       2.745797        74.7169 
 326   0.0000       2.750398        74.8421 
 327   0.0000       2.751984        74.8853 
 328   0.0000       2.765557        75.2546 
 329   0.0000       2.777712        75.5854 
 330   0.0000       2.790403        75.9307 
 331   0.0000       2.795474        76.0687 
 332   0.0000       2.801718        76.2386 
 333   0.0000       2.812798        76.5401 
 334   0.0000       2.834338        77.1263 
 335   0.0000       2.845753        77.4369 
 336   0.0000       2.856620        77.7326 
 337   0.0000       2.864721        77.9530 
 338   0.0000       2.889721        78.6333 
 339   0.0000       2.895608        78.7935 
 340   0.0000       2.925727        79.6131 
 341   0.0000       2.932506        79.7975 
 342   0.0000       2.944755        80.1309 
 343   0.0000       2.959831        80.5411 
 344   0.0000       2.975770        80.9748 
 345   0.0000       2.989347        81.3443 
 346   0.0000       3.001401        81.6723 
 347   0.0000       3.006513        81.8114 
 348   0.0000       3.025966        82.3407 
 349   0.0000       3.041162        82.7542 
 350   0.0000       3.056407        83.1691 
 351   0.0000       3.068179        83.4894 
 352   0.0000       3.087604        84.0180 
 353   0.0000       3.091638        84.1277 
 354   0.0000       3.098370        84.3109 
 355   0.0000       3.110723        84.6471 
 356   0.0000       3.118447        84.8572 
 357   0.0000       3.127086        85.0923 
 358   0.0000       3.145060        85.5814 
 359   0.0000       3.151649        85.7607 
 360   0.0000       3.167023        86.1791 
 361   0.0000       3.169810        86.2549 
 362   0.0000       3.185400        86.6792 
 363   0.0000       3.191305        86.8398 
 364   0.0000       3.199415        87.0605 
 365   0.0000       3.215386        87.4951 
 366   0.0000       3.232577        87.9629 
 367   0.0000       3.253304        88.5269 
 368   0.0000       3.256501        88.6139 
 369   0.0000       3.272885        89.0597 
 370   0.0000       3.293346        89.6165 
 371   0.0000       3.299982        89.7971 
 372   0.0000       3.310308        90.0781 
 373   0.0000       3.327829        90.5548 
 374   0.0000       3.335226        90.7561 
 375   0.0000       3.350892        91.1824 
 376   0.0000       3.364345        91.5485 
 377   0.0000       3.371276        91.7371 
 378   0.0000       3.380182        91.9794 
 379   0.0000       3.385400        92.1214 
 380   0.0000       3.390086        92.2489 
 381   0.0000       3.392097        92.3036 
 382   0.0000       3.405386        92.6653 
 383   0.0000       3.427405        93.2644 
 384   0.0000       3.455472        94.0282 
 385   0.0000       3.465000        94.2874 
 386   0.0000       3.472689        94.4967 
 387   0.0000       3.482700        94.7691 
 388   0.0000       3.514278        95.6284 
 389   0.0000       3.523037        95.8667 
 390   0.0000       3.563507        96.9679 
 391   0.0000       3.569956        97.1434 
 392   0.0000       3.585566        97.5682 
 393   0.0000       3.606970        98.1506 
 394   0.0000       3.636051        98.9420 
 395   0.0000       3.677098       100.0589 
 396   0.0000       3.692392       100.4751 
 397   0.0000       3.698839       100.6505 
 398   0.0000       3.725069       101.3643 
 399   0.0000       3.750885       102.0668 
 400   0.0000       3.755605       102.1952 
 401   0.0000       3.773731       102.6884 
 402   0.0000       3.780056       102.8605 
 403   0.0000       3.798699       103.3679 
 404   0.0000       3.844311       104.6090 
 405   0.0000       3.851411       104.8022 
 406   0.0000       3.863334       105.1267 
 407   0.0000       3.906442       106.2997 
 408   0.0000       3.911645       106.4413 
 409   0.0000       3.935624       107.0938 
 410   0.0000       3.945968       107.3753 
 411   0.0000       3.973292       108.1188 
 412   0.0000       3.985309       108.4458 
 413   0.0000       3.994672       108.7006 
 414   0.0000       4.011099       109.1476 
 415   0.0000       4.026572       109.5686 
 416   0.0000       4.042042       109.9895 
 417   0.0000       4.065829       110.6368 
 418   0.0000       4.086059       111.1873 
 419   0.0000       4.088422       111.2516 
 420   0.0000       4.127019       112.3019 
 421   0.0000       4.136839       112.5691 
 422   0.0000       4.148923       112.8979 
 423   0.0000       4.173686       113.5718 
 424   0.0000       4.181360       113.7806 
 425   0.0000       4.192540       114.0848 
 426   0.0000       4.201417       114.3264 
 427   0.0000       4.218067       114.7794 
 428   0.0000       4.221310       114.8677 
 429   0.0000       4.237970       115.3210 
 430   0.0000       4.284041       116.5747 
 431   0.0000       4.308247       117.2334 
 432   0.0000       4.323908       117.6595 
 433   0.0000       4.336714       118.0080 
 434   0.0000       4.391927       119.5104 
 435   0.0000       4.468951       121.6063 
 436   0.0000       4.506185       122.6195 
 437   0.0000       4.519935       122.9937 
 438   0.0000       4.527601       123.2023 
 439   0.0000       4.529209       123.2460 
 440   0.0000       4.575300       124.5002 
 441   0.0000       4.600478       125.1854 
 442   0.0000       4.619157       125.6937 
 443   0.0000       4.627515       125.9211 
 444   0.0000       4.646354       126.4337 
 445   0.0000       4.674189       127.1912 
 446   0.0000       4.691632       127.6658 
 447   0.0000       4.708025       128.1119 
 448   0.0000       4.729278       128.6902 
 449   0.0000       4.746145       129.1492 
 450   0.0000       4.779047       130.0445 
 451   0.0000       4.804513       130.7375 
 452   0.0000       4.814797       131.0173 
 453   0.0000       4.857961       132.1918 
 454   0.0000       4.886860       132.9782 
 455   0.0000       4.894116       133.1757 
 456   0.0000       4.906182       133.5040 
 457   0.0000       4.944197       134.5384 
 458   0.0000       4.965999       135.1317 
 459   0.0000       5.009295       136.3099 
 460   0.0000       5.036590       137.0526 
 461   0.0000       5.070770       137.9827 
 462   0.0000       5.076698       138.1440 
 463   0.0000       5.097425       138.7080 
 464   0.0000       5.117008       139.2409 
 465   0.0000       5.127451       139.5250 
 466   0.0000       5.132764       139.6696 
 467   0.0000       5.135715       139.7499 
 468   0.0000       5.137946       139.8106 
 469   0.0000       5.149641       140.1289 
 470   0.0000       5.165445       140.5589 
 471   0.0000       5.170045       140.6841 
 472   0.0000       5.182871       141.0331 
 473   0.0000       5.197808       141.4395 
 474   0.0000       5.200981       141.5259 
 475   0.0000       5.207971       141.7161 
 476   0.0000       5.246316       142.7595 
 477   0.0000       5.255081       142.9980 
 478   0.0000       5.281044       143.7045 
 479   0.0000       5.292664       144.0207 
 480   0.0000       5.317388       144.6935 
 481   0.0000       5.332366       145.1011 
 482   0.0000       5.370608       146.1417 
 483   0.0000       5.378057       146.3444 
 484   0.0000       5.393779       146.7722 
 485   0.0000       5.416629       147.3940 
 486   0.0000       5.426978       147.6756 
 487   0.0000       5.462924       148.6537 
 488   0.0000       5.468211       148.7976 
 489   0.0000       5.478981       149.0907 
 490   0.0000       5.509926       149.9327 
 491   0.0000       5.524248       150.3224 
 492   0.0000       5.545054       150.8886 
 493   0.0000       5.596840       152.2978 
 494   0.0000       5.600085       152.3861 
 495   0.0000       5.626164       153.0957 
 496   0.0000       5.640811       153.4943 
 497   0.0000       5.649152       153.7212 
 498   0.0000       5.721254       155.6832 
 499   0.0000       5.776825       157.1954 
 500   0.0000       5.815840       158.2570 
 501   0.0000       5.963421       162.2729 
 502   0.0000       5.969156       162.4290 
 503   0.0000       6.229120       169.5030 
 504   0.0000       6.232855       169.6046 
 505   0.0000       6.257115       170.2648 
 506   0.0000       6.262843       170.4206 
 507   0.0000       6.297994       171.3771 
 508   0.0000       6.326554       172.1543 
 509   0.0000       6.331890       172.2995 
 510   0.0000       6.353946       172.8997 
 511   0.0000       6.358281       173.0176 
 512   0.0000       6.370407       173.3476 
 513   0.0000       6.374149       173.4494 
 514   0.0000       6.383891       173.7145 
 515   0.0000       6.394016       173.9900 
 516   0.0000       6.398602       174.1148 
 517   0.0000       6.418793       174.6642 
 518   0.0000       6.428816       174.9370 
 519   0.0000       6.430584       174.9851 
 520   0.0000       6.434396       175.0888 
 521   0.0000       6.447192       175.4370 
 522   0.0000       6.540784       177.9838 
 523   0.0000       6.580934       179.0763 
 524   0.0000       6.693183       182.1308 
 525   0.0000       6.744333       183.5226 
 526   0.0000       6.835964       186.0160 
 527   0.0000       6.848399       186.3544 
 528   0.0000       6.862975       186.7510 
 529   0.0000       6.879340       187.1964 
 530   0.0000       6.905138       187.8984 
 531   0.0000       6.921371       188.3401 
 532   0.0000       6.926790       188.4875 
 533   0.0000       7.087375       192.8573 
 534   0.0000       7.114431       193.5935 
 535   0.0000       7.128136       193.9664 
 536   0.0000       7.183759       195.4800 
 537   0.0000       7.249915       197.2802 
 538   0.0000       7.258039       197.5013 
 539   0.0000       7.299082       198.6181 
 540   0.0000       7.306440       198.8183 
 541   0.0000       7.364454       200.3970 
 542   0.0000       7.386489       200.9966 
 543   0.0000       7.455064       202.8626 
 544   0.0000       7.466110       203.1632 
 545   0.0000       7.547278       205.3719 
 546   0.0000      22.188174       603.7709 
 547   0.0000      22.354952       608.3092 
 548   0.0000      22.631415       615.8321 
 549   0.0000      22.654511       616.4606 
 550   0.0000      22.706854       617.8849 
 551   0.0000      22.724040       618.3526 
 552   0.0000      22.902916       623.2200 
 553   0.0000      23.272094       633.2659 
 554   0.0000      32.496632       884.2783 
 555   0.0000      32.516573       884.8209 
 556   0.0000      43.401714      1181.0207 
 557   0.0000      43.522760      1184.3145 
 558   0.0000      43.994577      1197.1533 
 559   0.0000      44.023446      1197.9389 
 560   0.0000      44.030034      1198.1181 
 561   0.0000      44.103065      1200.1054 

                    ********************************
                    * MULLIKEN POPULATION ANALYSIS *
                    ********************************

-----------------------
MULLIKEN ATOMIC CHARGES
-----------------------
   0 C :   -0.165542
   1 C :   -0.185802
   2 C :    0.111968
   3 C :   -0.164500
   4 C :   -0.185687
   5 C :    0.139960
   6 H :    0.169439
   7 H :    0.156830
   8 H :    0.168648
   9 C :    0.085951
  10 H :    0.152721
  11 C :   -0.433109
  12 H :    0.148418
  13 H :    0.145133
  14 H :    0.145677
  15 N :    0.438793
  16 O :   -0.356668
  17 O :   -0.343779
  18 O :   -1.008312
  19 H :    0.276906
  20 H :    0.169332
  21 N :    0.445708
  22 O :   -0.360249
  23 O :   -0.359986
  24 H :    0.301817
  25 H :    0.361644
  26 O :   -0.855311
Sum of atomic charges:   -1.0000000

--------------------------------
MULLIKEN REDUCED ORBITAL CHARGES
--------------------------------
  0 C s       :     3.266928  s :     3.266928
      pz      :     0.918987  p :     2.805306
      px      :     0.934363
      py      :     0.951956
      dz2     :     0.010898  d :     0.085835
      dxz     :     0.016520
      dyz     :     0.010473
      dx2y2   :     0.018332
      dxy     :     0.029612
[...]
      dyz     :     0.002863
      dx2y2   :     0.001171
      dxy     :     0.005271
      f0      :     0.000094  f :     0.000858
      f+1     :     0.000048
      f-1     :     0.000062
      f+2     :     0.000041
      f-2     :     0.000199
      f+3     :     0.000219
      f-3     :     0.000197


                     *******************************
                     * LOEWDIN POPULATION ANALYSIS *
                     *******************************

----------------------
LOEWDIN ATOMIC CHARGES
----------------------
   0 C :   -0.081251
   1 C :   -0.084963
   2 C :   -0.110135
   3 C :   -0.080474
   4 C :   -0.082178
   5 C :   -0.157049
   6 H :    0.161734
   7 H :    0.151809
   8 H :    0.163107
   9 C :   -0.222726
  10 H :    0.172019
  11 C :   -0.271547
  12 H :    0.128133
  13 H :    0.128193
  14 H :    0.138011
  15 N :   -0.030596
  16 O :   -0.049499
  17 O :   -0.062555
  18 O :   -0.467154
  19 H :    0.136718
  20 H :    0.161974
  21 N :   -0.013406
  22 O :   -0.053004
  23 O :   -0.053085
  24 H :    0.093070
  25 H :    0.113385
  26 O :   -0.728531

-------------------------------
LOEWDIN REDUCED ORBITAL CHARGES
-------------------------------
  0 C s       :     2.760850  s :     2.760850
      pz      :     0.994507  p :     2.899468
      px      :     1.034337
      py      :     0.870625
      dz2     :     0.083627  d :     0.376694
      dxz     :     0.132120
      dyz     :     0.053178
      dx2y2   :     0.046781
      dxy     :     0.060988
      f0      :     0.008763  f :     0.044239
      f+1     :     0.009570
      f-1     :     0.006080
      f+2     :     0.006315
      f-2     :     0.003553
      f+3     :     0.004298
      f-3     :     0.005661
  1 C s       :     2.757720  s :     2.757720
      pz      :     0.985263  p :     2.909927
      px      :     1.039148
      py      :     0.885516
      dz2     :     0.089697  d :     0.374325
      dxz     :     0.107266
      dyz     :     0.029627
      dx2y2   :     0.073766
      dxy     :     0.073968
      f0      :     0.004344  f :     0.042991
      f+1     :     0.010687
      f-1     :     0.003010
      f+2     :     0.007562
      f-2     :     0.005816
      f+3     :     0.005488
      f-3     :     0.006084
  2 C s       :     2.710348  s :     2.710348
      pz      :     1.015291  p :     2.825814
      px      :     0.964056
      py      :     0.846467
      dz2     :     0.126630  d :     0.516229
      dxz     :     0.153568
      dyz     :     0.076118
      dx2y2   :     0.083717
      dxy     :     0.076196
      f0      :     0.008476  f :     0.057744
      f+1     :     0.014427
      f-1     :     0.006731
      f+2     :     0.008946
      f-2     :     0.007260
      f+3     :     0.005796
      f-3     :     0.006108
  3 C s       :     2.755065  s :     2.755065
      pz      :     0.999854  p :     2.907176
      px      :     1.017516
      py      :     0.889806
      dz2     :     0.077370  d :     0.375105
      dxz     :     0.144244
      dyz     :     0.048345
      dx2y2   :     0.047329
      dxy     :     0.057818
      f0      :     0.007801  f :     0.043127
      f+1     :     0.009817
      f-1     :     0.005528
      f+2     :     0.006544
      f-2     :     0.003635
      f+3     :     0.004223
      f-3     :     0.005581
  4 C s       :     2.760441  s :     2.760441
      pz      :     0.982563  p :     2.900495
      px      :     1.044746
      py      :     0.873186
      dz2     :     0.082521  d :     0.376845
      dxz     :     0.114783
      dyz     :     0.029209
      dx2y2   :     0.068402
      dxy     :     0.081931
      f0      :     0.004487  f :     0.044397
      f+1     :     0.010838
      f-1     :     0.002960
      f+2     :     0.007967
      f-2     :     0.006599
      f+3     :     0.005532
      f-3     :     0.006014
  5 C s       :     2.718825  s :     2.718825
      pz      :     1.039858  p :     2.834960
      px      :     0.849136
      py      :     0.945967
      dz2     :     0.133678  d :     0.536492
      dxz     :     0.152429
      dyz     :     0.080517
      dx2y2   :     0.105892
      dxy     :     0.063975
      f0      :     0.009601  f :     0.066772
      f+1     :     0.015415
      f-1     :     0.006814
      f+2     :     0.010816
      f-2     :     0.007652
      f+3     :     0.009167
      f-3     :     0.007307
  6 H s       :     0.776242  s :     0.776242
      pz      :     0.020512  p :     0.062025
      px      :     0.025683
      py      :     0.015829
  7 H s       :     0.784923  s :     0.784923
      pz      :     0.034872  p :     0.063268
      px      :     0.013238
      py      :     0.015159
  8 H s       :     0.776855  s :     0.776855
      pz      :     0.020852  p :     0.060038
      px      :     0.022998
      py      :     0.016189
  9 C s       :     2.757139  s :     2.757139
      pz      :     0.986262  p :     2.895269
      px      :     0.928346
      py      :     0.980661
      dz2     :     0.075631  d :     0.510780
      dxz     :     0.081864
      dyz     :     0.107962
      dx2y2   :     0.111604
      dxy     :     0.133719
      f0      :     0.005848  f :     0.059538
      f+1     :     0.006530
      f-1     :     0.005916
      f+2     :     0.008384
      f-2     :     0.012474
      f+3     :     0.008580
      f-3     :     0.011807
 10 H s       :     0.740618  s :     0.740618
      pz      :     0.059365  p :     0.087362
      px      :     0.010130
      py      :     0.017868
 11 C s       :     2.828423  s :     2.828423
      pz      :     1.075467  p :     3.161210
      px      :     1.064754
      py      :     1.020989
      dz2     :     0.034079  d :     0.256095
      dxz     :     0.033111
      dyz     :     0.073627
      dx2y2   :     0.063531
      dxy     :     0.051747
      f0      :     0.003743  f :     0.025819
      f+1     :     0.001026
      f-1     :     0.003805
      f+2     :     0.003642
      f-2     :     0.003804
      f+3     :     0.004930
      f-3     :     0.004868
 12 H s       :     0.809912  s :     0.809912
      pz      :     0.016698  p :     0.061955
      px      :     0.032972
      py      :     0.012285
 13 H s       :     0.809895  s :     0.809895
      pz      :     0.032586  p :     0.061912
      px      :     0.013071
      py      :     0.016255
 14 H s       :     0.800687  s :     0.800687
      pz      :     0.021060  p :     0.061301
      px      :     0.021727
      py      :     0.018513
 15 N s       :     2.949806  s :     2.949806
      pz      :     1.044364  p :     3.269110
      px      :     1.107571
      py      :     1.117175
      dz2     :     0.073083  d :     0.739825
      dxz     :     0.110393
      dyz     :     0.125126
      dx2y2   :     0.199732
      dxy     :     0.231492
      f0      :     0.004554  f :     0.071855
      f+1     :     0.007132
      f-1     :     0.006202
      f+2     :     0.014487
      f-2     :     0.004286
      f+3     :     0.017645
      f-3     :     0.017549
 16 O s       :     3.498917  s :     3.498917
      pz      :     1.428577  p :     4.440108
      px      :     1.342789
      py      :     1.668743
      dz2     :     0.012225  d :     0.099400
      dxz     :     0.025488
      dyz     :     0.005880
      dx2y2   :     0.030164
      dxy     :     0.025643
      f0      :     0.001051  f :     0.011073
      f+1     :     0.001638
      f-1     :     0.000305
      f+2     :     0.001589
      f-2     :     0.001406
      f+3     :     0.002438
      f-3     :     0.002646
 17 O s       :     3.500218  s :     3.500218
      pz      :     1.475391  p :     4.452606
      px      :     1.639102
      py      :     1.338112
      dz2     :     0.012705  d :     0.098766
      dxz     :     0.003747
      dyz     :     0.021574
      dx2y2   :     0.033275
      dxy     :     0.027466
      f0      :     0.001020  f :     0.010965
      f+1     :     0.000349
      f-1     :     0.001715
      f+2     :     0.001131
      f-2     :     0.000897
      f+3     :     0.003048
      f-3     :     0.002805
 18 O s       :     3.494149  s :     3.494149
      pz      :     1.404851  p :     4.943966
      px      :     1.851284
      py      :     1.687832
      dz2     :     0.004188  d :     0.026993
      dxz     :     0.005001
      dyz     :     0.012475
      dx2y2   :     0.003917
      dxy     :     0.001412
      f0      :     0.000179  f :     0.002045
      f+1     :     0.000574
      f-1     :     0.000461
      f+2     :     0.000430
      f-2     :     0.000257
      f+3     :     0.000010
      f-3     :     0.000134
 19 H s       :     0.697432  s :     0.697432
      pz      :     0.068620  p :     0.165850
      px      :     0.052994
      py      :     0.044235
 20 H s       :     0.775956  s :     0.775956
      pz      :     0.034071  p :     0.062070
      px      :     0.013256
      py      :     0.014743
 21 N s       :     2.928687  s :     2.928687
      pz      :     1.092495  p :     3.264963
      px      :     1.142466
      py      :     1.030001
      dz2     :     0.213026  d :     0.748114
      dxz     :     0.211329
      dyz     :     0.143091
      dx2y2   :     0.098821
      dxy     :     0.081847
      f0      :     0.011697  f :     0.071641
      f+1     :     0.019854
      f-1     :     0.009962
      f+2     :     0.009866
      f-2     :     0.010155
      f+3     :     0.004957
      f-3     :     0.005151
 22 O s       :     3.499864  s :     3.499864
      pz      :     1.325322  p :     4.444461
      px      :     1.716392
      py      :     1.402747
      dz2     :     0.040081  d :     0.097752
      dxz     :     0.023411
      dyz     :     0.026789
      dx2y2   :     0.003498
      dxy     :     0.003972
      f0      :     0.003451  f :     0.010928
      f+1     :     0.002509
      f-1     :     0.002988
      f+2     :     0.000860
      f-2     :     0.000989
      f+3     :     0.000069
      f-3     :     0.000062
 23 O s       :     3.499947  s :     3.499947
      pz      :     1.528774  p :     4.444484
      px      :     1.528408
      py      :     1.387302
      dz2     :     0.016753  d :     0.097729
      dxz     :     0.032658
      dyz     :     0.015602
      dx2y2   :     0.015055
      dxy     :     0.017662
      f0      :     0.001252  f :     0.010925
      f+1     :     0.002365
      f-1     :     0.000814
      f+2     :     0.002046
      f-2     :     0.002553
      f+3     :     0.000850
      f-3     :     0.001044
 24 H s       :     0.727340  s :     0.727340
      pz      :     0.051022  p :     0.179590
      px      :     0.064503
      py      :     0.064065
 25 H s       :     0.657234  s :     0.657234
      pz      :     0.080800  p :     0.229381
      px      :     0.033413
      py      :     0.115168
 26 O s       :     3.628747  s :     3.628747
      pz      :     1.751918  p :     5.076117
      px      :     1.713822
      py      :     1.610376
      dz2     :     0.003184  d :     0.022009
      dxz     :     0.002246
      dyz     :     0.005594
      dx2y2   :     0.001489
      dxy     :     0.009496
      f0      :     0.000237  f :     0.001658
      f+1     :     0.000070
      f-1     :     0.000162
      f+2     :     0.000124
      f-2     :     0.000347
      f+3     :     0.000361
      f-3     :     0.000357


                      *****************************
                      * MAYER POPULATION ANALYSIS *
                      *****************************

  NA   - Mulliken gross atomic population
  ZA   - Total nuclear charge
  QA   - Mulliken gross atomic charge
  VA   - Mayer's total valence
  BVA  - Mayer's bonded valence
  FA   - Mayer's free valence

  ATOM       NA         ZA         QA         VA         BVA        FA
  0 C      6.1813     6.0000    -0.1813     3.9814     3.9814    -0.0000
  1 C      6.1506     6.0000    -0.1506     3.8889     3.8889     0.0000
  2 C      5.8515     6.0000     0.1485     3.5748     3.5748     0.0000
  3 C      6.1888     6.0000    -0.1888     3.8832     3.8832    -0.0000
  4 C      6.1707     6.0000    -0.1707     3.9584     3.9584    -0.0000
  5 C      5.8562     6.0000     0.1438     3.7216     3.7216    -0.0000
  6 H      0.8335     1.0000     0.1665     0.9946     0.9946    -0.0000
  7 H      0.9065     1.0000     0.0935     1.1084     1.1084    -0.0000
  8 H      0.8409     1.0000     0.1591     0.9690     0.9690     0.0000
  9 C      5.9566     6.0000     0.0434     3.4713     3.4713    -0.0000
 10 H      0.8658     1.0000     0.1342     1.1439     1.1439    -0.0000
 11 C      6.3665     6.0000    -0.3665     3.8871     3.8871    -0.0000
 12 H      0.8649     1.0000     0.1351     0.9792     0.9792    -0.0000
 13 H      0.8649     1.0000     0.1351     0.9739     0.9739    -0.0000
 14 H      0.8636     1.0000     0.1364     0.9682     0.9682    -0.0000
 15 N      6.5866     7.0000     0.4134     4.1357     4.1357    -0.0000
 16 O      8.3486     8.0000    -0.3486     1.9107     1.9107     0.0000
 17 O      8.3652     8.0000    -0.3652     1.8838     1.8838     0.0000
 18 O      8.8244     8.0000    -0.8244     1.5740     1.5740    -0.0000
 19 H      0.6813     1.0000     0.3187     0.9197     0.9197    -0.0000
 20 H      0.8324     1.0000     0.1676     0.9921     0.9921    -0.0000
 21 N      6.5529     7.0000     0.4471     4.2054     4.2054    -0.0000
 22 O      8.3550     8.0000    -0.3550     1.8970     1.8970     0.0000
 23 O      8.3549     8.0000    -0.3549     1.8970     1.8970    -0.0000
 24 H      0.7132     1.0000     0.2868     0.9332     0.9332     0.0000
 25 H      0.6417     1.0000     0.3583     0.9670     0.9670    -0.0000
 26 O      8.9815     8.0000    -0.9815     1.4618     1.4618     0.0000

  Mayer bond orders larger than 0.100000
B(  0-C ,  1-C ) :   1.4396 B(  0-C ,  5-C ) :   1.3549 B(  0-C ,  6-H ) :   0.9523 
B(  1-C ,  2-C ) :   1.3615 B(  1-C ,  7-H ) :   0.9317 B(  2-C ,  3-C ) :   1.3200 
B(  2-C ,  9-C ) :   0.8881 B(  3-C ,  4-C ) :   1.4411 B(  3-C ,  8-H ) :   0.9760 
B(  4-C ,  5-C ) :   1.3396 B(  4-C , 20-H ) :   0.9506 B(  5-C , 21-N ) :   0.9985 
B(  7-H , 26-O ) :   0.1829 B(  9-C , 10-H ) :   0.8684 B(  9-C , 11-C ) :   0.9439 
B(  9-C , 15-N ) :   0.8438 B( 10-H , 26-O ) :   0.2470 B( 11-C , 12-H ) :   0.9679 
B( 11-C , 13-H ) :   0.9598 B( 11-C , 14-H ) :   0.9667 B( 15-N , 16-O ) :   1.6203 
B( 15-N , 17-O ) :   1.6126 B( 16-O , 17-O ) :   0.1933 B( 18-O , 19-H ) :   0.9045 
B( 18-O , 25-H ) :   0.6883 B( 21-N , 22-O ) :   1.5934 B( 21-N , 23-O ) :   1.5935 
B( 22-O , 23-O ) :   0.1886 B( 24-H , 26-O ) :   0.9235 B( 25-H , 26-O ) :   0.2746 


-------
TIMINGS
-------

Total SCF time: 0 days 0 hours 0 min 31 sec 

Total time                  ....      31.315 sec
Sum of individual times     ....      28.411 sec  ( 90.7%)

Fock matrix formation       ....      20.157 sec  ( 64.4%)
  Split-RI-J                ....       3.293 sec  ( 16.3% of F)
  Chain of spheres X        ....       9.575 sec  ( 47.5% of F)
  XC integration            ....       2.348 sec  ( 11.6% of F)
    Basis function eval.    ....       0.290 sec  ( 12.4% of XC)
    Density eval.           ....       0.614 sec  ( 26.2% of XC)
    XC-Functional eval.     ....       0.017 sec  (  0.7% of XC)
    XC-Potential eval.      ....       0.225 sec  (  9.6% of XC)
Diagonalization             ....       0.424 sec  (  1.4%)
Density matrix formation    ....       0.226 sec  (  0.7%)
Population analysis         ....       0.516 sec  (  1.6%)
Initial guess               ....       0.515 sec  (  1.6%)
Orbital Transformation      ....       0.000 sec  (  0.0%)
Orbital Orthonormalization  ....       0.446 sec  (  1.4%)
DIIS solution               ....       0.197 sec  (  0.6%)
SOSCF solution              ....       3.627 sec  ( 11.6%)
Grid generation             ....       2.749 sec  (  8.8%)

Maximum memory used throughout the entire SCF-calculation: 111.9 MB


-------------------------------------------------------------------------------
                          DFT DISPERSION CORRECTION                            
                                                                               
                              DFTD3 V3.1  Rev 1                                
                          USING Becke-Johnson damping                          
-------------------------------------------------------------------------------
The B3LYP functional is recognized
Active option DFTDOPT                   ...         4   

molecular C6(AA) [au] = 7482.077250 


            DFT-D V3
 parameters
 s6 scaling factor         :     1.0000 
 a1 scaling factor         :     0.3981 
 s8 scaling factor         :     1.9889 
 a2 scaling factor         :     4.4211 
 ad hoc parameters k1-k3   :    16.0000     1.3333    -4.0000 

 Edisp/kcal,au: -30.312461373852  -0.048305976871 
 E6   /kcal   : -14.523240033 
 E8   /kcal   : -15.789221340 
 % E8         :  52.088219250 

-------------------------   ----------------
Dispersion correction           -0.048305977
-------------------------   ----------------


-------------------------   --------------------
FINAL SINGLE POINT ENERGY      -872.243435418312
-------------------------   --------------------

                                *** OPTIMIZATION RUN DONE ***

                            ***************************************
                            *     ORCA property calculations      *
                            ***************************************

                                    ---------------------
                                    Active property flags
                                    ---------------------
   (+) Dipole Moment


------------------------------------------------------------------------------
                       ORCA ELECTRIC PROPERTIES CALCULATION
------------------------------------------------------------------------------

Dipole Moment Calculation                       ... on
Quadrupole Moment Calculation                   ... off
Polarizability Calculation                      ... off
GBWName                                         ... /home/rudenko/mop_saddle_orca_4_serv/for_orca/p-o2nc6h4chno2ch3_oh/orca/orca_start/start.gbw
Electron density                                ... /home/rudenko/mop_saddle_orca_4_serv/for_orca/p-o2nc6h4chno2ch3_oh/orca/orca_start/start.scfp
The origin for moment calculation is the CENTER OF MASS  = ( 1.611096,  0.446508  0.965504)

-------------
DIPOLE MOMENT
-------------
                                X             Y             Z
Electronic contribution:    -11.96236       0.95225     -16.10081
Nuclear contribution   :      9.84717      -4.81256      12.41014
                        -----------------------------------------
Total Dipole Moment    :     -2.11518      -3.86031      -3.69067
                        -----------------------------------------
Magnitude (a.u.)       :      5.74431
Magnitude (Debye)      :     14.60087



--------------------
Rotational spectrum 
--------------------
 
Rotational constants in cm-1:     0.020837     0.008581     0.006745 
Rotational constants in MHz :   624.692125   257.236985   202.211369 

 Dipole components along the rotational axes: 
x,y,z [a.u.] :     4.150096     3.259357    -2.269443 
x,y,z [Debye]:    10.548706     8.284627    -5.768466 

 

Timings for individual modules:

Sum of individual times         ...     3446.190 sec (=  57.437 min)
GTO integral calculation        ...      294.875 sec (=   4.915 min)   8.6 %
SCF iterations                  ...     2472.412 sec (=  41.207 min)  71.7 %
SCF Gradient evaluation         ...      676.452 sec (=  11.274 min)  19.6 %
Geometry relaxation             ...        2.452 sec (=   0.041 min)   0.1 %
                             ****ORCA TERMINATED NORMALLY****
TOTAL RUN TIME: 0 days 1 hours 1 minutes 7 seconds 433 msec
