
                                 *****************
                                 * O   R   C   A *
                                 *****************

                                            #,                                       
                                            ###                                      
                                            ####                                     
                                            #####                                    
                                            ######                                   
                                           ########,                                 
                                     ,,################,,,,,                         
                               ,,#################################,,                 
                          ,,##########################################,,             
                       ,#########################################, ''#####,          
                    ,#############################################,,   '####,        
                  ,##################################################,,,,####,       
                ,###########''''           ''''###############################       
              ,#####''   ,,,,##########,,,,          '''####'''          '####       
            ,##' ,,,,###########################,,,                        '##       
           ' ,,###''''                  '''############,,,                           
         ,,##''                                '''############,,,,        ,,,,,,###''
      ,#''                                            '''#######################'''  
     '                                                          ''''####''''         
             ,#######,   #######,   ,#######,      ##                                
            ,#'     '#,  ##    ##  ,#'     '#,    #''#        ######   ,####,        
            ##       ##  ##   ,#'  ##            #'  '#       #        #'  '#        
            ##       ##  #######   ##           ,######,      #####,   #    #        
            '#,     ,#'  ##    ##  '#,     ,#' ,#      #,         ##   #,  ,#        
             '#######'   ##     ##  '#######'  #'      '#     #####' # '####'        



                  #######################################################
                  #                        -***-                        #
                  #          Department of theory and spectroscopy      #
                  #    Directorship and core code : Frank Neese         #
                  #        Max Planck Institute fuer Kohlenforschung    #
                  #                Kaiser Wilhelm Platz 1               #
                  #                 D-45470 Muelheim/Ruhr               #
                  #                      Germany                        #
                  #                                                     #
                  #                  All rights reserved                #
                  #                        -***-                        #
                  #######################################################


                         Program Version 5.0.4 -  RELEASE  -


 With contributions from (in alphabetic order):
   Daniel Aravena         : Magnetic Suceptibility
   Michael Atanasov       : Ab Initio Ligand Field Theory (pilot matlab implementation)
   Alexander A. Auer      : GIAO ZORA, VPT2 properties, NMR spectrum
   Ute Becker             : Parallelization
   Giovanni Bistoni       : ED, misc. LED, open-shell LED, HFLD
   Martin Brehm           : Molecular dynamics
   Dmytro Bykov           : SCF Hessian
   Vijay G. Chilkuri      : MRCI spin determinant printing, contributions to CSF-ICE
   Dipayan Datta          : RHF DLPNO-CCSD density
   Achintya Kumar Dutta   : EOM-CC, STEOM-CC
   Dmitry Ganyushin       : Spin-Orbit,Spin-Spin,Magnetic field MRCI
   Miquel Garcia          : C-PCM and meta-GGA Hessian, CC/C-PCM, Gaussian charge scheme
   Yang Guo               : DLPNO-NEVPT2, F12-NEVPT2, CIM, IAO-localization
   Andreas Hansen         : Spin unrestricted coupled pair/coupled cluster methods
   Benjamin Helmich-Paris : MC-RPA, TRAH-SCF, COSX integrals
   Lee Huntington         : MR-EOM, pCC
   Robert Izsak           : Overlap fitted RIJCOSX, COSX-SCS-MP3, EOM
   Marcus Kettner         : VPT2
   Christian Kollmar      : KDIIS, OOCD, Brueckner-CCSD(T), CCSD density, CASPT2, CASPT2-K
   Simone Kossmann        : Meta GGA functionals, TD-DFT gradient, OOMP2, MP2 Hessian
   Martin Krupicka        : Initial AUTO-CI
   Lucas Lang             : DCDCAS
   Marvin Lechner         : AUTO-CI (C++ implementation), FIC-MRCC
   Dagmar Lenk            : GEPOL surface, SMD
   Dimitrios Liakos       : Extrapolation schemes; Compound Job, initial MDCI parallelization
   Dimitrios Manganas     : Further ROCIS development; embedding schemes
   Dimitrios Pantazis     : SARC Basis sets
   Anastasios Papadopoulos: AUTO-CI, single reference methods and gradients
   Taras Petrenko         : DFT Hessian,TD-DFT gradient, ASA, ECA, R-Raman, ABS, FL, XAS/XES, NRVS
   Peter Pinski           : DLPNO-MP2, DLPNO-MP2 Gradient
   Christoph Reimann      : Effective Core Potentials
   Marius Retegan         : Local ZFS, SOC
   Christoph Riplinger    : Optimizer, TS searches, QM/MM, DLPNO-CCSD(T), (RO)-DLPNO pert. Triples
   Tobias Risthaus        : Range-separated hybrids, TD-DFT gradient, RPA, STAB
   Michael Roemelt        : Original ROCIS implementation
   Masaaki Saitow         : Open-shell DLPNO-CCSD energy and density
   Barbara Sandhoefer     : DKH picture change effects
   Avijit Sen             : IP-ROCIS
   Kantharuban Sivalingam : CASSCF convergence, NEVPT2, FIC-MRCI
   Bernardo de Souza      : ESD, SOC TD-DFT
   Georgi Stoychev        : AutoAux, RI-MP2 NMR, DLPNO-MP2 response
   Willem Van den Heuvel  : Paramagnetic NMR
   Boris Wezisla          : Elementary symmetry handling
   Frank Wennmohs         : Technical directorship


 We gratefully acknowledge several colleagues who have allowed us to
 interface, adapt or use parts of their codes:
   Stefan Grimme, W. Hujo, H. Kruse, P. Pracht,  : VdW corrections, initial TS optimization,
                  C. Bannwarth, S. Ehlert          DFT functionals, gCP, sTDA/sTD-DF
   Ed Valeev, F. Pavosevic, A. Kumar             : LibInt (2-el integral package), F12 methods
   Garnet Chan, S. Sharma, J. Yang, R. Olivares  : DMRG
   Ulf Ekstrom                                   : XCFun DFT Library
   Mihaly Kallay                                 : mrcc  (arbitrary order and MRCC methods)
   Jiri Pittner, Ondrej Demel                    : Mk-CCSD
   Frank Weinhold                                : gennbo (NPA and NBO analysis)
   Christopher J. Cramer and Donald G. Truhlar   : smd solvation model
   Lars Goerigk                                  : TD-DFT with DH, B97 family of functionals
   V. Asgeirsson, H. Jonsson                     : NEB implementation
   FAccTs GmbH                                   : IRC, NEB, NEB-TS, DLPNO-Multilevel, CI-OPT
                                                   MM, QMMM, 2- and 3-layer-ONIOM, Crystal-QMMM,
                                                   LR-CPCM, SF, NACMEs, symmetry and pop. for TD-DFT,
                                                   nearIR, NL-DFT gradient (VV10), updates on ESD,
                                                   ML-optimized integration grids
   S Lehtola, MJT Oliveira, MAL Marques          : LibXC Library
   Liviu Ungur et al                             : ANISO software


 Your calculation uses the libint2 library for the computation of 2-el integrals
 For citations please refer to: http://libint.valeyev.net

 Your ORCA version has been built with support for libXC version: 5.1.0
 For citations please refer to: https://tddft.org/programs/libxc/

 This ORCA versions uses:
   CBLAS   interface :  Fast vector & matrix operations
   LAPACKE interface :  Fast linear algebra routines
   SCALAPACK package :  Parallel linear algebra routines
   Shared memory     :  Shared parallel matrices
   BLAS/LAPACK       :  OpenBLAS 0.3.15  USE64BITINT DYNAMIC_ARCH NO_AFFINITY Prescott SINGLE_THREADED
        Core in use  :  Prescott
   Copyright (c) 2011-2014, The OpenBLAS Project


Your calculation utilizes the atom-pairwise dispersion correction
with the Becke-Johnson damping scheme (D3BJ)
Cite in your paper:
S.Grimme, S.Ehrlich, L.Goerigk, J Comput Chem, (2011), 32, 1456–1465 
S.Grimme, J.Antony, S.Ehrlich and H.Krieg, J.Chem.Phys., 132, (2010), 154104 
   

================================================================================

----- Orbital basis set information -----
Your calculation utilizes the basis: def2-TZVP
   F. Weigend and R. Ahlrichs, Phys. Chem. Chem. Phys. 7, 3297 (2005).

----- AuxJ basis set information -----
Your calculation utilizes the auxiliary basis: def2/J
   F. Weigend, Phys. Chem. Chem. Phys. 8, 1057 (2006).

================================================================================
                                        WARNINGS
                       Please study these warnings very carefully!
================================================================================

WARNING: Gradients needed for Numerical Frequencies
  ===> : Setting RunTyp to EnGrad

WARNING: your system is open-shell and RHF/RKS was chosen
  ===> : WILL SWITCH to UHF/UKS


INFO   : the flag for use of the SHARK integral package has been found!

================================================================================
                                       INPUT FILE
================================================================================
NAME = /home/rudenko/mop_saddle_orca_4_serv/for_orca/m-o2nc6h4chno2ch3_piperidine/orca/start_freq_D/start_f_D.inp
|  1> !  NUMFREQ B3LYP def2-TZVP CPCM D3 
|  2> %pal nprocs 102 end
|  3> %cpcm epsilon 78.4 end 
|  4> *xyz 0 2 
|  5> C   -0.64061149055456 0.865799226621 1.22299414150674
|  6> C   0.72316479190613 0.93207989551665 1.48798065609296
|  7> C   1.54324507471828 -0.17865549388634 1.28957924687211
|  8> C   0.98999651316959 -1.36212543999093 0.81382055802429
|  9> C   -0.37124646445733 -1.40413152210053 0.55068182848699
| 10> C   -1.20305425638328 -0.30886014213418 0.74842999096323
| 11> H   -1.26650078029364 1.73225600112583 1.38772978741308
| 12> H   1.16120329427265 1.84643972130891 1.86536124735354
| 13> H   1.59471956532111 -2.2393864456827 0.64341135607726
| 14> H   -2.25865792696004 -0.38197538169953 0.53634891221349
| 15> N   -0.95284119398747 -2.65477360527667 0.04922479294484
| 16> O   -2.15435806673566 -2.67988870981037 -0.18456353334375
| 17> O   -0.21235490772365 -3.6163006762318 -0.11214909745569
| 18> C   3.0199055079847 -0.07492703223113 1.6004026599949
| 19> C   3.57714852726913 -1.20123068995938 2.44691318407335
| 20> H   4.64477590526352 -1.06087360062225 2.6145464454003
| 21> H   3.41465639178641 -2.17528277236605 1.9908793309433
| 22> H   3.06946609411125 -1.17723468557584 3.41124981259401
| 23> N   3.75485769954716 0.00217144220453 0.25359835227709
| 24> O   3.85584961578945 1.10524779564313 -0.25740482097554
| 25> O   4.16889773023052 -1.02822682760937 -0.2475081594592
| 26> H   3.21865331937405 0.8972674913562 2.04642641666374 M = 2
| 27> C   0.92044010758138 0.37585562207076 6.33172517151781
| 28> C   2.07411458969527 -0.30286009491304 6.98519552109857
| 29> C   3.28794437797893 0.63409411375898 7.09690828612624
| 30> C   3.54456704123443 1.3524742703004 5.77314815729982
| 31> N   2.37175141665663 2.09465732353386 5.28231062323265
| 32> C   1.18962068064691 1.21890991023128 5.13395289652617
| 33> H   -0.09469086401349 0.06594083260577 6.54748251501712
| 34> H   1.79639320987587 -0.69674975915962 7.96523748451402
| 35> H   2.3736724635583 -1.17602860751074 6.37910098804926
| 36> H   4.17667941776429 0.07115596537933 7.39311815843153
| 37> H   3.10075329200203 1.3815883802059 7.87429439415422
| 38> H   4.37495222789214 2.05433886092044 5.86898253712981
| 39> H   3.81743134439196 0.62597933072934 5.00202826057891
| 40> H   2.14704097452457 2.82213504672688 5.95570303035248
| 41> H   0.32944642930553 1.83934477655973 4.877383852416
| 42> H   1.38105484028119 0.57901457165993 4.25924172953353
| 43> H   2.84636139790434 2.79057101730688 3.73415479130151
| 44> H   2.59803779108867 3.77013746438367 2.53938836393905
| 45> O   3.20346772798256 3.08541869661104 2.84688762012001
| 46> *
| 47> 
| 48>                          ****END OF INPUT****
================================================================================

                     *******************************
                     * Energy+Gradient Calculation *
                     *******************************

---------------------------------
CARTESIAN COORDINATES (ANGSTROEM)
---------------------------------
  C     -0.640611    0.865799    1.222994
  C      0.723165    0.932080    1.487981
  C      1.543245   -0.178655    1.289579
  C      0.989997   -1.362125    0.813821
  C     -0.371246   -1.404132    0.550682
  C     -1.203054   -0.308860    0.748430
  H     -1.266501    1.732256    1.387730
  H      1.161203    1.846440    1.865361
  H      1.594720   -2.239386    0.643411
  H     -2.258658   -0.381975    0.536349
  N     -0.952841   -2.654774    0.049225
  O     -2.154358   -2.679889   -0.184564
  O     -0.212355   -3.616301   -0.112149
  C      3.019906   -0.074927    1.600403
  C      3.577149   -1.201231    2.446913
  H      4.644776   -1.060874    2.614546
  H      3.414656   -2.175283    1.990879
  H      3.069466   -1.177235    3.411250
  N      3.754858    0.002171    0.253598
  O      3.855850    1.105248   -0.257405
  O      4.168898   -1.028227   -0.247508
  H      3.218653    0.897267    2.046426
  C      0.920440    0.375856    6.331725
  C      2.074115   -0.302860    6.985196
  C      3.287944    0.634094    7.096908
  C      3.544567    1.352474    5.773148
  N      2.371751    2.094657    5.282311
  C      1.189621    1.218910    5.133953
  H     -0.094691    0.065941    6.547483
  H      1.796393   -0.696750    7.965237
  H      2.373672   -1.176029    6.379101
  H      4.176679    0.071156    7.393118
  H      3.100753    1.381588    7.874294
  H      4.374952    2.054339    5.868983
  H      3.817431    0.625979    5.002028
  H      2.147041    2.822135    5.955703
  H      0.329446    1.839345    4.877384
  H      1.381055    0.579015    4.259242
  H      2.846361    2.790571    3.734155
  H      2.598038    3.770137    2.539388
  O      3.203468    3.085419    2.846888

----------------------------
CARTESIAN COORDINATES (A.U.)
----------------------------
  NO LB      ZA    FRAG     MASS         X           Y           Z
   0 C     6.0000    0    12.011   -1.210580    1.636123    2.311124
   1 C     6.0000    0    12.011    1.366583    1.761376    2.811876
   2 C     6.0000    0    12.011    2.916311   -0.337610    2.436952
   3 C     6.0000    0    12.011    1.870822   -2.574044    1.537898
   4 C     6.0000    0    12.011   -0.701554   -2.653424    1.040638
   5 C     6.0000    0    12.011   -2.273443   -0.583661    1.414328
   6 H     1.0000    0     1.008   -2.393340    3.273489    2.622429
   7 H     1.0000    0     1.008    2.194356    3.489265    3.525022
   8 H     1.0000    0     1.008    3.013583   -4.231827    1.215871
   9 H     1.0000    0     1.008   -4.268245   -0.721829    1.013553
  10 N     7.0000    0    14.007   -1.800609   -5.016795    0.093021
  11 O     8.0000    0    15.999   -4.071147   -5.064256   -0.348775
  12 O     8.0000    0    15.999   -0.401293   -6.833818   -0.211931
  13 C     6.0000    0    12.011    5.706794   -0.141592    3.024323
  14 C     6.0000    0    12.011    6.759831   -2.269997    4.623996
  15 H     1.0000    0     1.008    8.777354   -2.004761    4.940777
  16 H     1.0000    0     1.008    6.452765   -4.110689    3.762217
  17 H     1.0000    0     1.008    5.800450   -2.224651    6.446328
  18 N     7.0000    0    14.007    7.095653    0.004103    0.479231
  19 O     8.0000    0    15.999    7.286500    2.088616   -0.486425
  20 O     8.0000    0    15.999    7.878075   -1.943067   -0.467723
  21 H     1.0000    0     2.000    6.082373    1.695590    3.867185
  22 C     6.0000    0    12.011    1.739380    0.710264   11.965227
  23 C     6.0000    0    12.011    3.919509   -0.572323   13.200107
  24 C     6.0000    0    12.011    6.213314    1.198264   13.411213
  25 C     6.0000    0    12.011    6.698261    2.555806   10.909669
  26 N     7.0000    0    14.007    4.481961    3.958329    9.982120
  27 C     6.0000    0    12.011    2.248057    2.303406    9.701765
  28 H     1.0000    0     1.008   -0.178940    0.124610   12.372949
  29 H     1.0000    0     1.008    3.394691   -1.316666   15.052117
  30 H     1.0000    0     1.008    4.485591   -2.222372   12.054754
  31 H     1.0000    0     1.008    7.892780    0.134465   13.970969
  32 H     1.0000    0     1.008    5.859575    2.610824   14.880260
  33 H     1.0000    0     1.008    8.267462    3.882138   11.090770
  34 H     1.0000    0     1.008    7.213900    1.182930    9.452464
  35 H     1.0000    0     1.008    4.057319    5.333062   11.254648
  36 H     1.0000    0     1.008    0.622564    3.475858    9.216920
  37 H     1.0000    0     1.008    2.609815    1.094179    8.048800
  38 H     1.0000    0     1.008    5.378844    5.273415    7.056530
  39 H     1.0000    0     1.008    4.909580    7.124527    4.798749
  40 O     8.0000    0    15.999    6.053677    5.830596    5.379838

--------------------------------
INTERNAL COORDINATES (ANGSTROEM)
--------------------------------
 C      0   0   0     0.000000000000     0.00000000     0.00000000
 C      1   0   0     1.390861865386     0.00000000     0.00000000
 C      2   1   0     1.394857661093   120.75947449     0.00000000
 C      3   2   1     1.390335000711   119.50809053     0.38563231
 C      4   3   2     1.387079286146   118.76423378   359.89875575
 C      1   2   3     1.386137666474   120.22996050   359.61501351
 H      1   2   3     1.081490905245   120.01709682   179.56873513
 H      2   1   3     1.081826109520   120.24901858   180.84206204
 H      4   3   2     1.079034817797   121.53856521   179.66359442
 H      6   1   2     1.079177154852   121.43932303   180.00170554
 N      5   4   3     1.467588909785   118.65528737   180.03109764
 O     11   5   4     1.224308190564   118.14105259   180.26427532
 O     11   5   4     1.224293992809   118.33486488     0.30703140
 C      3   2   1     1.512579526199   119.34927950   180.57124514
 C     14   3   2     1.515143484733   115.01650501   131.31189280
 H     15  14   3     1.089784034143   110.51820487   179.24654958
 H     15  14   3     1.087726081573   112.11699084    57.37441534
 H     15  14   3     1.090074490239   107.85464500   297.70629607
 N     14   3   2     1.536222881593   106.87837893   254.44287289
 O     19  14   3     1.219877474067   116.88720251    84.98898272
 O     19  14   3     1.218301061950   118.73393878   266.60583947
 H     14   3   2     1.087933856325   108.89734200     5.22362706
 C     18  15  14     3.944563159156   156.54599406   342.18430850
 C     23  18  15     1.489511105344    73.94480530   224.87102741
 C     24  23  18     1.537447783160   111.44986793    87.74132238
 C     25  24  23     1.527830527015   110.86714355   313.12662273
 N     26  25  24     1.472159522134   113.08618126    55.59988649
 C     27  26  25     1.478640126602   111.82508268   303.52153650
 H     23  18  15     1.083092469503   123.05527024   108.53681873
 H     24  23  18     1.092135743607   111.16582420   211.90417880
 H     24  23  18     1.104313702794   109.24471047   328.58502109
 H     25  24  23     1.092927087364   110.35286701   191.12158733
 H     25  24  23     1.094585465825   109.43647526    73.19624383
 H     26  25  24     1.091484168527   110.73614116   177.13860573
 H     26  25  24     1.094018153542   109.89874988   295.64270754
 H     27  26  25     1.016452632695   108.42454610    62.82886167
 H     28  27  26     1.091176814463   108.48504130   173.74415477
 H     28  27  26     1.100560178937   106.56130587   287.84494876
 H     27  26  25     1.762480349798   106.10513131   182.16251923
 H     39  27  26     1.564826461271   151.05753203   192.55330401
 O     40  39  27     0.964334481380    38.04075031   182.93748303

---------------------------
INTERNAL COORDINATES (A.U.)
---------------------------
 C      0   0   0     0.000000000000     0.00000000     0.00000000
 C      1   0   0     2.628348015694     0.00000000     0.00000000
 C      2   1   0     2.635898975268   120.75947449     0.00000000
 C      3   2   1     2.627352385749   119.50809053     0.38563231
 C      4   3   2     2.621199976851   118.76423378   359.89875575
 C      1   2   3     2.619420573549   120.22996050   359.61501351
 H      1   2   3     2.043721627240   120.01709682   179.56873513
 H      2   1   3     2.044355071518   120.24901858   180.84206204
 H      4   3   2     2.039080294603   121.53856521   179.66359442
 H      6   1   2     2.039349272656   121.43932303   180.00170554
 N      5   4   3     2.773341116673   118.65528737   180.03109764
 O     11   5   4     2.313607183683   118.14105259   180.26427532
 O     11   5   4     2.313580353813   118.33486488     0.30703140
 C      3   2   1     2.858361060293   119.34927950   180.57124514
 C     14   3   2     2.863206239740   115.01650501   131.31189280
 H     15  14   3     2.059393369651   110.51820487   179.24654958
 H     15  14   3     2.055504402897   112.11699084    57.37441534
 H     15  14   3     2.059942252126   107.85464500   297.70629607
 N     14   3   2     2.903040526874   106.87837893   254.44287289
 O     19  14   3     2.305234342926   116.88720251    84.98898272
 O     19  14   3     2.302255355751   118.73393878   266.60583947
 H     14   3   2     2.055897040275   108.89734200     5.22362706
 C     18  15  14     7.454144088759   156.54599406   342.18430850
 C     23  18  15     2.814768062534    73.94480530   224.87102741
 C     24  23  18     2.905355255376   111.44986793    87.74132238
 C     25  24  23     2.887181275103   110.86714355   313.12662273
 N     26  25  24     2.781978322278   113.08618126    55.59988649
 C     27  26  25     2.794224889905   111.82508268   303.52153650
 H     23  18  15     2.046748145073   123.05527024   108.53681873
 H     24  23  18     2.063837456484   111.16582420   211.90417880
 H     24  23  18     2.086850464216   109.24471047   328.58502109
 H     25  24  23     2.065332879463   110.35286701   191.12158733
 H     25  24  23     2.068466760580   109.43647526    73.19624383
 H     26  25  24     2.062606158026   110.73614116   177.13860573
 H     26  25  24     2.067394695732   109.89874988   295.64270754
 H     27  26  25     1.920817103896   108.42454610    62.82886167
 H     28  27  26     2.062025343020   108.48504130   173.74415477
 H     28  27  26     2.079757332090   106.56130587   287.84494876
 H     27  26  25     3.330605177535   106.10513131   182.16251923
 H     39  27  26     2.957093458915   151.05753203   192.55330401
 O     40  39  27     1.822328071306    38.04075031   182.93748303

---------------------
BASIS SET INFORMATION
---------------------
There are 4 groups of distinct atoms

 Group   1 Type C   : 11s6p2d1f contracted to 5s3p2d1f pattern {62111/411/11/1}
 Group   2 Type H   : 5s1p contracted to 3s1p pattern {311/1}
 Group   3 Type N   : 11s6p2d1f contracted to 5s3p2d1f pattern {62111/411/11/1}
 Group   4 Type O   : 11s6p2d1f contracted to 5s3p2d1f pattern {62111/411/11/1}

Atom   0C    basis set group =>   1
Atom   1C    basis set group =>   1
Atom   2C    basis set group =>   1
Atom   3C    basis set group =>   1
Atom   4C    basis set group =>   1
Atom   5C    basis set group =>   1
Atom   6H    basis set group =>   2
Atom   7H    basis set group =>   2
Atom   8H    basis set group =>   2
Atom   9H    basis set group =>   2
Atom  10N    basis set group =>   3
Atom  11O    basis set group =>   4
Atom  12O    basis set group =>   4
Atom  13C    basis set group =>   1
Atom  14C    basis set group =>   1
Atom  15H    basis set group =>   2
Atom  16H    basis set group =>   2
Atom  17H    basis set group =>   2
Atom  18N    basis set group =>   3
Atom  19O    basis set group =>   4
Atom  20O    basis set group =>   4
Atom  21H    basis set group =>   2
Atom  22C    basis set group =>   1
Atom  23C    basis set group =>   1
Atom  24C    basis set group =>   1
Atom  25C    basis set group =>   1
Atom  26N    basis set group =>   3
Atom  27C    basis set group =>   1
Atom  28H    basis set group =>   2
Atom  29H    basis set group =>   2
Atom  30H    basis set group =>   2
Atom  31H    basis set group =>   2
Atom  32H    basis set group =>   2
Atom  33H    basis set group =>   2
Atom  34H    basis set group =>   2
Atom  35H    basis set group =>   2
Atom  36H    basis set group =>   2
Atom  37H    basis set group =>   2
Atom  38H    basis set group =>   2
Atom  39H    basis set group =>   2
Atom  40O    basis set group =>   4
---------------------------------
AUXILIARY/J BASIS SET INFORMATION
---------------------------------
There are 4 groups of distinct atoms

 Group   1 Type C   : 12s5p4d2f1g contracted to 6s4p3d1f1g pattern {711111/2111/211/2/1}
 Group   2 Type H   : 5s2p1d contracted to 3s1p1d pattern {311/2/1}
 Group   3 Type N   : 12s5p4d2f1g contracted to 6s4p3d1f1g pattern {711111/2111/211/2/1}
 Group   4 Type O   : 12s5p4d2f1g contracted to 6s4p3d1f1g pattern {711111/2111/211/2/1}

Atom   0C    basis set group =>   1
Atom   1C    basis set group =>   1
Atom   2C    basis set group =>   1
Atom   3C    basis set group =>   1
Atom   4C    basis set group =>   1
Atom   5C    basis set group =>   1
Atom   6H    basis set group =>   2
Atom   7H    basis set group =>   2
Atom   8H    basis set group =>   2
Atom   9H    basis set group =>   2
Atom  10N    basis set group =>   3
Atom  11O    basis set group =>   4
Atom  12O    basis set group =>   4
Atom  13C    basis set group =>   1
Atom  14C    basis set group =>   1
Atom  15H    basis set group =>   2
Atom  16H    basis set group =>   2
Atom  17H    basis set group =>   2
Atom  18N    basis set group =>   3
Atom  19O    basis set group =>   4
Atom  20O    basis set group =>   4
Atom  21H    basis set group =>   2
Atom  22C    basis set group =>   1
Atom  23C    basis set group =>   1
Atom  24C    basis set group =>   1
Atom  25C    basis set group =>   1
Atom  26N    basis set group =>   3
Atom  27C    basis set group =>   1
Atom  28H    basis set group =>   2
Atom  29H    basis set group =>   2
Atom  30H    basis set group =>   2
Atom  31H    basis set group =>   2
Atom  32H    basis set group =>   2
Atom  33H    basis set group =>   2
Atom  34H    basis set group =>   2
Atom  35H    basis set group =>   2
Atom  36H    basis set group =>   2
Atom  37H    basis set group =>   2
Atom  38H    basis set group =>   2
Atom  39H    basis set group =>   2
Atom  40O    basis set group =>   4


           ************************************************************
           *        Program running with 102 parallel MPI-processes   *
           *              working on a common directory               *
           ************************************************************
------------------------------------------------------------------------------
                           ORCA GTO INTEGRAL CALCULATION
                           -- RI-GTO INTEGRALS CHOSEN --
------------------------------------------------------------------------------
------------------------------------------------------------------------------
                   ___                                                        
                  /   \      - P O W E R E D   B Y -                         
                 /     \                                                     
                 |  |  |   _    _      __       _____    __    __             
                 |  |  |  | |  | |    /  \     |  _  \  |  |  /  |          
                  \  \/   | |  | |   /    \    | | | |  |  | /  /          
                 / \  \   | |__| |  /  /\  \   | |_| |  |  |/  /          
                |  |  |   |  __  | /  /__\  \  |    /   |      \           
                |  |  |   | |  | | |   __   |  |    \   |  |\   \          
                \     /   | |  | | |  |  |  |  | |\  \  |  | \   \       
                 \___/    |_|  |_| |__|  |__|  |_| \__\ |__|  \__/        
                                                                              
                      - O R C A' S   B I G   F R I E N D -                    
                                      &                                       
                       - I N T E G R A L  F E E D E R -                       
                                                                              
 v1 FN, 2020, v2 2021                                                         
------------------------------------------------------------------------------


Reading SHARK input file /home/rudenko/mop_saddle_orca_4_serv/for_orca/m-o2nc6h4chno2ch3_piperidine/orca/start_freq_D/start_f_D.SHARKINP.tmp ... ok
----------------------
SHARK INTEGRAL PACKAGE
----------------------

Number of atoms                             ...     41
Number of basis functions                   ...    771
Number of shells                            ...    311
Maximum angular momentum                    ...      3
Integral batch strategy                     ... SHARK/LIBINT Hybrid
RI-J (if used) integral strategy            ... SPLIT-RIJ (Revised 2003 algorithm where possible)
Printlevel                                  ...      1
Contraction scheme used                     ... SEGMENTED contraction
Coulomb Range Separation                    ... NOT USED
Exchange Range Separation                   ... NOT USED
Finite Nucleus Model                        ... NOT USED
Auxiliary Coulomb fitting basis             ... AVAILABLE
   # of basis functions in Aux-J            ...   1249
   # of shells in Aux-J                     ...    415
   Maximum angular momentum in Aux-J        ...      4
Auxiliary J/K fitting basis                 ... NOT available
Auxiliary Correlation fitting basis         ... NOT available
Auxiliary 'external' fitting basis          ... NOT available
Integral threshold                          ...     2.500000e-11
Primitive cut-off                           ...     2.500000e-12
Primitive pair pre-selection threshold      ...     2.500000e-12

Calculating pre-screening integrals         ... done (  0.1 sec) Dimension = 311
Organizing shell pair data                  ... done (  0.9 sec)
Shell pair information
Total number of shell pairs                 ...     48516
Shell pairs after pre-screening             ...     33483
Total number of primitive shell pairs       ...    146592
Primitive shell pairs kept                  ...     66991
          la=0 lb=0:   9412 shell pairs
          la=1 lb=0:   9906 shell pairs
          la=1 lb=1:   2675 shell pairs
          la=2 lb=0:   4541 shell pairs
          la=2 lb=1:   2455 shell pairs
          la=2 lb=2:    579 shell pairs
          la=3 lb=0:   2133 shell pairs
          la=3 lb=1:   1149 shell pairs
          la=3 lb=2:    507 shell pairs
          la=3 lb=3:    126 shell pairs

Calculating one electron integrals          ... done (  0.3 sec)
Calculating RI/J V-Matrix + Cholesky decomp.... done (  0.2 sec)
Calculating Nuclear repulsion               ... done (  0.0 sec) ENN=   1727.102116095845 Eh

SHARK setup successfully completed in   2.1 seconds

Maximum memory used throughout the entire GTOINT-calculation: 51.0 MB


           ************************************************************
           *        Program running with 102 parallel MPI-processes   *
           *              working on a common directory               *
           ************************************************************
-------------------------------------------------------------------------------
                                 ORCA SCF
-------------------------------------------------------------------------------

------------
SCF SETTINGS
------------
Hamiltonian:
 Density Functional     Method          .... DFT(GTOs)
 Exchange Functional    Exchange        .... B88
   X-Alpha parameter    XAlpha          ....  0.666667
   Becke's b parameter  XBeta           ....  0.004200
 Correlation Functional Correlation     .... LYP
 LDA part of GGA corr.  LDAOpt          .... VWN-5
 Gradients option       PostSCFGGA      .... off
 Hybrid DFT is turned on
   Fraction HF Exchange ScalHFX         ....  0.200000
   Scaling of DF-GGA-X  ScalDFX         ....  0.720000
   Scaling of DF-GGA-C  ScalDFC         ....  0.810000
   Scaling of DF-LDA-C  ScalLDAC        ....  1.000000
   Perturbative correction              ....  0.000000
   Density functional embedding theory  .... OFF
   NL short-range parameter             ....  4.800000
 RI-approximation to the Coulomb term is turned on
   Number of AuxJ basis functions       .... 1249
   RIJ-COSX (HFX calculated with COS-X)).... on


General Settings:
 Integral files         IntName         .... /home/rudenko/mop_saddle_orca_4_serv/for_orca/m-o2nc6h4chno2ch3_piperidine/orca/start_freq_D/start_f_D
 Hartree-Fock type      HFTyp           .... UHF
 Total Charge           Charge          ....    0
 Multiplicity           Mult            ....    2
 Number of Electrons    NEL             ....  159
 Basis Dimension        Dim             ....  771
 Nuclear Repulsion      ENuc            ....   1727.1021160958 Eh

Convergence Acceleration:
 DIIS                   CNVDIIS         .... on
   Start iteration      DIISMaxIt       ....    12
   Startup error        DIISStart       ....  0.200000
   # of expansion vecs  DIISMaxEq       ....     5
   Bias factor          DIISBfac        ....   1.050
   Max. coefficient     DIISMaxC        ....  10.000
 Trust-Rad. Augm. Hess. CNVTRAH         .... auto
   Auto Start mean grad. ratio tolernc. ....  1.125000
   Auto Start start iteration           ....    20
   Auto Start num. interpolation iter.  ....    10
   Max. Number of Micro iterations      ....    16
   Max. Number of Macro iterations      .... Maxiter - #DIIS iter
   Number of Davidson start vectors     ....     2
   Converg. threshold I  (grad. norm)   ....   1.000e-05
   Converg. threshold II (energy diff.) ....   1.000e-08
   Grad. Scal. Fac. for Micro threshold ....   0.100
   Minimum threshold for Micro iter.    ....   0.010
   NR start threshold (gradient norm)   ....   0.001
   Initial trust radius                 ....   0.400
   Minimum AH scaling param. (alpha)    ....   1.000
   Maximum AH scaling param. (alpha)    .... 1000.000
   Orbital update algorithm             .... Taylor
   White noise on init. David. guess    .... on
   Maximum white noise                  ....   0.010
   Quad. conv. algorithm                .... NR
 SOSCF                  CNVSOSCF        .... off
 Level Shifting         CNVShift        .... on
   Level shift para.    LevelShift      ....    0.2500
   Turn off err/grad.   ShiftErr        ....    0.0010
 Zerner damping         CNVZerner       .... off
 Static damping         CNVDamp         .... on
   Fraction old density DampFac         ....    0.7000
   Max. Damping (<1)    DampMax         ....    0.9800
   Min. Damping (>=0)   DampMin         ....    0.0000
   Turn off err/grad.   DampErr         ....    0.1000
 Fernandez-Rico         CNVRico         .... off

SCF Procedure:
 Maximum # iterations   MaxIter         ....   125
 SCF integral mode      SCFMode         .... Direct
   Integral package                     .... SHARK and LIBINT hybrid scheme
 Reset frequency        DirectResetFreq ....    20
 Integral Threshold     Thresh          ....  2.500e-11 Eh
 Primitive CutOff       TCut            ....  2.500e-12 Eh

Convergence Tolerance:
 Convergence Check Mode ConvCheckMode   .... Total+1el-Energy
 Convergence forced     ConvForced      .... 0
 Energy Change          TolE            ....  1.000e-08 Eh
 1-El. energy change                    ....  1.000e-05 Eh
 DIIS Error             TolErr          ....  5.000e-07


Diagonalization of the overlap matrix:
Smallest eigenvalue                        ... 6.504e-06
Time for diagonalization                   ...    0.430 sec
Threshold for overlap eigenvalues          ... 1.000e-08
Number of eigenvalues below threshold      ... 0
Time for construction of square roots      ...    0.587 sec
Total time needed                          ...    1.022 sec

Time for model grid setup =    0.307 sec

------------------------------
INITIAL GUESS: MODEL POTENTIAL
------------------------------
Loading Hartree-Fock densities                     ... done
Calculating cut-offs                               ... done
Initializing the effective Hamiltonian             ... done
Setting up the integral package (SHARK)            ... done
Starting the Coulomb interaction                   ... done (   0.1 sec)
Reading the grid                                   ... done
Mapping shells                                     ... done
Starting the XC term evaluation                    ... done (   0.1 sec)
  promolecular density results
     # of electrons  =    158.986350389
     EX              =   -133.492359128
     EC              =     -5.445773196
     EX+EC           =   -138.938132324
Transforming the Hamiltonian                       ... done (   0.6 sec)
Diagonalizing the Hamiltonian                      ... done (   0.3 sec)
Back transforming the eigenvectors                 ... done (   0.1 sec)
Now organizing SCF variables                       ... done
                      ------------------
                      INITIAL GUESS DONE (   1.8 sec)
                      ------------------
-------------------
DFT GRID GENERATION
-------------------

General Integration Accuracy     IntAcc      ... 4.388
Radial Grid Type                 RadialGrid  ... OptM3 with GC (2021)
Angular Grid (max. ang.)         AngularGrid ... 4 (Lebedev-302)
Angular grid pruning method      GridPruning ... 4 (adaptive)
Weight generation scheme         WeightScheme... Becke
Basis function cutoff            BFCut       ... 1.0000e-11
Integration weight cutoff        WCut        ... 1.0000e-14
Angular grids for H and He will be reduced by one unit
Partially contracted basis set               ... off
Rotationally invariant grid construction     ... off

Total number of grid points                  ...   189134
Total number of batches                      ...     2976
Average number of points per batch           ...       63
Average number of grid points per atom       ...     4613
Time for grid setup =    1.563 sec

--------------------
COSX GRID GENERATION
--------------------

GRIDX 1
-------
General Integration Accuracy     IntAcc      ... 3.816
Radial Grid Type                 RadialGrid  ... OptM3 with GC (2021)
Angular Grid (max. ang.)         AngularGrid ... 1 (Lebedev-50)
Angular grid pruning method      GridPruning ... 4 (adaptive)
Weight generation scheme         WeightScheme... Becke
Basis function cutoff            BFCut       ... 1.0000e-11
Integration weight cutoff        WCut        ... 1.0000e-14
Angular grids for H and He will be reduced by one unit
Partially contracted basis set               ... on
Rotationally invariant grid construction     ... off

Total number of grid points                  ...    24028
Total number of batches                      ...      396
Average number of points per batch           ...       60
Average number of grid points per atom       ...      586
UseSFitting                                  ... on

GRIDX 2
-------
General Integration Accuracy     IntAcc      ... 4.020
Radial Grid Type                 RadialGrid  ... OptM3 with GC (2021)
Angular Grid (max. ang.)         AngularGrid ... 2 (Lebedev-110)
Angular grid pruning method      GridPruning ... 4 (adaptive)
Weight generation scheme         WeightScheme... Becke
Basis function cutoff            BFCut       ... 1.0000e-11
Integration weight cutoff        WCut        ... 1.0000e-14
Angular grids for H and He will be reduced by one unit
Partially contracted basis set               ... on
Rotationally invariant grid construction     ... off

Total number of grid points                  ...    51610
Total number of batches                      ...      826
Average number of points per batch           ...       62
Average number of grid points per atom       ...     1259
UseSFitting                                  ... on

GRIDX 3
-------
General Integration Accuracy     IntAcc      ... 4.338
Radial Grid Type                 RadialGrid  ... OptM3 with GC (2021)
Angular Grid (max. ang.)         AngularGrid ... 3 (Lebedev-194)
Angular grid pruning method      GridPruning ... 4 (adaptive)
Weight generation scheme         WeightScheme... Becke
Basis function cutoff            BFCut       ... 1.0000e-11
Integration weight cutoff        WCut        ... 1.0000e-14
Angular grids for H and He will be reduced by one unit
Partially contracted basis set               ... on
Rotationally invariant grid construction     ... off

Total number of grid points                  ...   112607
Total number of batches                      ...     1781
Average number of points per batch           ...       63
Average number of grid points per atom       ...     2747
UseSFitting                                  ... on

Time for X-Grid setup             =    3.127 sec


--------------------
CPCM SOLVATION MODEL
--------------------
CPCM parameters:
  Epsilon                                         ...      78.4000
  Refrac                                          ...       1.3300
  Rsolv                                           ...       1.3000
  Surface type                                    ... GAUSSIAN VDW
  Epsilon function type                           ...         CPCM
Radii:
 Radius for C  used is    3.8550 Bohr (=   2.0400 Ang.)
 Radius for H  used is    2.4944 Bohr (=   1.3200 Ang.)
 Radius for N  used is    3.5149 Bohr (=   1.8600 Ang.)
 Radius for O  used is    3.4469 Bohr (=   1.8240 Ang.)
Calculating surface                               ...        done! (  0.0s)
GEPOL surface points                              ...         2273
GEPOL Volume                                      ...    2439.8087
GEPOL Surface-area                                ...    1306.1354
Calculating surface distance matrix               ...        done! (  0.3s)
Performing Cholesky decomposition & store         ...        done! (  0.9s)
Overall time for CPCM initialization              ...                 1.2s
--------------
SCF ITERATIONS
--------------
ITER       Energy         Delta-E        Max-DP      RMS-DP      [F,P]     Damp
               ***  Starting incremental Fock matrix formation  ***
  0  -1046.7078384359   0.000000000000 0.12341624  0.00070742  0.1739842 0.7000
  1  -1047.0510277522  -0.343189316216 0.09962582  0.00055647  0.0697707 0.7000
                               ***Turning on DIIS***
  2  -1047.1716337191  -0.120605966961 0.08846679  0.00063569  0.0181200 0.0000
  3  -1047.3835055237  -0.211871804561 0.09818559  0.00052662  0.0394807 0.0000
  4  -1047.4206671075  -0.037161583776 0.02046958  0.00013649  0.0104072 0.0000
  5  -1047.4234495589  -0.002782451443 0.00724807  0.00005071  0.0026665 0.0000
  6  -1047.4236638403  -0.000214281360 0.00495919  0.00003314  0.0006326 0.0000
               *** Restarting incremental Fock matrix formation ***
                                   *** Resetting DIIS ***
  7  -1047.4236809578  -0.000017117542 0.00305506  0.00001810  0.0008917 0.0000
  8  -1047.4236740801   0.000006877689 0.00108985  0.00000630  0.0014031 0.0000
  9  -1047.4236881824  -0.000014102295 0.00088767  0.00000518  0.0002816 0.0000
 10  -1047.4236890673  -0.000000884909 0.00009525  0.00000077  0.0000729 0.0000
 11  -1047.4236891544  -0.000000087126 0.00006683  0.00000062  0.0000714 0.0000
 12  -1047.4236892061  -0.000000051644 0.00004216  0.00000033  0.0000251 0.0000
 13  -1047.4236892162  -0.000000010147 0.00003313  0.00000032  0.0000318 0.0000
 14  -1047.4236892159   0.000000000325 0.00016978  0.00000087  0.0000066 0.0000
 15  -1047.4236892018   0.000000014103 0.00015895  0.00000090  0.0000046 0.0000
 16  -1047.4236892180  -0.000000016226 0.00003743  0.00000030  0.0000012 0.0000
 17  -1047.4236892352  -0.000000017182 0.00002284  0.00000015  0.0000012 0.0000
                            ***DIIS convergence achieved***

               *****************************************************
               *                     SUCCESS                       *
               *           SCF CONVERGED AFTER  18 CYCLES          *
               *****************************************************

Old exchange energy                            =    -27.071452565 Eh
New exchange energy                            =    -27.071458316 Eh
Exchange energy change after final integration =     -0.000005750 Eh
Total energy after final integration           =  -1047.423694972 Eh
Final COS-X integration done in                =     5.153 sec

----------------
TOTAL SCF ENERGY
----------------

Total Energy       :        -1047.42369497 Eh          -28501.84775 eV

Components:
Nuclear Repulsion  :         1727.10211610 Eh           46996.83785 eV
Electronic Energy  :        -2774.52581107 Eh          -75498.68560 eV
One Electron Energy:        -4857.83590809 Eh         -132188.43539 eV
Two Electron Energy:         2083.31009702 Eh           56689.74979 eV
Max COSX asymmetry :            0.00000036 Eh               0.00001 eV
CPCM Dielectric    :           -0.03595998 Eh              -0.97852 eV

Virial components:
Potential Energy   :        -2090.51587797 Eh          -56885.82906 eV
Kinetic Energy     :         1043.09218300 Eh           28383.98131 eV
Virial Ratio       :            2.00415257


DFT components:
N(Alpha)           :       80.000111353726 electrons
N(Beta)            :       79.000094353485 electrons
N(Total)           :      159.000205707211 electrons
E(X)               :     -107.734859618042 Eh       
E(C)               :       -6.407728674835 Eh       
E(XC)              :     -114.142588292877 Eh       
DFET-embed. en.    :        0.000000000000 Eh       
CPCM Solvation Model Properties:
Surface-charge          :           -0.03075591
Charge-correction       :            0.00003551 Eh               0.00097 eV
Free-energy (cav+disp)  :  This term is not implemented in the current solvation scheme

---------------
SCF CONVERGENCE
---------------

  Last Energy change         ...    1.3993e-08  Tolerance :   1.0000e-08
  Last MAX-Density change    ...    0.0000e+00  Tolerance :   1.0000e-07
  Last RMS-Density change    ...    0.0000e+00  Tolerance :   5.0000e-09
  Last DIIS Error            ...    8.0731e-07  Tolerance :   5.0000e-07

             **** THE GBW FILE WAS UPDATED (/home/rudenko/mop_saddle_orca_4_serv/for_orca/m-o2nc6h4chno2ch3_piperidine/orca/start_freq_D/start_f_D.gbw) ****
             **** DENSITY /home/rudenko/mop_saddle_orca_4_serv/for_orca/m-o2nc6h4chno2ch3_piperidine/orca/start_freq_D/start_f_D.scfp WAS UPDATED ****
             **** ENERGY FILE WAS UPDATED (/home/rudenko/mop_saddle_orca_4_serv/for_orca/m-o2nc6h4chno2ch3_piperidine/orca/start_freq_D/start_f_D.en.tmp) ****
----------------------
UHF SPIN CONTAMINATION
----------------------

Warning: in a DFT calculation there is little theoretical justification to 
         calculate <S**2> as in Hartree-Fock theory. We will do it anyways
         but you should keep in mind that the values have only limited relevance

Expectation value of <S**2>     :     0.754092
Ideal value S*(S+1) for S=0.5   :     0.750000
Deviation                       :     0.004092

             **** THE GBW FILE WAS UPDATED (/home/rudenko/mop_saddle_orca_4_serv/for_orca/m-o2nc6h4chno2ch3_piperidine/orca/start_freq_D/start_f_D.gbw) ****
             **** DENSITY /home/rudenko/mop_saddle_orca_4_serv/for_orca/m-o2nc6h4chno2ch3_piperidine/orca/start_freq_D/start_f_D.scfp WAS UPDATED ****
----------------
ORBITAL ENERGIES
----------------
                 SPIN UP ORBITALS
  NO   OCC          E(Eh)            E(eV) 
   0   1.0000     -19.174235      -521.7575 
   1   1.0000     -19.172351      -521.7062 
   2   1.0000     -19.171041      -521.6706 
   3   1.0000     -19.170935      -521.6677 
   4   1.0000     -19.098502      -519.6967 
   5   1.0000     -14.564365      -396.3165 
   6   1.0000     -14.554978      -396.0611 
   7   1.0000     -14.309650      -389.3854 
   8   1.0000     -10.242782      -278.7203 
   9   1.0000     -10.238703      -278.6093 
  10   1.0000     -10.210628      -277.8453 
  11   1.0000     -10.204850      -277.6881 
  12   1.0000     -10.202670      -277.6288 
  13   1.0000     -10.197470      -277.4873 
  14   1.0000     -10.193876      -277.3895 
  15   1.0000     -10.190074      -277.2860 
  16   1.0000     -10.186270      -277.1825 
  17   1.0000     -10.171316      -276.7756 
  18   1.0000     -10.169464      -276.7252 
  19   1.0000     -10.163289      -276.5572 
  20   1.0000     -10.159318      -276.4491 
  21   1.0000      -1.244694       -33.8698 
  22   1.0000      -1.243898       -33.8482 
  23   1.0000      -1.071189       -29.1485 
  24   1.0000      -1.069263       -29.0961 
  25   1.0000      -0.979896       -26.6643 
  26   1.0000      -0.914549       -24.8862 
  27   1.0000      -0.902677       -24.5631 
  28   1.0000      -0.850472       -23.1425 
  29   1.0000      -0.807384       -21.9700 
  30   1.0000      -0.783435       -21.3184 
  31   1.0000      -0.765635       -20.8340 
  32   1.0000      -0.749677       -20.3997 
  33   1.0000      -0.712313       -19.3830 
  34   1.0000      -0.702940       -19.1280 
  35   1.0000      -0.645745       -17.5716 
  36   1.0000      -0.640557       -17.4304 
  37   1.0000      -0.616289       -16.7701 
  38   1.0000      -0.610498       -16.6125 
  39   1.0000      -0.593450       -16.1486 
  40   1.0000      -0.575011       -15.6468 
  41   1.0000      -0.558467       -15.1967 
  42   1.0000      -0.551079       -14.9956 
  43   1.0000      -0.549702       -14.9581 
  44   1.0000      -0.539830       -14.6895 
  45   1.0000      -0.531606       -14.4657 
  46   1.0000      -0.525722       -14.3056 
  47   1.0000      -0.512374       -13.9424 
  48   1.0000      -0.508872       -13.8471 
  49   1.0000      -0.492292       -13.3960 
  50   1.0000      -0.486258       -13.2317 
  51   1.0000      -0.455265       -12.3884 
  52   1.0000      -0.454353       -12.3636 
  53   1.0000      -0.451729       -12.2922 
  54   1.0000      -0.443366       -12.0646 
  55   1.0000      -0.430267       -11.7082 
  56   1.0000      -0.419256       -11.4085 
  57   1.0000      -0.410940       -11.1822 
  58   1.0000      -0.407326       -11.0839 
  59   1.0000      -0.396293       -10.7837 
  60   1.0000      -0.392850       -10.6900 
  61   1.0000      -0.388057       -10.5596 
  62   1.0000      -0.384084       -10.4515 
  63   1.0000      -0.374254       -10.1840 
  64   1.0000      -0.368795       -10.0354 
  65   1.0000      -0.366047        -9.9606 
  66   1.0000      -0.349047        -9.4981 
  67   1.0000      -0.334397        -9.0994 
  68   1.0000      -0.333941        -9.0870 
  69   1.0000      -0.333027        -9.0621 
  70   1.0000      -0.331025        -9.0076 
  71   1.0000      -0.323245        -8.7959 
  72   1.0000      -0.322110        -8.7651 
  73   1.0000      -0.312375        -8.5002 
  74   1.0000      -0.310958        -8.4616 
  75   1.0000      -0.295013        -8.0277 
  76   1.0000      -0.286510        -7.7963 
  77   1.0000      -0.278694        -7.5836 
  78   1.0000      -0.242040        -6.5862 
  79   1.0000      -0.189270        -5.1503 
  80   0.0000      -0.105441        -2.8692 
  81   0.0000      -0.083183        -2.2635 
  82   0.0000      -0.037765        -1.0276 
  83   0.0000      -0.009174        -0.2496 
  84   0.0000       0.030033         0.8172 
  85   0.0000       0.047753         1.2994 
  86   0.0000       0.052457         1.4274 
  87   0.0000       0.064264         1.7487 
  88   0.0000       0.069148         1.8816 
  89   0.0000       0.072092         1.9617 
  90   0.0000       0.086854         2.3634 
  91   0.0000       0.088681         2.4131 
  92   0.0000       0.089843         2.4447 
  93   0.0000       0.097612         2.6562 
  94   0.0000       0.101570         2.7639 
  95   0.0000       0.109369         2.9761 
  96   0.0000       0.115269         3.1366 
  97   0.0000       0.115780         3.1505 
  98   0.0000       0.123599         3.3633 
  99   0.0000       0.127389         3.4664 
 100   0.0000       0.133093         3.6216 
 101   0.0000       0.135232         3.6799 
 102   0.0000       0.141199         3.8422 
 103   0.0000       0.145991         3.9726 
 104   0.0000       0.150323         4.0905 
 105   0.0000       0.162171         4.4129 
 106   0.0000       0.167561         4.5596 
 107   0.0000       0.170299         4.6341 
 108   0.0000       0.177532         4.8309 
 109   0.0000       0.180776         4.9192 
 110   0.0000       0.189015         5.1434 
 111   0.0000       0.195930         5.3315 
 112   0.0000       0.199703         5.4342 
 113   0.0000       0.207683         5.6513 
 114   0.0000       0.208093         5.6625 
 115   0.0000       0.211226         5.7478 
 116   0.0000       0.217620         5.9217 
 117   0.0000       0.220377         5.9968 
 118   0.0000       0.223298         6.0762 
 119   0.0000       0.229933         6.2568 
 120   0.0000       0.235268         6.4020 
 121   0.0000       0.237091         6.4516 
 122   0.0000       0.244550         6.6545 
 123   0.0000       0.251561         6.8453 
 124   0.0000       0.253570         6.9000 
 125   0.0000       0.258481         7.0336 
 126   0.0000       0.264139         7.1876 
 127   0.0000       0.267042         7.2666 
 128   0.0000       0.269758         7.3405 
 129   0.0000       0.276123         7.5137 
 130   0.0000       0.280645         7.6367 
 131   0.0000       0.288555         7.8520 
 132   0.0000       0.289181         7.8690 
 133   0.0000       0.295410         8.0385 
 134   0.0000       0.304237         8.2787 
 135   0.0000       0.306958         8.3528 
 136   0.0000       0.307674         8.3722 
 137   0.0000       0.317330         8.6350 
 138   0.0000       0.325360         8.8535 
 139   0.0000       0.327140         8.9019 
 140   0.0000       0.330925         9.0049 
 141   0.0000       0.343161         9.3379 
 142   0.0000       0.348957         9.4956 
 143   0.0000       0.349979         9.5234 
 144   0.0000       0.352511         9.5923 
 145   0.0000       0.364047         9.9062 
 146   0.0000       0.366928         9.9846 
 147   0.0000       0.370741        10.0884 
 148   0.0000       0.376349        10.2410 
 149   0.0000       0.381911        10.3923 
 150   0.0000       0.386838        10.5264 
 151   0.0000       0.393430        10.7058 
 152   0.0000       0.395830        10.7711 
 153   0.0000       0.400720        10.9041 
 154   0.0000       0.405574        11.0362 
 155   0.0000       0.408122        11.1056 
 156   0.0000       0.415914        11.3176 
 157   0.0000       0.416727        11.3397 
 158   0.0000       0.423663        11.5285 
 159   0.0000       0.427154        11.6234 
 160   0.0000       0.431719        11.7477 
 161   0.0000       0.436793        11.8857 
 162   0.0000       0.439714        11.9652 
 163   0.0000       0.445309        12.1175 
 164   0.0000       0.450318        12.2538 
 165   0.0000       0.451380        12.2827 
 166   0.0000       0.455225        12.3873 
 167   0.0000       0.459195        12.4953 
 168   0.0000       0.461412        12.5557 
 169   0.0000       0.462728        12.5915 
 170   0.0000       0.467826        12.7302 
 171   0.0000       0.472114        12.8469 
 172   0.0000       0.473043        12.8722 
 173   0.0000       0.474926        12.9234 
 174   0.0000       0.487368        13.2620 
 175   0.0000       0.491369        13.3708 
 176   0.0000       0.493273        13.4226 
 177   0.0000       0.498040        13.5523 
 178   0.0000       0.502757        13.6807 
 179   0.0000       0.505529        13.7561 
 180   0.0000       0.509233        13.8569 
 181   0.0000       0.514733        14.0066 
 182   0.0000       0.520170        14.1545 
 183   0.0000       0.523580        14.2473 
 184   0.0000       0.527236        14.3468 
 185   0.0000       0.537257        14.6195 
 186   0.0000       0.539518        14.6810 
 187   0.0000       0.541690        14.7401 
 188   0.0000       0.547767        14.9055 
 189   0.0000       0.558999        15.2111 
 190   0.0000       0.560662        15.2564 
 191   0.0000       0.563391        15.3306 
 192   0.0000       0.572638        15.5823 
 193   0.0000       0.579024        15.7560 
 194   0.0000       0.587138        15.9768 
 195   0.0000       0.596047        16.2193 
 196   0.0000       0.598993        16.2994 
 197   0.0000       0.605033        16.4638 
 198   0.0000       0.613934        16.7060 
 199   0.0000       0.619370        16.8539 
 200   0.0000       0.622769        16.9464 
 201   0.0000       0.626144        17.0382 
 202   0.0000       0.632441        17.2096 
 203   0.0000       0.642659        17.4876 
 204   0.0000       0.646775        17.5997 
 205   0.0000       0.652900        17.7663 
 206   0.0000       0.659381        17.9427 
 207   0.0000       0.662497        18.0275 
 208   0.0000       0.671430        18.2705 
 209   0.0000       0.676088        18.3973 
 210   0.0000       0.689832        18.7713 
 211   0.0000       0.695325        18.9208 
 212   0.0000       0.701437        19.0871 
 213   0.0000       0.709728        19.3127 
 214   0.0000       0.719465        19.5776 
 215   0.0000       0.721244        19.6260 
 216   0.0000       0.724879        19.7250 
 217   0.0000       0.736710        20.0469 
 218   0.0000       0.746595        20.3159 
 219   0.0000       0.748157        20.3584 
 220   0.0000       0.760870        20.7043 
 221   0.0000       0.766530        20.8583 
 222   0.0000       0.775125        21.0922 
 223   0.0000       0.778334        21.1795 
 224   0.0000       0.789336        21.4789 
 225   0.0000       0.798356        21.7244 
 226   0.0000       0.800625        21.7861 
 227   0.0000       0.815612        22.1939 
 228   0.0000       0.823259        22.4020 
 229   0.0000       0.828163        22.5355 
 230   0.0000       0.830669        22.6036 
 231   0.0000       0.843718        22.9587 
 232   0.0000       0.849729        23.1223 
 233   0.0000       0.866322        23.5738 
 234   0.0000       0.870711        23.6932 
 235   0.0000       0.873426        23.7671 
 236   0.0000       0.887853        24.1597 
 237   0.0000       0.898973        24.4623 
 238   0.0000       0.909276        24.7426 
 239   0.0000       0.913256        24.8510 
 240   0.0000       0.917637        24.9702 
 241   0.0000       0.934185        25.4205 
 242   0.0000       0.940315        25.5873 
 243   0.0000       0.949063        25.8253 
 244   0.0000       0.959096        26.0983 
 245   0.0000       0.967934        26.3388 
 246   0.0000       0.980133        26.6708 
 247   0.0000       0.986332        26.8395 
 248   0.0000       0.988322        26.8936 
 249   0.0000       1.010373        27.4936 
 250   0.0000       1.023261        27.8444 
 251   0.0000       1.035382        28.1742 
 252   0.0000       1.042428        28.3659 
 253   0.0000       1.047312        28.4988 
 254   0.0000       1.047769        28.5113 
 255   0.0000       1.056188        28.7403 
 256   0.0000       1.064958        28.9790 
 257   0.0000       1.071037        29.1444 
 258   0.0000       1.083793        29.4915 
 259   0.0000       1.093480        29.7551 
 260   0.0000       1.100928        29.9578 
 261   0.0000       1.105336        30.0777 
 262   0.0000       1.108085        30.1525 
 263   0.0000       1.113736        30.3063 
 264   0.0000       1.124944        30.6113 
 265   0.0000       1.129247        30.7284 
 266   0.0000       1.136814        30.9343 
 267   0.0000       1.145709        31.1763 
 268   0.0000       1.158290        31.5187 
 269   0.0000       1.162410        31.6308 
 270   0.0000       1.167786        31.7771 
 271   0.0000       1.174901        31.9707 
 272   0.0000       1.187882        32.3239 
 273   0.0000       1.195040        32.5187 
 274   0.0000       1.209042        32.8997 
 275   0.0000       1.220286        33.2057 
 276   0.0000       1.225844        33.3569 
 277   0.0000       1.233941        33.5772 
 278   0.0000       1.244280        33.8586 
 279   0.0000       1.250055        34.0157 
 280   0.0000       1.253166        34.1004 
 281   0.0000       1.270088        34.5608 
 282   0.0000       1.281438        34.8697 
 283   0.0000       1.288273        35.0557 
 284   0.0000       1.296345        35.2753 
 285   0.0000       1.300195        35.3801 
 286   0.0000       1.303990        35.4834 
 287   0.0000       1.315936        35.8084 
 288   0.0000       1.327679        36.1280 
 289   0.0000       1.336965        36.3807 
 290   0.0000       1.345456        36.6117 
 291   0.0000       1.358762        36.9738 
 292   0.0000       1.373649        37.3789 
 293   0.0000       1.383840        37.6562 
 294   0.0000       1.398919        38.0665 
 295   0.0000       1.400971        38.1224 
 296   0.0000       1.407220        38.2924 
 297   0.0000       1.416896        38.5557 
 298   0.0000       1.427025        38.8313 
 299   0.0000       1.439461        39.1697 
 300   0.0000       1.445640        39.3379 
 301   0.0000       1.448532        39.4166 
 302   0.0000       1.473846        40.1054 
 303   0.0000       1.478274        40.2259 
 304   0.0000       1.487497        40.4768 
 305   0.0000       1.490735        40.5650 
 306   0.0000       1.498511        40.7766 
 307   0.0000       1.500315        40.8256 
 308   0.0000       1.503494        40.9121 
 309   0.0000       1.517708        41.2989 
 310   0.0000       1.526581        41.5404 
 311   0.0000       1.533254        41.7220 
 312   0.0000       1.535679        41.7879 
 313   0.0000       1.547146        42.1000 
 314   0.0000       1.556983        42.3676 
 315   0.0000       1.562700        42.5232 
 316   0.0000       1.574912        42.8555 
 317   0.0000       1.588307        43.2200 
 318   0.0000       1.591641        43.3107 
 319   0.0000       1.599750        43.5314 
 320   0.0000       1.610543        43.8251 
 321   0.0000       1.614184        43.9242 
 322   0.0000       1.617034        44.0017 
 323   0.0000       1.626183        44.2507 
 324   0.0000       1.630423        44.3661 
 325   0.0000       1.637103        44.5478 
 326   0.0000       1.645965        44.7890 
 327   0.0000       1.652868        44.9768 
 328   0.0000       1.657604        45.1057 
 329   0.0000       1.661157        45.2024 
 330   0.0000       1.673038        45.5257 
 331   0.0000       1.683368        45.8068 
 332   0.0000       1.684261        45.8311 
 333   0.0000       1.694928        46.1213 
 334   0.0000       1.699905        46.2568 
 335   0.0000       1.704881        46.3922 
 336   0.0000       1.713231        46.6194 
 337   0.0000       1.718147        46.7532 
 338   0.0000       1.725396        46.9504 
 339   0.0000       1.735240        47.2183 
 340   0.0000       1.741873        47.3988 
 341   0.0000       1.745854        47.5071 
 342   0.0000       1.757815        47.8326 
 343   0.0000       1.758723        47.8573 
 344   0.0000       1.769903        48.1615 
 345   0.0000       1.774232        48.2793 
 346   0.0000       1.783249        48.5247 
 347   0.0000       1.793405        48.8010 
 348   0.0000       1.799262        48.9604 
 349   0.0000       1.805878        49.1404 
 350   0.0000       1.820102        49.5275 
 351   0.0000       1.824206        49.6392 
 352   0.0000       1.839443        50.0538 
 353   0.0000       1.849903        50.3384 
 354   0.0000       1.857980        50.5582 
 355   0.0000       1.868495        50.8443 
 356   0.0000       1.875312        51.0298 
 357   0.0000       1.886342        51.3300 
 358   0.0000       1.903889        51.8074 
 359   0.0000       1.909801        51.9683 
 360   0.0000       1.922053        52.3017 
 361   0.0000       1.933549        52.6145 
 362   0.0000       1.940125        52.7935 
 363   0.0000       1.951300        53.0976 
 364   0.0000       1.953562        53.1591 
 365   0.0000       1.955610        53.2148 
 366   0.0000       1.961847        53.3846 
 367   0.0000       1.978943        53.8498 
 368   0.0000       1.981873        53.9295 
 369   0.0000       1.988751        54.1167 
 370   0.0000       1.997103        54.3439 
 371   0.0000       2.001060        54.4516 
 372   0.0000       2.006706        54.6052 
 373   0.0000       2.021067        54.9960 
 374   0.0000       2.033911        55.3455 
 375   0.0000       2.041111        55.5414 
 376   0.0000       2.050375        55.7935 
 377   0.0000       2.057736        55.9938 
 378   0.0000       2.069747        56.3207 
 379   0.0000       2.077278        56.5256 
 380   0.0000       2.080769        56.6206 
 381   0.0000       2.089534        56.8591 
 382   0.0000       2.096441        57.0471 
 383   0.0000       2.104173        57.2575 
 384   0.0000       2.111401        57.4541 
 385   0.0000       2.117699        57.6255 
 386   0.0000       2.131523        58.0017 
 387   0.0000       2.140416        58.2437 
 388   0.0000       2.144486        58.3544 
 389   0.0000       2.149560        58.4925 
 390   0.0000       2.156365        58.6777 
 391   0.0000       2.160270        58.7839 
 392   0.0000       2.171670        59.0941 
 393   0.0000       2.174994        59.1846 
 394   0.0000       2.178776        59.2875 
 395   0.0000       2.184000        59.4297 
 396   0.0000       2.196407        59.7673 
 397   0.0000       2.211562        60.1797 
 398   0.0000       2.216575        60.3161 
 399   0.0000       2.232114        60.7389 
 400   0.0000       2.251352        61.2624 
 401   0.0000       2.258274        61.4508 
 402   0.0000       2.263369        61.5894 
 403   0.0000       2.270140        61.7737 
 404   0.0000       2.276644        61.9506 
 405   0.0000       2.278347        61.9970 
 406   0.0000       2.292254        62.3754 
 407   0.0000       2.299388        62.5695 
 408   0.0000       2.320954        63.1564 
 409   0.0000       2.340346        63.6840 
 410   0.0000       2.354532        64.0701 
 411   0.0000       2.369982        64.4905 
 412   0.0000       2.382810        64.8396 
 413   0.0000       2.388362        64.9906 
 414   0.0000       2.413918        65.6861 
 415   0.0000       2.417771        65.7909 
 416   0.0000       2.418593        65.8133 
 417   0.0000       2.430495        66.1371 
 418   0.0000       2.436484        66.3001 
 419   0.0000       2.446658        66.5769 
 420   0.0000       2.465877        67.0999 
 421   0.0000       2.467578        67.1462 
 422   0.0000       2.473561        67.3090 
 423   0.0000       2.484313        67.6016 
 424   0.0000       2.491935        67.8090 
 425   0.0000       2.498219        67.9800 
 426   0.0000       2.506569        68.2072 
 427   0.0000       2.522650        68.6448 
 428   0.0000       2.525018        68.7092 
 429   0.0000       2.527926        68.7884 
 430   0.0000       2.539821        69.1120 
 431   0.0000       2.549062        69.3635 
 432   0.0000       2.549772        69.3828 
 433   0.0000       2.560271        69.6685 
 434   0.0000       2.571948        69.9863 
 435   0.0000       2.576569        70.1120 
 436   0.0000       2.597207        70.6736 
 437   0.0000       2.600584        70.7655 
 438   0.0000       2.608070        70.9692 
 439   0.0000       2.611892        71.0732 
 440   0.0000       2.615299        71.1659 
 441   0.0000       2.624068        71.4045 
 442   0.0000       2.625278        71.4374 
 443   0.0000       2.633484        71.6607 
 444   0.0000       2.633602        71.6639 
 445   0.0000       2.641918        71.8903 
 446   0.0000       2.651878        72.1613 
 447   0.0000       2.654415        72.2303 
 448   0.0000       2.664658        72.5090 
 449   0.0000       2.669057        72.6287 
 450   0.0000       2.673970        72.7624 
 451   0.0000       2.682558        72.9961 
 452   0.0000       2.684897        73.0598 
 453   0.0000       2.693023        73.2809 
 454   0.0000       2.701600        73.5143 
 455   0.0000       2.706774        73.6551 
 456   0.0000       2.716370        73.9162 
 457   0.0000       2.720057        74.0165 
 458   0.0000       2.720773        74.0360 
 459   0.0000       2.724773        74.1448 
 460   0.0000       2.728411        74.2439 
 461   0.0000       2.738711        74.5241 
 462   0.0000       2.752756        74.9063 
 463   0.0000       2.753916        74.9379 
 464   0.0000       2.773490        75.4705 
 465   0.0000       2.783920        75.7543 
 466   0.0000       2.788320        75.8741 
 467   0.0000       2.792742        75.9944 
 468   0.0000       2.794217        76.0345 
 469   0.0000       2.800381        76.2023 
 470   0.0000       2.809077        76.4389 
 471   0.0000       2.814372        76.5830 
 472   0.0000       2.819860        76.7323 
 473   0.0000       2.821548        76.7782 
 474   0.0000       2.836128        77.1750 
 475   0.0000       2.840570        77.2958 
 476   0.0000       2.851744        77.5999 
 477   0.0000       2.855099        77.6912 
 478   0.0000       2.866021        77.9884 
 479   0.0000       2.871384        78.1343 
 480   0.0000       2.884172        78.4823 
 481   0.0000       2.892646        78.7129 
 482   0.0000       2.913227        79.2729 
 483   0.0000       2.919534        79.4446 
 484   0.0000       2.933597        79.8272 
 485   0.0000       2.947849        80.2150 
 486   0.0000       2.951957        80.3268 
 487   0.0000       2.957219        80.4700 
 488   0.0000       2.967811        80.7582 
 489   0.0000       2.968284        80.7711 
 490   0.0000       2.984015        81.1992 
 491   0.0000       3.000766        81.6550 
 492   0.0000       3.003211        81.7215 
 493   0.0000       3.010397        81.9171 
 494   0.0000       3.024212        82.2930 
 495   0.0000       3.032982        82.5316 
 496   0.0000       3.038560        82.6834 
 497   0.0000       3.053897        83.1008 
 498   0.0000       3.062305        83.3295 
 499   0.0000       3.066549        83.4450 
 500   0.0000       3.076823        83.7246 
 501   0.0000       3.090189        84.0883 
 502   0.0000       3.092515        84.1516 
 503   0.0000       3.095615        84.2360 
 504   0.0000       3.106807        84.5405 
 505   0.0000       3.108784        84.5943 
 506   0.0000       3.118216        84.8510 
 507   0.0000       3.130111        85.1746 
 508   0.0000       3.142873        85.5219 
 509   0.0000       3.148208        85.6671 
 510   0.0000       3.154244        85.8313 
 511   0.0000       3.162655        86.0602 
 512   0.0000       3.176033        86.4243 
 513   0.0000       3.183375        86.6240 
 514   0.0000       3.186110        86.6984 
 515   0.0000       3.192051        86.8601 
 516   0.0000       3.199432        87.0610 
 517   0.0000       3.205566        87.2279 
 518   0.0000       3.213242        87.4368 
 519   0.0000       3.218516        87.5803 
 520   0.0000       3.219174        87.5982 
 521   0.0000       3.228468        87.8511 
 522   0.0000       3.243913        88.2714 
 523   0.0000       3.247761        88.3761 
 524   0.0000       3.252474        88.5043 
 525   0.0000       3.267783        88.9209 
 526   0.0000       3.272052        89.0371 
 527   0.0000       3.275100        89.1200 
 528   0.0000       3.281934        89.3060 
 529   0.0000       3.288122        89.4743 
 530   0.0000       3.291961        89.5788 
 531   0.0000       3.301826        89.8472 
 532   0.0000       3.305963        89.9598 
 533   0.0000       3.318207        90.2930 
 534   0.0000       3.324095        90.4532 
 535   0.0000       3.332955        90.6943 
 536   0.0000       3.336268        90.7845 
 537   0.0000       3.343910        90.9924 
 538   0.0000       3.354425        91.2785 
 539   0.0000       3.368977        91.6745 
 540   0.0000       3.377562        91.9081 
 541   0.0000       3.381114        92.0048 
 542   0.0000       3.391236        92.2802 
 543   0.0000       3.399704        92.5107 
 544   0.0000       3.405805        92.6767 
 545   0.0000       3.418839        93.0313 
 546   0.0000       3.429728        93.3276 
 547   0.0000       3.445200        93.7487 
 548   0.0000       3.446985        93.7972 
 549   0.0000       3.456140        94.0464 
 550   0.0000       3.464059        94.2618 
 551   0.0000       3.471499        94.4643 
 552   0.0000       3.488906        94.9379 
 553   0.0000       3.495064        95.1055 
 554   0.0000       3.501560        95.2823 
 555   0.0000       3.504918        95.3737 
 556   0.0000       3.510032        95.5128 
 557   0.0000       3.517240        95.7090 
 558   0.0000       3.529486        96.0422 
 559   0.0000       3.543743        96.4301 
 560   0.0000       3.547220        96.5248 
 561   0.0000       3.566397        97.0466 
 562   0.0000       3.578865        97.3859 
 563   0.0000       3.582681        97.4897 
 564   0.0000       3.591157        97.7204 
 565   0.0000       3.600579        97.9767 
 566   0.0000       3.616237        98.4028 
 567   0.0000       3.646723        99.2324 
 568   0.0000       3.651273        99.3562 
 569   0.0000       3.661997        99.6480 
 570   0.0000       3.685584       100.2898 
 571   0.0000       3.692705       100.4836 
 572   0.0000       3.711811       101.0035 
 573   0.0000       3.718285       101.1797 
 574   0.0000       3.722586       101.2967 
 575   0.0000       3.740374       101.7807 
 576   0.0000       3.752534       102.1117 
 577   0.0000       3.760530       102.3292 
 578   0.0000       3.778131       102.8082 
 579   0.0000       3.781950       102.9121 
 580   0.0000       3.787942       103.0752 
 581   0.0000       3.808967       103.6473 
 582   0.0000       3.828723       104.1848 
 583   0.0000       3.835487       104.3689 
 584   0.0000       3.854364       104.8826 
 585   0.0000       3.859693       105.0276 
 586   0.0000       3.881862       105.6308 
 587   0.0000       3.907250       106.3217 
 588   0.0000       3.918743       106.6344 
 589   0.0000       3.926694       106.8508 
 590   0.0000       3.942672       107.2856 
 591   0.0000       3.956705       107.6674 
 592   0.0000       3.976101       108.1952 
 593   0.0000       3.988852       108.5422 
 594   0.0000       3.990412       108.5846 
 595   0.0000       4.000065       108.8473 
 596   0.0000       4.008207       109.0688 
 597   0.0000       4.011591       109.1609 
 598   0.0000       4.028498       109.6210 
 599   0.0000       4.039822       109.9291 
 600   0.0000       4.054788       110.3364 
 601   0.0000       4.059851       110.4742 
 602   0.0000       4.072270       110.8121 
 603   0.0000       4.078321       110.9767 
 604   0.0000       4.095662       111.4486 
 605   0.0000       4.111279       111.8736 
 606   0.0000       4.117079       112.0314 
 607   0.0000       4.121211       112.1439 
 608   0.0000       4.141870       112.7060 
 609   0.0000       4.148639       112.8902 
 610   0.0000       4.172327       113.5348 
 611   0.0000       4.176739       113.6548 
 612   0.0000       4.177264       113.6691 
 613   0.0000       4.191849       114.0660 
 614   0.0000       4.207124       114.4817 
 615   0.0000       4.216429       114.7349 
 616   0.0000       4.221080       114.8614 
 617   0.0000       4.234711       115.2323 
 618   0.0000       4.242374       115.4409 
 619   0.0000       4.249568       115.6366 
 620   0.0000       4.266051       116.0851 
 621   0.0000       4.274704       116.3206 
 622   0.0000       4.292628       116.8083 
 623   0.0000       4.311427       117.3199 
 624   0.0000       4.314327       117.3988 
 625   0.0000       4.346943       118.2863 
 626   0.0000       4.375720       119.0694 
 627   0.0000       4.390860       119.4814 
 628   0.0000       4.416296       120.1735 
 629   0.0000       4.423715       120.3754 
 630   0.0000       4.438462       120.7767 
 631   0.0000       4.458957       121.3344 
 632   0.0000       4.467951       121.5791 
 633   0.0000       4.516267       122.8939 
 634   0.0000       4.527547       123.2008 
 635   0.0000       4.534978       123.4030 
 636   0.0000       4.563326       124.1744 
 637   0.0000       4.579600       124.6173 
 638   0.0000       4.586222       124.7975 
 639   0.0000       4.600102       125.1751 
 640   0.0000       4.604029       125.2820 
 641   0.0000       4.622449       125.7832 
 642   0.0000       4.630531       126.0032 
 643   0.0000       4.651073       126.5621 
 644   0.0000       4.653997       126.6417 
 645   0.0000       4.674350       127.1955 
 646   0.0000       4.689850       127.6173 
 647   0.0000       4.709157       128.1427 
 648   0.0000       4.719152       128.4147 
 649   0.0000       4.729516       128.6967 
 650   0.0000       4.742272       129.0438 
 651   0.0000       4.772820       129.8750 
 652   0.0000       4.792467       130.4097 
 653   0.0000       4.804685       130.7421 
 654   0.0000       4.812866       130.9648 
 655   0.0000       4.826969       131.3485 
 656   0.0000       4.844609       131.8285 
 657   0.0000       4.854909       132.1088 
 658   0.0000       4.862360       132.3115 
 659   0.0000       4.884838       132.9232 
 660   0.0000       4.898399       133.2922 
 661   0.0000       4.908712       133.5728 
 662   0.0000       4.917612       133.8150 
 663   0.0000       4.932224       134.2126 
 664   0.0000       4.946723       134.6072 
 665   0.0000       4.986702       135.6951 
 666   0.0000       5.022944       136.6813 
 667   0.0000       5.029462       136.8586 
 668   0.0000       5.068464       137.9199 
 669   0.0000       5.077994       138.1792 
 670   0.0000       5.083429       138.3271 
 671   0.0000       5.087683       138.4429 
 672   0.0000       5.108270       139.0031 
 673   0.0000       5.112322       139.1134 
 674   0.0000       5.122692       139.3955 
 675   0.0000       5.126882       139.5096 
 676   0.0000       5.129418       139.5786 
 677   0.0000       5.135466       139.7431 
 678   0.0000       5.150199       140.1440 
 679   0.0000       5.158502       140.3700 
 680   0.0000       5.175219       140.8249 
 681   0.0000       5.191817       141.2765 
 682   0.0000       5.216152       141.9387 
 683   0.0000       5.233514       142.4112 
 684   0.0000       5.267894       143.3467 
 685   0.0000       5.272530       143.4728 
 686   0.0000       5.280354       143.6857 
 687   0.0000       5.285785       143.8335 
 688   0.0000       5.290992       143.9752 
 689   0.0000       5.334421       145.1570 
 690   0.0000       5.343392       145.4011 
 691   0.0000       5.376628       146.3055 
 692   0.0000       5.387639       146.6051 
 693   0.0000       5.400360       146.9513 
 694   0.0000       5.418944       147.4570 
 695   0.0000       5.427492       147.6896 
 696   0.0000       5.441681       148.0757 
 697   0.0000       5.459696       148.5659 
 698   0.0000       5.478467       149.0767 
 699   0.0000       5.502820       149.7394 
 700   0.0000       5.511739       149.9820 
[...]
  9:     31.58   0.000405    2.05  0.004003  ( 0.049287  0.035498  0.017711)
 10:     35.66   0.000015    0.08  0.000133  (-0.008466 -0.007826  0.000231)
 11:     44.29   0.000990    5.00  0.006975  ( 0.043367  0.035750  0.061774)
 12:     48.92   0.001188    6.00  0.007579  ( 0.014520  0.085796 -0.002623)
 13:     49.15   0.000909    4.59  0.005773  (-0.061239 -0.006995 -0.044426)
 14:     60.53   0.001552    7.84  0.008003  (-0.052535  0.022573 -0.068803)
 15:     73.47   0.000419    2.12  0.001781  ( 0.029719  0.023569 -0.018488)
 16:     87.32   0.000698    3.53  0.002495  ( 0.048672 -0.007654  0.008232)
 17:     93.93   0.007089   35.83  0.023552  ( 0.064930  0.125043  0.060832)
 18:    143.02   0.000066    0.33  0.000144  (-0.011253 -0.000789 -0.004109)
 19:    173.37   0.019071   96.38  0.034329  ( 0.096163  0.121117  0.102040)
 20:    180.37   0.001594    8.05  0.002757  ( 0.005367 -0.046147 -0.024473)
 21:    180.56   0.012616   63.75  0.021803  ( 0.085791  0.105833  0.056945)
 22:    191.17   0.004525   22.87  0.007386  ( 0.052743  0.066214 -0.014832)
 23:    229.10   0.001151    5.82  0.001568  (-0.011730  0.019771 -0.032244)
 24:    233.84   0.001690    8.54  0.002255  (-0.027613 -0.005764  0.038205)
 25:    251.94   0.000100    0.51  0.000124  (-0.009800  0.003523 -0.003991)
 26:    284.17   0.000090    0.46  0.000099  (-0.008912 -0.002466  0.003677)
 27:    302.28   0.000567    2.87  0.000585  ( 0.010584  0.012318 -0.017936)
 28:    335.20   0.001819    9.19  0.001693  (-0.005014 -0.038258 -0.014298)
 29:    369.05   0.000092    0.47  0.000078  ( 0.003499  0.007991  0.001362)
 30:    395.47   0.007797   39.41  0.006153  (-0.022354  0.043727  0.061165)
 31:    398.28   0.001184    5.99  0.000928  (-0.010434 -0.017213 -0.022867)
 32:    436.27   0.000038    0.19  0.000027  (-0.002282 -0.002929  0.003649)
 33:    457.24   0.001183    5.98  0.000808  (-0.015011  0.007158 -0.023045)
 34:    458.84   0.001193    6.03  0.000811  ( 0.002285 -0.003996  0.028108)
 35:    490.09   0.003376   17.06  0.002150  (-0.014771 -0.034613  0.027081)
 36:    520.74   0.001909    9.65  0.001144  (-0.033020  0.001435 -0.007170)
 37:    522.61   0.020493  103.56  0.012237  (-0.007377 -0.054537  0.095959)
 38:    540.16   0.000682    3.45  0.000394  (-0.001088  0.002730  0.019634)
 39:    590.27   0.002690   13.59  0.001422  ( 0.017577  0.021470 -0.025535)
 40:    646.35   0.004251   21.48  0.002052  (-0.016288  0.018556  0.037984)
 41:    654.22   0.001195    6.04  0.000570  ( 0.001019 -0.022315 -0.008415)
 42:    688.64   0.001629    8.23  0.000738  (-0.019566 -0.017684 -0.006533)
 43:    697.04   0.007610   38.46  0.003407  (-0.011176 -0.020669  0.053432)
 44:    750.26   0.013284   67.13  0.005525  ( 0.008693  0.015139 -0.072254)
 45:    787.53   0.001734    8.76  0.000687  ( 0.011335  0.023078  0.005100)
 46:    810.12   0.006810   34.42  0.002623  ( 0.025785  0.041146  0.016294)
 47:    814.26   0.009081   45.89  0.003480  (-0.015038  0.035075 -0.044987)
 48:    815.20   0.002970   15.01  0.001137  ( 0.005600 -0.023525  0.023498)
 49:    836.00   0.002400   12.13  0.000896  ( 0.003383  0.004920 -0.029329)
 50:    858.74   0.008748   44.21  0.003179  ( 0.008273 -0.018741  0.052530)
 51:    860.73   0.004915   24.84  0.001782  ( 0.022314  0.018343 -0.030783)
 52:    881.52   0.008950   45.23  0.003168  ( 0.032941  0.040459 -0.021123)
 53:    881.89   0.003428   17.33  0.001213  ( 0.017204 -0.017569 -0.024668)
 54:    885.09   0.004397   22.22  0.001550  ( 0.007811  0.037923 -0.007147)
 55:    922.11   0.001303    6.59  0.000441  (-0.003954 -0.011183 -0.017331)
 56:    922.61   0.029933  151.27  0.010125  (-0.040182 -0.088552 -0.025859)
 57:    941.73   0.003607   18.23  0.001195  (-0.016820 -0.017725  0.024457)
 58:    965.21   0.012407   62.70  0.004011  (-0.007060  0.059840 -0.019513)
 59:    970.05   0.001290    6.52  0.000415  (-0.016344 -0.002027  0.011989)
 60:    978.70   0.000351    1.78  0.000112  (-0.002754 -0.002087 -0.010006)
 61:   1016.63   0.009813   49.59  0.003012  (-0.015269 -0.031513  0.042259)
 62:   1025.62   0.000202    1.02  0.000061  ( 0.004517 -0.004323 -0.004726)
 63:   1031.78   0.000213    1.08  0.000064  (-0.003236 -0.007339 -0.000317)
 64:   1038.56   0.000389    1.97  0.000117  ( 0.001342 -0.003432  0.010164)
 65:   1074.19   0.005137   25.96  0.001492  ( 0.035498  0.005747  0.014113)
 66:   1090.89   0.011890   60.09  0.003401  (-0.004296 -0.054725 -0.019696)
 67:   1116.85   0.003176   16.05  0.000887  (-0.023553  0.003321 -0.017934)
 68:   1118.64   0.006611   33.41  0.001844  ( 0.033466  0.020345  0.017620)
 69:   1123.90   0.009827   49.66  0.002728  (-0.037853 -0.035947  0.001855)
 70:   1126.65   0.003186   16.10  0.000883  ( 0.028105  0.005114  0.008153)
 71:   1132.28   0.000484    2.45  0.000134  (-0.002825  0.009535 -0.005883)
 72:   1151.27   0.004839   24.46  0.001312  (-0.012252 -0.022140 -0.025913)
 73:   1151.60   0.001099    5.55  0.000298  (-0.013219 -0.010538 -0.003446)
 74:   1193.07   0.000649    3.28  0.000170  ( 0.009405  0.008731  0.002230)
 75:   1224.86   0.001935    9.78  0.000493  ( 0.015265  0.015102 -0.005657)
 76:   1264.78   0.002828   14.29  0.000698  (-0.010024  0.007657 -0.023211)
 77:   1273.47   0.000108    0.55  0.000027  (-0.003350  0.002353  0.003130)
 78:   1322.08   0.001381    6.98  0.000326  ( 0.004503  0.010614 -0.013895)
 79:   1326.69   0.005017   25.35  0.001180  (-0.000610  0.034265 -0.002380)
 80:   1344.57   0.000367    1.86  0.000085  ( 0.005682  0.007193  0.001108)
 81:   1353.83   0.001710    8.64  0.000394  ( 0.010791 -0.016661 -0.000103)
 82:   1353.93   0.004265   21.55  0.000983  ( 0.018116 -0.023447 -0.010252)
 83:   1360.61   0.134287  678.63  0.030800  (-0.081958 -0.143081 -0.060087)
 84:   1370.79   0.000228    1.15  0.000052  ( 0.002454  0.000070  0.006769)
 85:   1382.28   0.001460    7.38  0.000330  (-0.000875  0.010146 -0.015027)
 86:   1397.53   0.001460    7.38  0.000326  (-0.004765  0.013977 -0.010385)
 87:   1400.18   0.021007  106.16  0.004682  (-0.049178  0.008414  0.046825)
 88:   1423.01   0.019760   99.86  0.004333  ( 0.033075  0.024611 -0.051319)
 89:   1453.97   0.001125    5.68  0.000241  (-0.008214 -0.011988  0.005501)
 90:   1458.40   0.001325    6.69  0.000283  (-0.009022  0.014115 -0.001672)
 91:   1464.70   0.004223   21.34  0.000900  ( 0.027626  0.010434 -0.005267)
 92:   1467.02   0.007293   36.85  0.001551  ( 0.028364  0.005383  0.026792)
 93:   1474.00   0.001607    8.12  0.000340  ( 0.002112  0.017010  0.006812)
 94:   1479.76   0.000794    4.01  0.000167  ( 0.011321  0.002450  0.005771)
 95:   1486.75   0.002091   10.56  0.000439  (-0.010962  0.001686  0.017770)
 96:   1489.98   0.001549    7.83  0.000324  ( 0.016412 -0.005035 -0.005444)
 97:   1510.45   0.020992  106.09  0.004337  ( 0.044813 -0.047503 -0.008503)
 98:   1547.27   0.098794  499.26  0.019925  (-0.130610  0.052775 -0.009012)
 99:   1561.40   0.130560  659.80  0.026094  ( 0.026432 -0.159356  0.000955)
100:   1619.41   0.001686    8.52  0.000325  ( 0.000191  0.016432  0.007408)
101:   1643.88   0.013461   68.03  0.002555  (-0.041082  0.027167  0.011382)
102:   1652.37   0.001800    9.10  0.000340  ( 0.018021 -0.002537  0.002961)
103:   2300.54   0.003754   18.97  0.000509  (-0.000628  0.019380  0.011546)
104:   2906.23   0.012124   61.27  0.001302  (-0.008786  0.033948  0.008495)
105:   2956.81   0.011192   56.56  0.001181  (-0.008979 -0.024673 -0.022176)
106:   3016.59   0.018754   94.77  0.001940  (-0.012102 -0.002699 -0.042265)
107:   3029.31   0.028990  146.50  0.002986  ( 0.003015 -0.033051  0.043416)
108:   3048.36   0.356092  1799.54  0.036454  ( 0.042128  0.079159 -0.168561)
109:   3056.33   0.000025    0.13  0.000003  (-0.000856 -0.001081  0.000832)
110:   3057.21   0.001802    9.10  0.000184  (-0.008139  0.005741 -0.009203)
111:   3062.64   0.052875  267.21  0.005388  (-0.053093 -0.001196  0.050669)
112:   3071.68   0.023943  121.00  0.002432  (-0.008818  0.023110 -0.042669)
113:   3078.02   0.012403   62.68  0.001257  ( 0.011495  0.032185  0.009457)
114:   3124.60   0.003174   16.04  0.000317  ( 0.017521  0.001158 -0.002948)
115:   3140.53   0.002498   12.62  0.000248  ( 0.006882  0.011572  0.008181)
116:   3169.96   0.005914   29.89  0.000582  ( 0.023797  0.003965 -0.000346)
117:   3194.46   0.000998    5.04  0.000097  ( 0.000383  0.009864 -0.000131)
118:   3205.42   0.001070    5.41  0.000104  (-0.009959 -0.001470  0.001676)
119:   3231.25   0.001816    9.18  0.000175  ( 0.003921 -0.012220 -0.003274)
120:   3232.39   0.000779    3.94  0.000075  ( 0.007715  0.003121  0.002438)
121:   3474.73   0.000463    2.34  0.000042  (-0.001029  0.005711  0.002813)
122:   3812.05   0.014671   74.14  0.001201  ( 0.010888 -0.026774  0.019122)

* The epsilon (eps) is given for a Dirac delta lineshape.
** The dipole moment derivative (T) already includes vibrational overlap.

The first frequency considered to be a vibration is 7
The total number of vibrations considered is 116


--------------------------
THERMOCHEMISTRY AT 298.15K
--------------------------

Temperature         ... 298.15 K
Pressure            ... 1.00 atm
Total Mass          ... 299.31 AMU

Throughout the following assumptions are being made:
  (1) The electronic state is orbitally nondegenerate
      but the spin degeneracy is treated
  (2) There are no thermally accessible electronically excited states
  (3) Hindered rotations indicated by low frequency modes are not
      treated as such but are treated as vibrations and this may
      cause some error
  (4) All equations used are the standard statistical mechanics
      equations for an ideal gas
  (5) All vibrations are strictly harmonic

freq.      11.51  E(vib)   ...       0.58 
freq.      16.95  E(vib)   ...       0.57 
freq.      31.58  E(vib)   ...       0.55 
freq.      35.66  E(vib)   ...       0.54 
freq.      44.29  E(vib)   ...       0.53 
freq.      48.92  E(vib)   ...       0.53 
freq.      49.15  E(vib)   ...       0.53 
freq.      60.53  E(vib)   ...       0.51 
freq.      73.47  E(vib)   ...       0.49 
freq.      87.32  E(vib)   ...       0.48 
freq.      93.93  E(vib)   ...       0.47 
freq.     143.02  E(vib)   ...       0.41 
freq.     173.37  E(vib)   ...       0.38 
freq.     180.37  E(vib)   ...       0.37 
freq.     180.56  E(vib)   ...       0.37 
freq.     191.17  E(vib)   ...       0.36 
freq.     229.10  E(vib)   ...       0.32 
freq.     233.84  E(vib)   ...       0.32 
freq.     251.94  E(vib)   ...       0.30 
freq.     284.17  E(vib)   ...       0.28 
freq.     302.28  E(vib)   ...       0.26 
freq.     335.20  E(vib)   ...       0.24 
freq.     369.05  E(vib)   ...       0.21 
freq.     395.47  E(vib)   ...       0.20 
freq.     398.28  E(vib)   ...       0.20 
freq.     436.27  E(vib)   ...       0.17 
freq.     457.24  E(vib)   ...       0.16 
freq.     458.84  E(vib)   ...       0.16 
freq.     490.09  E(vib)   ...       0.15 
freq.     520.74  E(vib)   ...       0.13 
freq.     522.61  E(vib)   ...       0.13 
freq.     540.16  E(vib)   ...       0.12 
freq.     590.27  E(vib)   ...       0.10 
freq.     646.35  E(vib)   ...       0.09 
freq.     654.22  E(vib)   ...       0.08 
freq.     688.64  E(vib)   ...       0.07 
freq.     697.04  E(vib)   ...       0.07 
freq.     750.26  E(vib)   ...       0.06 
freq.     787.53  E(vib)   ...       0.05 
freq.     810.12  E(vib)   ...       0.05 
freq.     814.26  E(vib)   ...       0.05 
freq.     815.20  E(vib)   ...       0.05 
freq.     836.00  E(vib)   ...       0.04 
freq.     858.74  E(vib)   ...       0.04 
freq.     860.73  E(vib)   ...       0.04 
freq.     881.52  E(vib)   ...       0.04 
freq.     881.89  E(vib)   ...       0.04 
freq.     885.09  E(vib)   ...       0.04 
freq.     922.11  E(vib)   ...       0.03 
freq.     922.61  E(vib)   ...       0.03 
freq.     941.73  E(vib)   ...       0.03 
freq.     965.21  E(vib)   ...       0.03 
freq.     970.05  E(vib)   ...       0.03 
freq.     978.70  E(vib)   ...       0.03 
freq.    1016.63  E(vib)   ...       0.02 
freq.    1025.62  E(vib)   ...       0.02 
freq.    1031.78  E(vib)   ...       0.02 
freq.    1038.56  E(vib)   ...       0.02 
freq.    1074.19  E(vib)   ...       0.02 
freq.    1090.89  E(vib)   ...       0.02 
freq.    1116.85  E(vib)   ...       0.01 
freq.    1118.64  E(vib)   ...       0.01 
freq.    1123.90  E(vib)   ...       0.01 
freq.    1126.65  E(vib)   ...       0.01 
freq.    1132.28  E(vib)   ...       0.01 
freq.    1151.27  E(vib)   ...       0.01 
freq.    1151.60  E(vib)   ...       0.01 
freq.    1193.07  E(vib)   ...       0.01 
freq.    1224.86  E(vib)   ...       0.01 
freq.    1264.78  E(vib)   ...       0.01 
freq.    1273.47  E(vib)   ...       0.01 
freq.    1322.08  E(vib)   ...       0.01 
freq.    1326.69  E(vib)   ...       0.01 
freq.    1344.57  E(vib)   ...       0.01 
freq.    1353.83  E(vib)   ...       0.01 
freq.    1353.93  E(vib)   ...       0.01 
freq.    1360.61  E(vib)   ...       0.01 
freq.    1370.79  E(vib)   ...       0.01 
freq.    1382.28  E(vib)   ...       0.01 
freq.    1397.53  E(vib)   ...       0.00 
freq.    1400.18  E(vib)   ...       0.00 
freq.    1423.01  E(vib)   ...       0.00 
freq.    1453.97  E(vib)   ...       0.00 
freq.    1458.40  E(vib)   ...       0.00 
freq.    1464.70  E(vib)   ...       0.00 
freq.    1467.02  E(vib)   ...       0.00 
freq.    1474.00  E(vib)   ...       0.00 
freq.    1479.76  E(vib)   ...       0.00 
freq.    1486.75  E(vib)   ...       0.00 
freq.    1489.98  E(vib)   ...       0.00 
freq.    1510.45  E(vib)   ...       0.00 
freq.    1547.27  E(vib)   ...       0.00 
freq.    1561.40  E(vib)   ...       0.00 
freq.    1619.41  E(vib)   ...       0.00 
freq.    1643.88  E(vib)   ...       0.00 
freq.    1652.37  E(vib)   ...       0.00 
freq.    2300.54  E(vib)   ...       0.00 
freq.    2906.23  E(vib)   ...       0.00 
freq.    2956.81  E(vib)   ...       0.00 
freq.    3016.59  E(vib)   ...       0.00 
freq.    3029.31  E(vib)   ...       0.00 
freq.    3048.36  E(vib)   ...       0.00 
freq.    3056.33  E(vib)   ...       0.00 
freq.    3057.21  E(vib)   ...       0.00 
freq.    3062.64  E(vib)   ...       0.00 
freq.    3071.68  E(vib)   ...       0.00 
freq.    3078.02  E(vib)   ...       0.00 
freq.    3124.60  E(vib)   ...       0.00 
freq.    3140.53  E(vib)   ...       0.00 
freq.    3169.96  E(vib)   ...       0.00 
freq.    3194.46  E(vib)   ...       0.00 
freq.    3205.42  E(vib)   ...       0.00 
freq.    3231.25  E(vib)   ...       0.00 
freq.    3232.39  E(vib)   ...       0.00 
freq.    3474.73  E(vib)   ...       0.00 
freq.    3812.05  E(vib)   ...       0.00 

------------
INNER ENERGY
------------

The inner energy is: U= E(el) + E(ZPE) + E(vib) + E(rot) + E(trans)
    E(el)   - is the total energy from the electronic structure calculation
              = E(kin-el) + E(nuc-el) + E(el-el) + E(nuc-nuc)
    E(ZPE)  - the the zero temperature vibrational energy from the frequency calculation
    E(vib)  - the the finite temperature correction to E(ZPE) due to population
              of excited vibrational states
    E(rot)  - is the rotational thermal energy
    E(trans)- is the translational thermal energy

Summary of contributions to the inner energy U:
Electronic energy                ...  -1047.50245774 Eh
Zero point energy                ...      0.32685856 Eh     205.11 kcal/mol
Thermal vibrational correction   ...      0.01981234 Eh      12.43 kcal/mol
Thermal rotational correction    ...      0.00141627 Eh       0.89 kcal/mol
Thermal translational correction ...      0.00141627 Eh       0.89 kcal/mol
-----------------------------------------------------------------------
Total thermal energy                  -1047.15295429 Eh


Summary of corrections to the electronic energy:
(perhaps to be used in another calculation)
Total thermal correction                  0.02264489 Eh      14.21 kcal/mol
Non-thermal (ZPE) correction              0.32685856 Eh     205.11 kcal/mol
-----------------------------------------------------------------------
Total correction                          0.34950345 Eh     219.32 kcal/mol


--------
ENTHALPY
--------

The enthalpy is H = U + kB*T
                kB is Boltzmann's constant
Total free energy                 ...  -1047.15295429 Eh 
Thermal Enthalpy correction       ...      0.00094421 Eh       0.59 kcal/mol
-----------------------------------------------------------------------
Total Enthalpy                    ...  -1047.15201008 Eh


Note: Only C1 symmetry has been detected, increase convergence thresholds 
      if your molecule has a higher symmetry. Symmetry factor of 1.0 is   
      used for the rotational entropy correction. 
 

Note: Rotational entropy computed according to Herzberg 
Infrared and Raman Spectra, Chapter V,1, Van Nostrand Reinhold, 1945 
Point Group:  C1, Symmetry Number:   1  
Rotational constants in cm-1:     0.011862     0.005748     0.004805 

Vibrational entropy computed according to the QRRHO of S. Grimme
Chem.Eur.J. 2012 18 9955


-------
ENTROPY
-------

The entropy contributions are T*S = T*(S(el)+S(vib)+S(rot)+S(trans))
     S(el)   - electronic entropy
     S(vib)  - vibrational entropy
     S(rot)  - rotational entropy
     S(trans)- translational entropy
The entropies will be listed as multiplied by the temperature to get
units of energy

Electronic entropy                ...      0.00065446 Eh      0.41 kcal/mol
Vibrational entropy               ...      0.03669955 Eh     23.03 kcal/mol
Rotational entropy                ...      0.01655972 Eh     10.39 kcal/mol
Translational entropy             ...      0.02042392 Eh     12.82 kcal/mol
-----------------------------------------------------------------------
Final entropy term                ...      0.07433765 Eh     46.65 kcal/mol

In case the symmetry of your molecule has not been determined correctly
or in case you have a reason to use a different symmetry number we print 
out the resulting rotational entropy values for sn=1,12 :
 --------------------------------------------------------
|  sn= 1 | S(rot)=       0.01655972 Eh     10.39 kcal/mol|
|  sn= 2 | S(rot)=       0.01590527 Eh      9.98 kcal/mol|
|  sn= 3 | S(rot)=       0.01552244 Eh      9.74 kcal/mol|
|  sn= 4 | S(rot)=       0.01525081 Eh      9.57 kcal/mol|
|  sn= 5 | S(rot)=       0.01504012 Eh      9.44 kcal/mol|
|  sn= 6 | S(rot)=       0.01486798 Eh      9.33 kcal/mol|
|  sn= 7 | S(rot)=       0.01472243 Eh      9.24 kcal/mol|
|  sn= 8 | S(rot)=       0.01459636 Eh      9.16 kcal/mol|
|  sn= 9 | S(rot)=       0.01448515 Eh      9.09 kcal/mol|
|  sn=10 | S(rot)=       0.01438567 Eh      9.03 kcal/mol|
|  sn=11 | S(rot)=       0.01429568 Eh      8.97 kcal/mol|
|  sn=12 | S(rot)=       0.01421352 Eh      8.92 kcal/mol|
 --------------------------------------------------------


-------------------
GIBBS FREE ENERGY
-------------------

The Gibbs free energy is G = H - T*S

Total enthalpy                    ...  -1047.15201008 Eh 
Total entropy correction          ...     -0.07433765 Eh    -46.65 kcal/mol
-----------------------------------------------------------------------
Final Gibbs free energy         ...  -1047.22634773 Eh

For completeness - the Gibbs free energy minus the electronic energy
G-E(el)                           ...      0.27611001 Eh    173.26 kcal/mol



Timings for individual modules:

Sum of individual times         ...     8187.844 sec (= 136.464 min)
GTO integral calculation        ...       12.441 sec (=   0.207 min)   0.2 %
SCF iterations                  ...      326.955 sec (=   5.449 min)   4.0 %
SCF Gradient evaluation         ...       49.792 sec (=   0.830 min)   0.6 %
Numerical frequency calculation ...     7798.656 sec (= 129.978 min)  95.2 %
                             ****ORCA TERMINATED NORMALLY****
TOTAL RUN TIME: 0 days 2 hours 13 minutes 21 seconds 943 msec
