
                                 *****************
                                 * O   R   C   A *
                                 *****************

                                            #,                                       
                                            ###                                      
                                            ####                                     
                                            #####                                    
                                            ######                                   
                                           ########,                                 
                                     ,,################,,,,,                         
                               ,,#################################,,                 
                          ,,##########################################,,             
                       ,#########################################, ''#####,          
                    ,#############################################,,   '####,        
                  ,##################################################,,,,####,       
                ,###########''''           ''''###############################       
              ,#####''   ,,,,##########,,,,          '''####'''          '####       
            ,##' ,,,,###########################,,,                        '##       
           ' ,,###''''                  '''############,,,                           
         ,,##''                                '''############,,,,        ,,,,,,###''
      ,#''                                            '''#######################'''  
     '                                                          ''''####''''         
             ,#######,   #######,   ,#######,      ##                                
            ,#'     '#,  ##    ##  ,#'     '#,    #''#        ######   ,####,        
            ##       ##  ##   ,#'  ##            #'  '#       #        #'  '#        
            ##       ##  #######   ##           ,######,      #####,   #    #        
            '#,     ,#'  ##    ##  '#,     ,#' ,#      #,         ##   #,  ,#        
             '#######'   ##     ##  '#######'  #'      '#     #####' # '####'        



                  #######################################################
                  #                        -***-                        #
                  #          Department of theory and spectroscopy      #
                  #    Directorship and core code : Frank Neese         #
                  #        Max Planck Institute fuer Kohlenforschung    #
                  #                Kaiser Wilhelm Platz 1               #
                  #                 D-45470 Muelheim/Ruhr               #
                  #                      Germany                        #
                  #                                                     #
                  #                  All rights reserved                #
                  #                        -***-                        #
                  #######################################################


                         Program Version 5.0.4 -  RELEASE  -


 With contributions from (in alphabetic order):
   Daniel Aravena         : Magnetic Suceptibility
   Michael Atanasov       : Ab Initio Ligand Field Theory (pilot matlab implementation)
   Alexander A. Auer      : GIAO ZORA, VPT2 properties, NMR spectrum
   Ute Becker             : Parallelization
   Giovanni Bistoni       : ED, misc. LED, open-shell LED, HFLD
   Martin Brehm           : Molecular dynamics
   Dmytro Bykov           : SCF Hessian
   Vijay G. Chilkuri      : MRCI spin determinant printing, contributions to CSF-ICE
   Dipayan Datta          : RHF DLPNO-CCSD density
   Achintya Kumar Dutta   : EOM-CC, STEOM-CC
   Dmitry Ganyushin       : Spin-Orbit,Spin-Spin,Magnetic field MRCI
   Miquel Garcia          : C-PCM and meta-GGA Hessian, CC/C-PCM, Gaussian charge scheme
   Yang Guo               : DLPNO-NEVPT2, F12-NEVPT2, CIM, IAO-localization
   Andreas Hansen         : Spin unrestricted coupled pair/coupled cluster methods
   Benjamin Helmich-Paris : MC-RPA, TRAH-SCF, COSX integrals
   Lee Huntington         : MR-EOM, pCC
   Robert Izsak           : Overlap fitted RIJCOSX, COSX-SCS-MP3, EOM
   Marcus Kettner         : VPT2
   Christian Kollmar      : KDIIS, OOCD, Brueckner-CCSD(T), CCSD density, CASPT2, CASPT2-K
   Simone Kossmann        : Meta GGA functionals, TD-DFT gradient, OOMP2, MP2 Hessian
   Martin Krupicka        : Initial AUTO-CI
   Lucas Lang             : DCDCAS
   Marvin Lechner         : AUTO-CI (C++ implementation), FIC-MRCC
   Dagmar Lenk            : GEPOL surface, SMD
   Dimitrios Liakos       : Extrapolation schemes; Compound Job, initial MDCI parallelization
   Dimitrios Manganas     : Further ROCIS development; embedding schemes
   Dimitrios Pantazis     : SARC Basis sets
   Anastasios Papadopoulos: AUTO-CI, single reference methods and gradients
   Taras Petrenko         : DFT Hessian,TD-DFT gradient, ASA, ECA, R-Raman, ABS, FL, XAS/XES, NRVS
   Peter Pinski           : DLPNO-MP2, DLPNO-MP2 Gradient
   Christoph Reimann      : Effective Core Potentials
   Marius Retegan         : Local ZFS, SOC
   Christoph Riplinger    : Optimizer, TS searches, QM/MM, DLPNO-CCSD(T), (RO)-DLPNO pert. Triples
   Tobias Risthaus        : Range-separated hybrids, TD-DFT gradient, RPA, STAB
   Michael Roemelt        : Original ROCIS implementation
   Masaaki Saitow         : Open-shell DLPNO-CCSD energy and density
   Barbara Sandhoefer     : DKH picture change effects
   Avijit Sen             : IP-ROCIS
   Kantharuban Sivalingam : CASSCF convergence, NEVPT2, FIC-MRCI
   Bernardo de Souza      : ESD, SOC TD-DFT
   Georgi Stoychev        : AutoAux, RI-MP2 NMR, DLPNO-MP2 response
   Willem Van den Heuvel  : Paramagnetic NMR
   Boris Wezisla          : Elementary symmetry handling
   Frank Wennmohs         : Technical directorship


 We gratefully acknowledge several colleagues who have allowed us to
 interface, adapt or use parts of their codes:
   Stefan Grimme, W. Hujo, H. Kruse, P. Pracht,  : VdW corrections, initial TS optimization,
                  C. Bannwarth, S. Ehlert          DFT functionals, gCP, sTDA/sTD-DF
   Ed Valeev, F. Pavosevic, A. Kumar             : LibInt (2-el integral package), F12 methods
   Garnet Chan, S. Sharma, J. Yang, R. Olivares  : DMRG
   Ulf Ekstrom                                   : XCFun DFT Library
   Mihaly Kallay                                 : mrcc  (arbitrary order and MRCC methods)
   Jiri Pittner, Ondrej Demel                    : Mk-CCSD
   Frank Weinhold                                : gennbo (NPA and NBO analysis)
   Christopher J. Cramer and Donald G. Truhlar   : smd solvation model
   Lars Goerigk                                  : TD-DFT with DH, B97 family of functionals
   V. Asgeirsson, H. Jonsson                     : NEB implementation
   FAccTs GmbH                                   : IRC, NEB, NEB-TS, DLPNO-Multilevel, CI-OPT
                                                   MM, QMMM, 2- and 3-layer-ONIOM, Crystal-QMMM,
                                                   LR-CPCM, SF, NACMEs, symmetry and pop. for TD-DFT,
                                                   nearIR, NL-DFT gradient (VV10), updates on ESD,
                                                   ML-optimized integration grids
   S Lehtola, MJT Oliveira, MAL Marques          : LibXC Library
   Liviu Ungur et al                             : ANISO software


 Your calculation uses the libint2 library for the computation of 2-el integrals
 For citations please refer to: http://libint.valeyev.net

 Your ORCA version has been built with support for libXC version: 5.1.0
 For citations please refer to: https://tddft.org/programs/libxc/

 This ORCA versions uses:
   CBLAS   interface :  Fast vector & matrix operations
   LAPACKE interface :  Fast linear algebra routines
   SCALAPACK package :  Parallel linear algebra routines
   Shared memory     :  Shared parallel matrices
   BLAS/LAPACK       :  OpenBLAS 0.3.15  USE64BITINT DYNAMIC_ARCH NO_AFFINITY Prescott SINGLE_THREADED
        Core in use  :  Prescott
   Copyright (c) 2011-2014, The OpenBLAS Project


Your calculation utilizes the atom-pairwise dispersion correction
with the Becke-Johnson damping scheme (D3BJ)
Cite in your paper:
S.Grimme, S.Ehrlich, L.Goerigk, J Comput Chem, (2011), 32, 1456–1465 
S.Grimme, J.Antony, S.Ehrlich and H.Krieg, J.Chem.Phys., 132, (2010), 154104 
   

================================================================================

----- Orbital basis set information -----
Your calculation utilizes the basis: def2-TZVP
   F. Weigend and R. Ahlrichs, Phys. Chem. Chem. Phys. 7, 3297 (2005).

----- AuxJ basis set information -----
Your calculation utilizes the auxiliary basis: def2/J
   F. Weigend, Phys. Chem. Chem. Phys. 8, 1057 (2006).

================================================================================
                                        WARNINGS
                       Please study these warnings very carefully!
================================================================================


WARNING: Geometry Optimization
  ===> : Switching off AutoStart
         For restart on a previous wavefunction, please use MOREAD

INFO   : the flag for use of the SHARK integral package has been found!

================================================================================
                                       INPUT FILE
================================================================================
NAME = /home/rudenko/mop_saddle_orca_4_serv/for_orca/ch3no2_ch3coo_new/orca/orca_end/end.inp
|  1> !  opt B3LYP def2-TZVP CPCM D3 
|  2> %pal nprocs 102 end
|  3> %cpcm epsilon 78.4 end 
|  4> *xyz -1 1 
|  5> C   -1.37313241 -0.5096196 0.38753146
|  6> H   0.62442023 -1.16126976 -0.10362955
|  7> H   -1.06953434 -0.32093375 1.39999416
|  8> H   -1.57825879 -1.53304657 0.13759117
|  9> N   -1.52210493 0.46528898 -0.48626555
| 10> O   -1.30534001 1.67144534 -0.17756733
| 11> O   -1.87875623 0.24106519 -1.67881949
| 12> C   3.78877429 0.06739565 -1.97774937
| 13> O   2.97405535 0.6464525 -1.08367877
| 14> O   3.65779039 -1.10991873 -2.25090465
| 15> C   4.78645337 1.00980746 -2.52745627
| 16> H   4.87346815 0.92494293 -3.62336039
| 17> H   5.79268154 0.79772435 -2.11969068
| 18> H   4.56635828 2.06543772 -2.29233768
| 19> H   2.32803693 -0.01745273 -0.63570921
| 20> O   1.58229735 -1.32664518 -0.0208918
| 21> H   1.80404824 -1.93139087 -0.74724792
| 22> *
| 23> 
| 24>                          ****END OF INPUT****
================================================================================

                       *****************************
                       * Geometry Optimization Run *
                       *****************************

Geometry optimization settings:
Update method            Update   .... BFGS
Choice of coordinates    CoordSys .... Z-matrix Internals
Initial Hessian          InHess   .... Almoef's Model

Convergence Tolerances:
Energy Change            TolE     ....  5.0000e-06 Eh
Max. Gradient            TolMAXG  ....  3.0000e-04 Eh/bohr
RMS Gradient             TolRMSG  ....  1.0000e-04 Eh/bohr
Max. Displacement        TolMAXD  ....  4.0000e-03 bohr
RMS Displacement         TolRMSD  ....  2.0000e-03 bohr
Strict Convergence                ....  False
------------------------------------------------------------------------------
                        ORCA OPTIMIZATION COORDINATE SETUP
------------------------------------------------------------------------------

The optimization will be done in new redundant internal coordinates
Making redundant internal coordinates   ...  (new redundants) done
Evaluating the initial hessian          ...  (Almloef) done
Evaluating the coordinates              ...  done
Calculating the B-matrix                .... done
Calculating the G-matrix                .... done
Diagonalizing the G-matrix              .... done
Small eigenvalue found = 1.337e-02
Small eigenvalue found = 2.581e-02
The first mode is                       ....   77
The number of degrees of freedom        ....   45

    -----------------------------------------------------------------
                    Redundant Internal Coordinates


    -----------------------------------------------------------------
         Definition                    Initial Value    Approx d2E/dq
    -----------------------------------------------------------------
      1. B(H   1,C   0)                  2.1578         0.007125   
      2. B(H   2,C   0)                  1.0737         0.382306   
      3. B(H   2,H   1)                  2.4159         0.000529   
      4. B(H   3,C   0)                  1.0733         0.382899   
      5. B(H   3,H   1)                  2.2468         0.000984   
      6. B(N   4,C   0)                  1.3176         0.730012   
      7. B(N   4,H   1)                  2.7202         0.000808   
      8. B(O   5,N   4)                  1.2638         0.796924   
      9. B(O   6,N   4)                  1.2648         0.793958   
     10. B(O   8,C   7)                  1.3411         0.669822   
     11. B(O   9,C   7)                  1.2157         1.061737   
     12. B(C  10,C   7)                  1.4784         0.451538   
     13. B(H  11,C  10)                  1.1026         0.343782   
     14. B(H  12,C  10)                  1.1062         0.339256   
     15. B(H  13,C  10)                  1.1037         0.342468   
     16. B(H  14,O   8)                  1.0290         0.403575   
     17. B(O  15,H   1)                  0.9756         0.491063   
     18. B(O  15,H  14)                  1.6273         0.044805   
     19. B(H  16,O  15)                  0.9708         0.499701   
     20. B(H  16,H  14)                  1.9875         0.002550   
     21. A(H   1,C   0,N   4)          100.2045         0.200772   
     22. A(H   2,C   0,H   3)          116.1803         0.296454   
     23. A(H   2,C   0,N   4)          121.8214         0.364298   
     24. A(H   1,C   0,H   2)           90.3409         0.173197   
     25. A(H   3,C   0,N   4)          121.9703         0.364395   
     26. A(H   1,C   0,H   3)           80.5581         0.173227   
     27. A(H   2,H   1,O  15)          133.9985         0.128084   
     28. A(H   3,H   1,O  15)          157.7327         0.133983   
     29. A(C   0,H   1,H   2)           26.3868         0.104171   
     30. A(C   0,H   1,N   4)           28.4714         0.109644   
     31. A(C   0,H   1,O  15)          160.1935         0.177068   
     32. A(H   3,H   1,N   4)           48.7344         0.099545   
     33. A(N   4,H   1,O  15)          152.6333         0.142186   
     34. A(H   2,H   1,H   3)           45.8403         0.096749   
     35. A(C   0,H   1,H   3)           28.1136         0.106461   
     36. A(H   2,H   1,N   4)           47.6442         0.098162   
     37. A(C   0,H   2,H   1)           63.2723         0.126366   
     38. A(C   0,H   3,H   1)           71.3284         0.132021   
     39. A(H   1,N   4,O   5)          113.6397         0.157276   
     40. A(C   0,N   4,H   1)           51.3241         0.156501   
     41. A(H   1,N   4,O   6)          104.4266         0.157219   
     42. A(O   5,N   4,O   6)          116.6084         0.462586   
     43. A(C   0,N   4,O   6)          121.7355         0.458344   
     44. A(C   0,N   4,O   5)          121.6538         0.458656   
     45. A(O   8,C   7,O   9)          120.1665         0.479123   
     46. A(O   9,C   7,C  10)          127.3373         0.448771   
     47. A(O   8,C   7,C  10)          112.4961         0.413149   
     48. A(C   7,O   8,H  14)          113.1456         0.359132   
     49. A(H  12,C  10,H  13)          106.6330         0.285884   
     50. A(H  11,C  10,H  13)          107.5231         0.286475   
     51. A(C   7,C  10,H  13)          113.3233         0.331858   
     52. A(H  11,C  10,H  12)          106.2497         0.286054   
     53. A(C   7,C  10,H  12)          110.7666         0.331341   
     54. A(C   7,C  10,H  11)          111.9472         0.332069   
     55. A(O  15,H  14,H  16)           29.0313         0.121460   
     56. A(O   8,H  14,H  16)          139.6779         0.142383   
     57. A(O   8,H  14,O  15)          166.2350         0.215233   
     58. A(H  14,O  15,H  16)           96.5345         0.221487   
     59. A(H   1,O  15,H  14)          106.3520         0.220965   
     60. A(H   1,O  15,H  16)          105.4513         0.316783   
     61. A(H  14,H  16,O  15)           54.4342         0.145028   
     62. D(O  15,H   1,C   0,N   4)    112.1987         0.001531   
     63. D(N   4,H   1,C   0,H   3)    121.0271         0.001531   
     64. D(O  15,H   1,C   0,H   3)   -126.7742         0.001531   
     65. D(H   2,H   1,C   0,N   4)    122.4679         0.001531   
     66. D(N   4,H   1,C   0,H   2)   -122.4679         0.001531   
     67. D(O  15,H   1,C   0,H   2)    -10.2692         0.001531   
     68. D(H   3,H   1,C   0,N   4)   -121.0271         0.001531   
     69. D(H   2,H   1,C   0,H   3)   -116.5050         0.001531   
     70. D(H   3,H   1,C   0,H   2)    116.5050         0.001531   
     71. D(H   1,H   2,C   0,N   4)   -102.2511         0.140600   
     72. D(C   0,H   2,H   1,O  15)    175.1830         0.001503   
     73. D(C   0,H   2,H   1,H   3)    -36.0016         0.001503   
     74. D(C   0,H   2,H   1,N   4)     32.9751         0.001503   
     75. D(H   1,H   2,C   0,H   3)     79.6372         0.140600   
     76. D(H   1,H   3,C   0,H   2)    -85.6966         0.141136   
     77. D(C   0,H   3,H   1,H   2)     33.6685         0.001511   
     78. D(C   0,H   3,H   1,N   4)    -32.9209         0.001511   
     79. D(H   1,H   3,C   0,N   4)     96.1948         0.141136   
     80. D(C   0,H   3,H   1,O  15)    134.2526         0.001511   
     81. D(C   0,N   4,H   1,H   3)     32.4940         0.001501   
     82. D(C   0,N   4,H   1,O  15)   -136.9615         0.001501   
     83. D(C   0,N   4,H   1,H   2)    -30.4913         0.001501   
     84. D(O   6,N   4,C   0,H   1)     83.1176         0.052147   
     85. D(O   6,N   4,C   0,H   3)     -2.0561         0.052147   
     86. D(H   1,N   4,C   0,H   2)     96.8239         0.052147   
     87. D(H   1,N   4,C   0,H   3)    -85.1737         0.052147   
     88. D(O   5,N   4,C   0,H   1)    -96.3098         0.052147   
     89. D(O   5,N   4,C   0,H   3)    178.5164         0.052147   
     90. D(O   5,N   4,C   0,H   2)      0.5141         0.052147   
     91. D(O   5,N   4,H   1,O  15)    -24.4167         0.001501   
     92. D(O   6,N   4,C   0,H   2)    179.9415         0.052147   
     93. D(O   6,N   4,H   1,H   3)    -86.8318         0.001501   
     94. D(O   6,N   4,H   1,H   2)   -149.8171         0.001501   
     95. D(O   6,N   4,H   1,C   0)   -119.3258         0.001501   
     96. D(O   6,N   4,H   1,O  15)    103.7127         0.001501   
     97. D(O   5,N   4,H   1,H   3)    145.0388         0.001501   
     98. D(O   5,N   4,H   1,H   2)     82.0536         0.001501   
     99. D(O   5,N   4,H   1,C   0)    112.5448         0.001501   
    100. D(H  14,O   8,C   7,C  10)   -175.1127         0.033328   
    101. D(H  14,O   8,C   7,O   9)      4.7892         0.033328   
    102. D(H  13,C  10,C   7,O   9)    167.4110         0.015035   
    103. D(H  13,C  10,C   7,O   8)    -12.6957         0.015035   
    104. D(H  12,C  10,C   7,O   9)    -72.7964         0.015035   
    105. D(H  12,C  10,C   7,O   8)    107.0969         0.015035   
    106. D(H  11,C  10,C   7,O   9)     45.5922         0.015035   
    107. D(H  11,C  10,C   7,O   8)   -134.5146         0.015035   
    108. D(H  16,H  14,O   8,C   7)     -4.9946         0.181420   
    109. D(O  15,H  14,O   8,C   7)     24.6364         0.181420   
    110. D(H   1,O  15,H  14,H  16)   -108.2445         0.002772   
    111. D(H   1,O  15,H  14,O   8)   -149.4873         0.002772   
    112. D(H  14,O  15,H   1,N   4)    -16.6412         0.389606   
    113. D(H  14,O  15,H   1,H   3)   -175.3562         0.389606   
    114. D(H  14,O  15,H   1,H   2)    -96.7444         0.389606   
    115. D(H  14,O  15,H   1,C   0)    -90.4210         0.389606   
    116. D(H  16,O  15,H   1,N   4)   -118.4207         0.389606   
    117. D(H  16,O  15,H   1,H   3)     82.8643         0.389606   
    118. D(H  16,O  15,H   1,H   2)    161.4762         0.389606   
    119. D(H  16,O  15,H  14,O   8)    -41.2428         0.002772   
    120. D(H  16,O  15,H   1,C   0)    167.7996         0.389606   
    121. D(H  14,H  16,O  15,H   1)    109.0059         0.312084   
    122. D(O  15,H  16,H  14,O   8)    165.9709         0.001558   
    -----------------------------------------------------------------

Number of atoms                         .... 17
Number of degrees of freedom            .... 122

         *************************************************************
         *                GEOMETRY OPTIMIZATION CYCLE   1            *
         *************************************************************
---------------------------------
CARTESIAN COORDINATES (ANGSTROEM)
---------------------------------
  C     -1.373132   -0.509620    0.387531
  H      0.624420   -1.161270   -0.103630
  H     -1.069534   -0.320934    1.399994
  H     -1.578259   -1.533047    0.137591
  N     -1.522105    0.465289   -0.486266
  O     -1.305340    1.671445   -0.177567
  O     -1.878756    0.241065   -1.678819
  C      3.788774    0.067396   -1.977749
  O      2.974055    0.646452   -1.083679
  O      3.657790   -1.109919   -2.250905
  C      4.786453    1.009807   -2.527456
  H      4.873468    0.924943   -3.623360
  H      5.792682    0.797724   -2.119691
  H      4.566358    2.065438   -2.292338
  H      2.328037   -0.017453   -0.635709
  O      1.582297   -1.326645   -0.020892
  H      1.804048   -1.931391   -0.747248

----------------------------
CARTESIAN COORDINATES (A.U.)
----------------------------
  NO LB      ZA    FRAG     MASS         X           Y           Z
   0 C     6.0000    0    12.011   -2.594844   -0.963041    0.732328
   1 H     1.0000    0     1.008    1.179983   -2.194482   -0.195831
   2 H     1.0000    0     1.008   -2.021127   -0.606477    2.645606
   3 H     1.0000    0     1.008   -2.982477   -2.897038    0.260010
   4 N     7.0000    0    14.007   -2.876361    0.879269   -0.918909
   5 O     8.0000    0    15.999   -2.466735    3.158574   -0.335554
   6 O     8.0000    0    15.999   -3.550335    0.455547   -3.172509
   7 C     6.0000    0    12.011    7.159746    0.127359   -3.737405
   8 O     8.0000    0    15.999    5.620150    1.221618   -2.047856
   9 O     8.0000    0    15.999    6.912222   -2.097442   -4.253593
  10 C     6.0000    0    12.011    9.045086    1.908260   -4.776200
  11 H     1.0000    0     1.008    9.209520    1.747889   -6.847159
  12 H     1.0000    0     1.008   10.946582    1.507481   -4.005635
  13 H     1.0000    0     1.008    8.629167    3.903112   -4.331890
  14 H     1.0000    0     1.008    4.399352   -0.032981   -1.201316
  15 O     8.0000    0    15.999    2.990109   -2.506996   -0.039480
  16 H     1.0000    0     1.008    3.409157   -3.649800   -1.412094

--------------------------------
INTERNAL COORDINATES (ANGSTROEM)
--------------------------------
 C      0   0   0     0.000000000000     0.00000000     0.00000000
 H      1   0   0     2.157800643791     0.00000000     0.00000000
 H      1   2   0     1.073710788336    90.34093564     0.00000000
 H      1   2   3     1.073289216968    80.55805153   243.49502686
 N      1   2   3     1.317634534216   100.20447863   122.46794658
 O      5   1   2     1.263762155764   121.65380516   263.69015973
 O      5   1   2     1.264777196823   121.73547359    83.11759974
 C      2   1   3     3.877509562398   140.33555084   255.04226488
 O      8   2   1     1.341057800585    47.06293911    46.75123901
 O      8   2   1     1.215664319788    73.36935869   220.62530176
 C      8   2   1     1.478404965564   158.81552857    29.41254987
 H     11   8   2     1.102623870875   111.94717006   239.14490436
 H     11   8   2     1.106231057256   110.76662266   120.75635023
 H     11   8   2     1.103665640415   113.32333130     0.96374065
 H      9   8   2     1.028973605146   113.14559368    11.58129376
 O      2   1   3     0.975562987118   160.19349548   349.73077440
 H     16   2   1     0.970816161717   105.45126936   167.79958135

---------------------------
INTERNAL COORDINATES (A.U.)
---------------------------
 C      0   0   0     0.000000000000     0.00000000     0.00000000
 H      1   0   0     4.077652268363     0.00000000     0.00000000
 H      1   2   0     2.029019336992    90.34093564     0.00000000
 H      1   2   3     2.028222682561    80.55805153   243.49502686
 N      1   2   3     2.489968414264   100.20447863   122.46794658
 O      5   1   2     2.388164372809   121.65380516   263.69015973
 O      5   1   2     2.390082522424   121.73547359    83.11759974
 C      2   1   3     7.327431154593   140.33555084   255.04226488
 O      8   2   1     2.534231972865    47.06293911    46.75123901
 O      8   2   1     2.297272635179    73.36935869   220.62530176
 C      8   2   1     2.793780499946   158.81552857    29.41254987
 H     11   8   2     2.083657144678   111.94717006   239.14490436
 H     11   8   2     2.090473739051   110.76662266   120.75635023
 H     11   8   2     2.085625803804   113.32333130     0.96374065
 H      9   8   2     1.944478312760   113.14559368    11.58129376
 O      2   1   3     1.843546872043   160.19349548   349.73077440
 H     16   2   1     1.834576672030   105.45126936   167.79958135

---------------------
BASIS SET INFORMATION
---------------------
There are 4 groups of distinct atoms

 Group   1 Type C   : 11s6p2d1f contracted to 5s3p2d1f pattern {62111/411/11/1}
 Group   2 Type H   : 5s1p contracted to 3s1p pattern {311/1}
 Group   3 Type N   : 11s6p2d1f contracted to 5s3p2d1f pattern {62111/411/11/1}
 Group   4 Type O   : 11s6p2d1f contracted to 5s3p2d1f pattern {62111/411/11/1}

Atom   0C    basis set group =>   1
Atom   1H    basis set group =>   2
Atom   2H    basis set group =>   2
Atom   3H    basis set group =>   2
Atom   4N    basis set group =>   3
Atom   5O    basis set group =>   4
Atom   6O    basis set group =>   4
Atom   7C    basis set group =>   1
Atom   8O    basis set group =>   4
Atom   9O    basis set group =>   4
Atom  10C    basis set group =>   1
Atom  11H    basis set group =>   2
Atom  12H    basis set group =>   2
Atom  13H    basis set group =>   2
Atom  14H    basis set group =>   2
Atom  15O    basis set group =>   4
Atom  16H    basis set group =>   2
---------------------------------
AUXILIARY/J BASIS SET INFORMATION
---------------------------------
There are 4 groups of distinct atoms

 Group   1 Type C   : 12s5p4d2f1g contracted to 6s4p3d1f1g pattern {711111/2111/211/2/1}
 Group   2 Type H   : 5s2p1d contracted to 3s1p1d pattern {311/2/1}
 Group   3 Type N   : 12s5p4d2f1g contracted to 6s4p3d1f1g pattern {711111/2111/211/2/1}
 Group   4 Type O   : 12s5p4d2f1g contracted to 6s4p3d1f1g pattern {711111/2111/211/2/1}

Atom   0C    basis set group =>   1
Atom   1H    basis set group =>   2
Atom   2H    basis set group =>   2
Atom   3H    basis set group =>   2
Atom   4N    basis set group =>   3
Atom   5O    basis set group =>   4
Atom   6O    basis set group =>   4
Atom   7C    basis set group =>   1
Atom   8O    basis set group =>   4
Atom   9O    basis set group =>   4
Atom  10C    basis set group =>   1
Atom  11H    basis set group =>   2
Atom  12H    basis set group =>   2
Atom  13H    basis set group =>   2
Atom  14H    basis set group =>   2
Atom  15O    basis set group =>   4
Atom  16H    basis set group =>   2


           ************************************************************
           *        Program running with 102 parallel MPI-processes   *
           *              working on a common directory               *
           ************************************************************
------------------------------------------------------------------------------
                           ORCA GTO INTEGRAL CALCULATION
                           -- RI-GTO INTEGRALS CHOSEN --
------------------------------------------------------------------------------
------------------------------------------------------------------------------
                   ___                                                        
                  /   \      - P O W E R E D   B Y -                         
                 /     \                                                     
                 |  |  |   _    _      __       _____    __    __             
                 |  |  |  | |  | |    /  \     |  _  \  |  |  /  |          
                  \  \/   | |  | |   /    \    | | | |  |  | /  /          
                 / \  \   | |__| |  /  /\  \   | |_| |  |  |/  /          
                |  |  |   |  __  | /  /__\  \  |    /   |      \           
                |  |  |   | |  | | |   __   |  |    \   |  |\   \          
                \     /   | |  | | |  |  |  |  | |\  \  |  | \   \       
                 \___/    |_|  |_| |__|  |__|  |_| \__\ |__|  \__/        
                                                                              
                      - O R C A' S   B I G   F R I E N D -                    
                                      &                                       
                       - I N T E G R A L  F E E D E R -                       
                                                                              
 v1 FN, 2020, v2 2021                                                         
------------------------------------------------------------------------------


Reading SHARK input file /home/rudenko/mop_saddle_orca_4_serv/for_orca/ch3no2_ch3coo_new/orca/orca_end/end.SHARKINP.tmp ... ok
----------------------
SHARK INTEGRAL PACKAGE
----------------------

Number of atoms                             ...     17
Number of basis functions                   ...    327
Number of shells                            ...    131
Maximum angular momentum                    ...      3
Integral batch strategy                     ... SHARK/LIBINT Hybrid
RI-J (if used) integral strategy            ... SPLIT-RIJ (Revised 2003 algorithm where possible)
Printlevel                                  ...      1
Contraction scheme used                     ... SEGMENTED contraction
Coulomb Range Separation                    ... NOT USED
Exchange Range Separation                   ... NOT USED
Finite Nucleus Model                        ... NOT USED
Auxiliary Coulomb fitting basis             ... AVAILABLE
   # of basis functions in Aux-J            ...    529
   # of shells in Aux-J                     ...    175
   Maximum angular momentum in Aux-J        ...      4
Auxiliary J/K fitting basis                 ... NOT available
Auxiliary Correlation fitting basis         ... NOT available
Auxiliary 'external' fitting basis          ... NOT available
Integral threshold                          ...     2.500000e-11
Primitive cut-off                           ...     2.500000e-12
Primitive pair pre-selection threshold      ...     2.500000e-12

Calculating pre-screening integrals         ... done (  0.1 sec) Dimension = 131
Organizing shell pair data                  ... done (  0.1 sec)
Shell pair information
Total number of shell pairs                 ...      8646
Shell pairs after pre-screening             ...      6544
Total number of primitive shell pairs       ...     26328
Primitive shell pairs kept                  ...     14128
          la=0 lb=0:   1813 shell pairs
          la=1 lb=0:   1912 shell pairs
          la=1 lb=1:    527 shell pairs
          la=2 lb=0:    892 shell pairs
          la=2 lb=1:    490 shell pairs
          la=2 lb=2:    122 shell pairs
          la=3 lb=0:    427 shell pairs
          la=3 lb=1:    231 shell pairs
          la=3 lb=2:    104 shell pairs
          la=3 lb=3:     26 shell pairs

Calculating one electron integrals          ... done (  0.0 sec)
Calculating RI/J V-Matrix + Cholesky decomp.... done (  0.0 sec)
Calculating Nuclear repulsion               ... done (  0.0 sec) ENN=    438.420669537997 Eh

SHARK setup successfully completed in   0.4 seconds

Maximum memory used throughout the entire GTOINT-calculation: 19.8 MB


           ************************************************************
           *        Program running with 102 parallel MPI-processes   *
           *              working on a common directory               *
           ************************************************************
-------------------------------------------------------------------------------
                                 ORCA SCF
-------------------------------------------------------------------------------

------------
SCF SETTINGS
------------
Hamiltonian:
 Density Functional     Method          .... DFT(GTOs)
 Exchange Functional    Exchange        .... B88
   X-Alpha parameter    XAlpha          ....  0.666667
   Becke's b parameter  XBeta           ....  0.004200
 Correlation Functional Correlation     .... LYP
 LDA part of GGA corr.  LDAOpt          .... VWN-5
 Gradients option       PostSCFGGA      .... off
 Hybrid DFT is turned on
   Fraction HF Exchange ScalHFX         ....  0.200000
   Scaling of DF-GGA-X  ScalDFX         ....  0.720000
   Scaling of DF-GGA-C  ScalDFC         ....  0.810000
   Scaling of DF-LDA-C  ScalLDAC        ....  1.000000
   Perturbative correction              ....  0.000000
   Density functional embedding theory  .... OFF
   NL short-range parameter             ....  4.800000
 RI-approximation to the Coulomb term is turned on
   Number of AuxJ basis functions       .... 529
   RIJ-COSX (HFX calculated with COS-X)).... on


General Settings:
 Integral files         IntName         .... /home/rudenko/mop_saddle_orca_4_serv/for_orca/ch3no2_ch3coo_new/orca/orca_end/end
 Hartree-Fock type      HFTyp           .... RHF
 Total Charge           Charge          ....   -1
 Multiplicity           Mult            ....    1
 Number of Electrons    NEL             ....   74
 Basis Dimension        Dim             ....  327
 Nuclear Repulsion      ENuc            ....    438.4206695380 Eh

Convergence Acceleration:
 DIIS                   CNVDIIS         .... on
   Start iteration      DIISMaxIt       ....    12
   Startup error        DIISStart       ....  0.200000
   # of expansion vecs  DIISMaxEq       ....     5
   Bias factor          DIISBfac        ....   1.050
   Max. coefficient     DIISMaxC        ....  10.000
 Trust-Rad. Augm. Hess. CNVTRAH         .... auto
   Auto Start mean grad. ratio tolernc. ....  1.125000
   Auto Start start iteration           ....    20
   Auto Start num. interpolation iter.  ....    10
   Max. Number of Micro iterations      ....    16
   Max. Number of Macro iterations      .... Maxiter - #DIIS iter
   Number of Davidson start vectors     ....     2
   Converg. threshold I  (grad. norm)   ....   1.000e-05
   Converg. threshold II (energy diff.) ....   1.000e-08
   Grad. Scal. Fac. for Micro threshold ....   0.100
   Minimum threshold for Micro iter.    ....   0.010
   NR start threshold (gradient norm)   ....   0.001
   Initial trust radius                 ....   0.400
   Minimum AH scaling param. (alpha)    ....   1.000
   Maximum AH scaling param. (alpha)    .... 1000.000
   Orbital update algorithm             .... Taylor
   White noise on init. David. guess    .... on
   Maximum white noise                  ....   0.010
   Quad. conv. algorithm                .... NR
 SOSCF                  CNVSOSCF        .... on
   Start iteration      SOSCFMaxIt      ....   150
   Startup grad/error   SOSCFStart      ....  0.003300
 Level Shifting         CNVShift        .... on
   Level shift para.    LevelShift      ....    0.2500
   Turn off err/grad.   ShiftErr        ....    0.0010
 Zerner damping         CNVZerner       .... off
 Static damping         CNVDamp         .... on
   Fraction old density DampFac         ....    0.7000
   Max. Damping (<1)    DampMax         ....    0.9800
   Min. Damping (>=0)   DampMin         ....    0.0000
   Turn off err/grad.   DampErr         ....    0.1000
 Fernandez-Rico         CNVRico         .... off

SCF Procedure:
 Maximum # iterations   MaxIter         ....   125
 SCF integral mode      SCFMode         .... Direct
   Integral package                     .... SHARK and LIBINT hybrid scheme
 Reset frequency        DirectResetFreq ....    20
 Integral Threshold     Thresh          ....  2.500e-11 Eh
 Primitive CutOff       TCut            ....  2.500e-12 Eh

Convergence Tolerance:
 Convergence Check Mode ConvCheckMode   .... Total+1el-Energy
 Convergence forced     ConvForced      .... 0
 Energy Change          TolE            ....  1.000e-08 Eh
 1-El. energy change                    ....  1.000e-05 Eh
 Orbital Gradient       TolG            ....  1.000e-05
 Orbital Rotation angle TolX            ....  1.000e-05
 DIIS Error             TolErr          ....  5.000e-07


Diagonalization of the overlap matrix:
Smallest eigenvalue                        ... 3.789e-04
Time for diagonalization                   ...    0.042 sec
Threshold for overlap eigenvalues          ... 1.000e-08
Number of eigenvalues below threshold      ... 0
Time for construction of square roots      ...    0.053 sec
Total time needed                          ...    0.096 sec

Time for model grid setup =    0.122 sec

------------------------------
INITIAL GUESS: MODEL POTENTIAL
------------------------------
Loading Hartree-Fock densities                     ... done
Calculating cut-offs                               ... done
Initializing the effective Hamiltonian             ... done
Setting up the integral package (SHARK)            ... done
Starting the Coulomb interaction                   ... done (   0.0 sec)
Reading the grid                                   ... done
Mapping shells                                     ... done
Starting the XC term evaluation                    ... done (   0.0 sec)
  promolecular density results
     # of electrons  =     72.996120064
     EX              =    -65.303628045
     EC              =     -2.538414872
     EX+EC           =    -67.842042917
Transforming the Hamiltonian                       ... done (   0.0 sec)
Diagonalizing the Hamiltonian                      ... done (   0.0 sec)
Back transforming the eigenvectors                 ... done (   0.0 sec)
Now organizing SCF variables                       ... done
                      ------------------
                      INITIAL GUESS DONE (   0.3 sec)
                      ------------------
-------------------
DFT GRID GENERATION
-------------------

General Integration Accuracy     IntAcc      ... 4.388
Radial Grid Type                 RadialGrid  ... OptM3 with GC (2021)
Angular Grid (max. ang.)         AngularGrid ... 4 (Lebedev-302)
Angular grid pruning method      GridPruning ... 4 (adaptive)
Weight generation scheme         WeightScheme... Becke
Basis function cutoff            BFCut       ... 1.0000e-11
Integration weight cutoff        WCut        ... 1.0000e-14
Angular grids for H and He will be reduced by one unit
Partially contracted basis set               ... off
Rotationally invariant grid construction     ... off

Total number of grid points                  ...    80765
Total number of batches                      ...     1270
Average number of points per batch           ...       63
Average number of grid points per atom       ...     4751
Time for grid setup =    0.633 sec

--------------------
COSX GRID GENERATION
--------------------

GRIDX 1
-------
General Integration Accuracy     IntAcc      ... 3.816
Radial Grid Type                 RadialGrid  ... OptM3 with GC (2021)
Angular Grid (max. ang.)         AngularGrid ... 1 (Lebedev-50)
Angular grid pruning method      GridPruning ... 4 (adaptive)
Weight generation scheme         WeightScheme... Becke
Basis function cutoff            BFCut       ... 1.0000e-11
Integration weight cutoff        WCut        ... 1.0000e-14
Angular grids for H and He will be reduced by one unit
Partially contracted basis set               ... on
Rotationally invariant grid construction     ... off

Total number of grid points                  ...    10307
Total number of batches                      ...      170
Average number of points per batch           ...       60
Average number of grid points per atom       ...      606
UseSFitting                                  ... on

GRIDX 2
-------
General Integration Accuracy     IntAcc      ... 4.020
Radial Grid Type                 RadialGrid  ... OptM3 with GC (2021)
Angular Grid (max. ang.)         AngularGrid ... 2 (Lebedev-110)
Angular grid pruning method      GridPruning ... 4 (adaptive)
Weight generation scheme         WeightScheme... Becke
Basis function cutoff            BFCut       ... 1.0000e-11
Integration weight cutoff        WCut        ... 1.0000e-14
Angular grids for H and He will be reduced by one unit
Partially contracted basis set               ... on
Rotationally invariant grid construction     ... off

Total number of grid points                  ...    22657
Total number of batches                      ...      364
Average number of points per batch           ...       62
Average number of grid points per atom       ...     1333
UseSFitting                                  ... on

GRIDX 3
-------
General Integration Accuracy     IntAcc      ... 4.338
Radial Grid Type                 RadialGrid  ... OptM3 with GC (2021)
Angular Grid (max. ang.)         AngularGrid ... 3 (Lebedev-194)
Angular grid pruning method      GridPruning ... 4 (adaptive)
Weight generation scheme         WeightScheme... Becke
Basis function cutoff            BFCut       ... 1.0000e-11
Integration weight cutoff        WCut        ... 1.0000e-14
Angular grids for H and He will be reduced by one unit
Partially contracted basis set               ... on
Rotationally invariant grid construction     ... off

Total number of grid points                  ...    49946
Total number of batches                      ...      788
Average number of points per batch           ...       63
Average number of grid points per atom       ...     2938
UseSFitting                                  ... on

Time for X-Grid setup             =    0.770 sec


--------------------
CPCM SOLVATION MODEL
--------------------
CPCM parameters:
  Epsilon                                         ...      78.4000
  Refrac                                          ...       1.3300
  Rsolv                                           ...       1.3000
  Surface type                                    ... GAUSSIAN VDW
  Epsilon function type                           ...         CPCM
Radii:
 Radius for C  used is    3.8550 Bohr (=   2.0400 Ang.)
 Radius for H  used is    2.4944 Bohr (=   1.3200 Ang.)
 Radius for N  used is    3.5149 Bohr (=   1.8600 Ang.)
 Radius for O  used is    3.4469 Bohr (=   1.8240 Ang.)
Calculating surface                               ...        done! (  0.0s)
GEPOL surface points                              ...         1072
GEPOL Volume                                      ...    1144.9943
GEPOL Surface-area                                ...     727.4261
Calculating surface distance matrix               ...        done! (  0.0s)
Performing Cholesky decomposition & store         ...        done! (  0.3s)
Overall time for CPCM initialization              ...                 0.3s
--------------
SCF ITERATIONS
--------------
ITER       Energy         Delta-E        Max-DP      RMS-DP      [F,P]     Damp
               ***  Starting incremental Fock matrix formation  ***
  0   -549.5768943328   0.000000000000 0.05373337  0.00122621  0.3027188 0.7000
  1   -549.8060559538  -0.229161620942 0.03444765  0.00082540  0.1234524 0.7000
                               ***Turning on DIIS***
  2   -549.8847332698  -0.078677316066 0.06462103  0.00119965  0.0435853 0.0000
  3   -550.0205429148  -0.135809644971 0.02359646  0.00056817  0.0678582 0.0000
  4   -550.0457252414  -0.025182326648 0.01088627  0.00019186  0.0177250 0.0000
                      *** Initiating the SOSCF procedure ***
                           *** Shutting down DIIS ***
                      *** Re-Reading the Fockian *** 
                      *** Removing any level shift *** 
ITER      Energy       Delta-E        Grad      Rot      Max-DP    RMS-DP
  5   -550.04749458  -0.0017693390  0.000711  0.000711  0.002561  0.000064
               *** Restarting incremental Fock matrix formation ***
  6   -550.04750371  -0.0000091317  0.000478  0.001499  0.001766  0.000040
  7   -550.04749615   0.0000075660  0.001029  0.001188  0.000870  0.000014
  8   -550.04751310  -0.0000169492  0.000141  0.000331  0.000285  0.000006
  9   -550.04751255   0.0000005423  0.000203  0.000184  0.000191  0.000003
 10   -550.04751342  -0.0000008655  0.000016  0.000032  0.000044  0.000001
 11   -550.04751342   0.0000000017  0.000020  0.000017  0.000025  0.000000
                  ***Gradient check signals convergence***
              ***Rediagonalizing the Fockian in SOSCF/NRSCF***

               *****************************************************
               *                     SUCCESS                       *
               *           SCF CONVERGED AFTER  12 CYCLES          *
               *****************************************************

Old exchange energy                            =    -13.251836616 Eh
New exchange energy                            =    -13.251851211 Eh
Exchange energy change after final integration =     -0.000014595 Eh
Total energy after final integration           =   -550.047528023 Eh
Final COS-X integration done in                =     0.509 sec

----------------
TOTAL SCF ENERGY
----------------

Total Energy       :         -550.04752802 Eh          -14967.55417 eV

Components:
Nuclear Repulsion  :          438.42066954 Eh           11930.03293 eV
Electronic Energy  :         -988.46819756 Eh          -26897.58710 eV
One Electron Energy:        -1635.52273680 Eh          -44504.83625 eV
Two Electron Energy:          647.05453924 Eh           17607.24915 eV
Max COSX asymmetry :            0.00000103 Eh               0.00003 eV
CPCM Dielectric    :           -0.11078627 Eh              -3.01465 eV

Virial components:
Potential Energy   :        -1098.02316229 Eh          -29878.72925 eV
Kinetic Energy     :          547.97563427 Eh           14911.17508 eV
Virial Ratio       :            2.00378100


DFT components:
N(Alpha)           :       36.999983173166 electrons
N(Beta)            :       36.999983173166 electrons
N(Total)           :       73.999966346332 electrons
E(X)               :      -52.834432470405 Eh       
E(C)               :       -3.033475360390 Eh       
E(XC)              :      -55.867907830795 Eh       
DFET-embed. en.    :        0.000000000000 Eh       
CPCM Solvation Model Properties:
Surface-charge          :            0.97465498
Charge-correction       :           -0.00331822 Eh              -0.09029 eV
Free-energy (cav+disp)  :  This term is not implemented in the current solvation scheme

---------------
SCF CONVERGENCE
---------------

  Last Energy change         ...   -1.1808e-08  Tolerance :   1.0000e-08
  Last MAX-Density change    ...    1.1102e-15  Tolerance :   1.0000e-07
  Last RMS-Density change    ...    1.6738e-17  Tolerance :   5.0000e-09
  Last Orbital Gradient      ...    2.2750e-06  Tolerance :   1.0000e-05
  Last Orbital Rotation      ...    4.4761e-06  Tolerance :   1.0000e-05

             **** THE GBW FILE WAS UPDATED (/home/rudenko/mop_saddle_orca_4_serv/for_orca/ch3no2_ch3coo_new/orca/orca_end/end.gbw) ****
             **** DENSITY /home/rudenko/mop_saddle_orca_4_serv/for_orca/ch3no2_ch3coo_new/orca/orca_end/end.scfp WAS UPDATED ****
             **** ENERGY FILE WAS UPDATED (/home/rudenko/mop_saddle_orca_4_serv/for_orca/ch3no2_ch3coo_new/orca/orca_end/end.en.tmp) ****
             **** THE GBW FILE WAS UPDATED (/home/rudenko/mop_saddle_orca_4_serv/for_orca/ch3no2_ch3coo_new/orca/orca_end/end.gbw) ****
             **** DENSITY /home/rudenko/mop_saddle_orca_4_serv/for_orca/ch3no2_ch3coo_new/orca/orca_end/end.scfp WAS UPDATED ****
----------------
ORBITAL ENERGIES
----------------

  NO   OCC          E(Eh)            E(eV) 
   0   2.0000     -19.144945      -520.9604 
   1   2.0000     -19.138829      -520.7940 
   2   2.0000     -19.107965      -519.9542 
   3   2.0000     -19.076004      -519.0845 
   4   2.0000     -19.075520      -519.0713 
   5   2.0000     -14.478791      -393.9879 
   6   2.0000     -10.300578      -280.2930 
   7   2.0000     -10.173218      -276.8273 
   8   2.0000     -10.155232      -276.3379 
   9   2.0000      -1.146234       -31.1906 
  10   2.0000      -1.090498       -29.6740 
  11   2.0000      -1.022730       -27.8299 
  12   2.0000      -0.998053       -27.1584 
  13   2.0000      -0.959017       -26.0962 
  14   2.0000      -0.785493       -21.3744 
  15   2.0000      -0.749530       -20.3957 
  16   2.0000      -0.597970       -16.2716 
  17   2.0000      -0.561754       -15.2861 
  18   2.0000      -0.536032       -14.5862 
  19   2.0000      -0.492588       -13.4040 
  20   2.0000      -0.484121       -13.1736 
  21   2.0000      -0.471921       -12.8416 
  22   2.0000      -0.471332       -12.8256 
  23   2.0000      -0.470888       -12.8135 
  24   2.0000      -0.461442       -12.5565 
  25   2.0000      -0.416672       -11.3382 
  26   2.0000      -0.395757       -10.7691 
  27   2.0000      -0.387233       -10.5372 
  28   2.0000      -0.384218       -10.4551 
  29   2.0000      -0.379395       -10.3239 
  30   2.0000      -0.323356        -8.7990 
  31   2.0000      -0.313712        -8.5365 
  32   2.0000      -0.279452        -7.6043 
  33   2.0000      -0.272741        -7.4217 
  34   2.0000      -0.256740        -6.9863 
  35   2.0000      -0.227456        -6.1894 
  36   2.0000      -0.198167        -5.3924 
  37   0.0000       0.002294         0.0624 
  38   0.0000       0.005320         0.1448 
  39   0.0000       0.045135         1.2282 
  40   0.0000       0.063848         1.7374 
  41   0.0000       0.099451         2.7062 
  42   0.0000       0.112507         3.0615 
  43   0.0000       0.119516         3.2522 
  44   0.0000       0.127194         3.4611 
  45   0.0000       0.131255         3.5716 
  46   0.0000       0.146676         3.9913 
  47   0.0000       0.153846         4.1864 
  48   0.0000       0.176078         4.7913 
  49   0.0000       0.189767         5.1638 
  50   0.0000       0.210023         5.7150 
  51   0.0000       0.216425         5.8892 
  52   0.0000       0.225760         6.1432 
  53   0.0000       0.240265         6.5379 
  54   0.0000       0.249933         6.8010 
  55   0.0000       0.256544         6.9809 
  56   0.0000       0.275459         7.4956 
  57   0.0000       0.299407         8.1473 
  58   0.0000       0.319039         8.6815 
  59   0.0000       0.333050         9.0627 
  60   0.0000       0.353130         9.6091 
  61   0.0000       0.363954         9.9037 
  62   0.0000       0.366521         9.9735 
  63   0.0000       0.374783        10.1984 
  64   0.0000       0.397011        10.8032 
  65   0.0000       0.403310        10.9746 
  66   0.0000       0.413252        11.2452 
  67   0.0000       0.418070        11.3763 
  68   0.0000       0.427750        11.6397 
  69   0.0000       0.433411        11.7937 
  70   0.0000       0.442401        12.0383 
  71   0.0000       0.455674        12.3995 
  72   0.0000       0.463072        12.6008 
  73   0.0000       0.475471        12.9382 
  74   0.0000       0.488342        13.2885 
  75   0.0000       0.493489        13.4285 
  76   0.0000       0.503128        13.6908 
  77   0.0000       0.510459        13.8903 
  78   0.0000       0.516543        14.0558 
  79   0.0000       0.535380        14.5684 
  80   0.0000       0.538454        14.6521 
  81   0.0000       0.550736        14.9863 
  82   0.0000       0.559177        15.2160 
  83   0.0000       0.575332        15.6556 
  84   0.0000       0.588507        16.0141 
  85   0.0000       0.595016        16.1912 
  86   0.0000       0.601341        16.3633 
  87   0.0000       0.619285        16.8516 
  88   0.0000       0.646443        17.5906 
  89   0.0000       0.658822        17.9275 
  90   0.0000       0.671698        18.2778 
  91   0.0000       0.694399        18.8956 
  92   0.0000       0.726148        19.7595 
  93   0.0000       0.738573        20.0976 
  94   0.0000       0.777649        21.1609 
  95   0.0000       0.791121        21.5275 
  96   0.0000       0.801955        21.8223 
  97   0.0000       0.817793        22.2533 
  98   0.0000       0.856860        23.3163 
  99   0.0000       0.883144        24.0316 
 100   0.0000       0.910413        24.7736 
 101   0.0000       0.939427        25.5631 
 102   0.0000       0.948613        25.8131 
 103   0.0000       0.974652        26.5216 
 104   0.0000       0.987231        26.8639 
 105   0.0000       1.006374        27.3848 
 106   0.0000       1.059152        28.8210 
 107   0.0000       1.063132        28.9293 
 108   0.0000       1.075339        29.2615 
 109   0.0000       1.102567        30.0024 
 110   0.0000       1.134612        30.8744 
 111   0.0000       1.164580        31.6898 
 112   0.0000       1.182560        32.1791 
 113   0.0000       1.249173        33.9917 
 114   0.0000       1.298897        35.3448 
 115   0.0000       1.301838        35.4248 
 116   0.0000       1.342196        36.5230 
 117   0.0000       1.381341        37.5882 
 118   0.0000       1.388064        37.7711 
 119   0.0000       1.400648        38.1136 
 120   0.0000       1.421501        38.6810 
 121   0.0000       1.439866        39.1807 
 122   0.0000       1.451490        39.4971 
 123   0.0000       1.460346        39.7380 
 124   0.0000       1.495622        40.6979 
 125   0.0000       1.526579        41.5403 
 126   0.0000       1.531450        41.6729 
 127   0.0000       1.535560        41.7847 
 128   0.0000       1.549609        42.1670 
 129   0.0000       1.556641        42.3584 
 130   0.0000       1.584399        43.1137 
 131   0.0000       1.584988        43.1297 
 132   0.0000       1.601957        43.5915 
 133   0.0000       1.611476        43.8505 
 134   0.0000       1.628727        44.3199 
 135   0.0000       1.637467        44.5577 
 136   0.0000       1.667827        45.3839 
 137   0.0000       1.704074        46.3702 
 138   0.0000       1.736857        47.2623 
 139   0.0000       1.753230        47.7078 
 140   0.0000       1.786132        48.6031 
 141   0.0000       1.803533        49.0766 
 142   0.0000       1.827917        49.7401 
 143   0.0000       1.867570        50.8192 
 144   0.0000       1.873752        50.9874 
 145   0.0000       1.886403        51.3316 
 146   0.0000       1.900336        51.7108 
 147   0.0000       1.902682        51.7746 
 148   0.0000       1.938091        52.7381 
 149   0.0000       1.939417        52.7742 
 150   0.0000       1.977905        53.8215 
 151   0.0000       1.994853        54.2827 
 152   0.0000       2.013115        54.7796 
 153   0.0000       2.035313        55.3837 
 154   0.0000       2.044384        55.6305 
 155   0.0000       2.071196        56.3601 
 156   0.0000       2.080579        56.6154 
 157   0.0000       2.105679        57.2984 
 158   0.0000       2.134042        58.0702 
 159   0.0000       2.143346        58.3234 
 160   0.0000       2.185339        59.4661 
 161   0.0000       2.207874        60.0793 
 162   0.0000       2.225619        60.5622 
 163   0.0000       2.236059        60.8463 
 164   0.0000       2.260223        61.5038 
 165   0.0000       2.273053        61.8529 
 166   0.0000       2.280301        62.0502 
 167   0.0000       2.306789        62.7709 
 168   0.0000       2.310686        62.8770 
 169   0.0000       2.334595        63.5275 
 170   0.0000       2.346265        63.8451 
 171   0.0000       2.357352        64.1468 
 172   0.0000       2.371179        64.5231 
 173   0.0000       2.406002        65.4706 
 174   0.0000       2.412792        65.6554 
 175   0.0000       2.436102        66.2897 
 176   0.0000       2.510426        68.3122 
 177   0.0000       2.520365        68.5826 
 178   0.0000       2.537506        69.0491 
 179   0.0000       2.540340        69.1262 
 180   0.0000       2.574586        70.0580 
 181   0.0000       2.614263        71.1377 
 182   0.0000       2.636093        71.7317 
 183   0.0000       2.642518        71.9066 
 184   0.0000       2.660859        72.4056 
 185   0.0000       2.685077        73.0647 
 186   0.0000       2.694324        73.3163 
 187   0.0000       2.719186        73.9928 
 188   0.0000       2.741181        74.5913 
 189   0.0000       2.761590        75.1467 
 190   0.0000       2.766660        75.2846 
 191   0.0000       2.783917        75.7542 
 192   0.0000       2.809445        76.4489 
 193   0.0000       2.858344        77.7795 
 194   0.0000       2.879292        78.3495 
 195   0.0000       2.897407        78.8425 
 196   0.0000       2.905091        79.0515 
 197   0.0000       2.916566        79.3638 
 198   0.0000       2.950526        80.2879 
 199   0.0000       2.957319        80.4727 
 200   0.0000       2.984043        81.1999 
 201   0.0000       3.011701        81.9525 
 202   0.0000       3.014670        82.0333 
 203   0.0000       3.038075        82.6702 
 204   0.0000       3.040148        82.7266 
 205   0.0000       3.051693        83.0408 
 206   0.0000       3.104662        84.4821 
 207   0.0000       3.128522        85.1314 
 208   0.0000       3.133271        85.2606 
 209   0.0000       3.151482        85.7562 
 210   0.0000       3.171360        86.2971 
 211   0.0000       3.184819        86.6633 
 212   0.0000       3.211208        87.3814 
 213   0.0000       3.271721        89.0280 
 214   0.0000       3.318162        90.2918 
 215   0.0000       3.328078        90.5616 
 216   0.0000       3.341830        90.9358 
 217   0.0000       3.347023        91.0771 
 218   0.0000       3.358242        91.3824 
 219   0.0000       3.379852        91.9705 
 220   0.0000       3.398430        92.4760 
 221   0.0000       3.404933        92.6529 
 222   0.0000       3.505115        95.3790 
 223   0.0000       3.522828        95.8610 
 224   0.0000       3.558557        96.8333 
 225   0.0000       3.690512       100.4239 
 226   0.0000       3.706749       100.8658 
 227   0.0000       3.711983       101.0082 
 228   0.0000       3.780807       102.8810 
 229   0.0000       3.801748       103.4508 
 230   0.0000       3.835164       104.3601 
 231   0.0000       3.862874       105.1141 
 232   0.0000       3.897895       106.0671 
 233   0.0000       3.939163       107.1901 
 234   0.0000       3.963513       107.8527 
 235   0.0000       4.023439       109.4833 
 236   0.0000       4.075078       110.8885 
 237   0.0000       4.107217       111.7631 
 238   0.0000       4.123506       112.2063 
 239   0.0000       4.124491       112.2331 
 240   0.0000       4.206957       114.4771 
 241   0.0000       4.293388       116.8290 
 242   0.0000       4.328778       117.7921 
 243   0.0000       4.362452       118.7084 
 244   0.0000       4.497700       122.3886 
 245   0.0000       4.566861       124.2706 
 246   0.0000       4.568536       124.3162 
 247   0.0000       4.671724       127.1241 
 248   0.0000       4.681151       127.3806 
 249   0.0000       4.740211       128.9877 
 250   0.0000       4.744833       129.1135 
 251   0.0000       4.752278       129.3161 
 252   0.0000       4.796791       130.5273 
 253   0.0000       4.942169       134.4832 
 254   0.0000       4.982108       135.5701 
 255   0.0000       5.078969       138.2058 
 256   0.0000       5.144447       139.9875 
 257   0.0000       5.173723       140.7842 
 258   0.0000       5.190770       141.2480 
 259   0.0000       5.191437       141.2662 
 260   0.0000       5.192553       141.2965 
 261   0.0000       5.199952       141.4979 
 262   0.0000       5.204920       141.6331 
 263   0.0000       5.216992       141.9616 
 264   0.0000       5.289107       143.9239 
 265   0.0000       5.298205       144.1715 
 266   0.0000       5.320483       144.7777 
 267   0.0000       5.369344       146.1073 
 268   0.0000       5.398614       146.9038 
 269   0.0000       5.413366       147.3052 
 270   0.0000       5.432772       147.8333 
 271   0.0000       5.438886       147.9996 
 272   0.0000       5.466800       148.7592 
 273   0.0000       5.538352       150.7062 
 274   0.0000       5.614778       152.7859 
 275   0.0000       5.621599       152.9715 
 276   0.0000       5.711153       155.4084 
 277   0.0000       5.720496       155.6626 
 278   0.0000       5.743046       156.2762 
 279   0.0000       5.886694       160.1851 
 280   0.0000       5.930872       161.3872 
 281   0.0000       5.992927       163.0758 
 282   0.0000       6.000345       163.2777 
 283   0.0000       6.123012       166.6156 
 284   0.0000       6.150887       167.3741 
 285   0.0000       6.230939       169.5525 
 286   0.0000       6.256266       170.2417 
 287   0.0000       6.296081       171.3251 
 288   0.0000       6.310206       171.7094 
 289   0.0000       6.325238       172.1185 
 290   0.0000       6.335592       172.4002 
 291   0.0000       6.360338       173.0736 
 292   0.0000       6.390293       173.8887 
 293   0.0000       6.399651       174.1434 
 294   0.0000       6.411738       174.4723 
 295   0.0000       6.416522       174.6025 
 296   0.0000       6.455586       175.6654 
 297   0.0000       6.469920       176.0555 
 298   0.0000       6.580778       179.0721 
 299   0.0000       6.635614       180.5642 
 300   0.0000       6.703558       182.4131 
 301   0.0000       6.725632       183.0137 
 302   0.0000       6.813412       185.4024 
 303   0.0000       6.832410       185.9193 
 304   0.0000       6.864630       186.7961 
 305   0.0000       6.868601       186.9041 
 306   0.0000       6.892576       187.5565 
 307   0.0000       6.917242       188.2277 
 308   0.0000       6.994112       190.3195 
 309   0.0000       7.042181       191.6275 
 310   0.0000       7.054628       191.9662 
 311   0.0000       7.127312       193.9440 
 312   0.0000       7.140359       194.2990 
 313   0.0000       7.209867       196.1905 
 314   0.0000       7.241798       197.0593 
 315   0.0000       7.340469       199.7443 
 316   0.0000       7.411075       201.6656 
 317   0.0000       7.563076       205.8018 
 318   0.0000      22.271036       606.0257 
 319   0.0000      22.543707       613.4455 
 320   0.0000      23.240482       632.4057 
 321   0.0000      32.204020       876.3159 
 322   0.0000      43.451631      1182.3790 
 323   0.0000      43.782539      1191.3835 
 324   0.0000      43.816014      1192.2944 
 325   0.0000      43.945177      1195.8091 
 326   0.0000      44.056635      1198.8420 

                    ********************************
                    * MULLIKEN POPULATION ANALYSIS *
                    ********************************

-----------------------
MULLIKEN ATOMIC CHARGES
-----------------------
   0 C :   -0.500605
   1 H :    0.360340
   2 H :    0.143505
   3 H :    0.145421
   4 N :    0.434892
   5 O :   -0.597363
   6 O :   -0.598826
   7 C :    0.360982
   8 O :   -0.443728
   9 O :   -0.440845
  10 C :   -0.364875
  11 H :    0.148879
  12 H :    0.156124
  13 H :    0.139761
  14 H :    0.368382
  15 O :   -0.672504
  16 H :    0.360459
Sum of atomic charges:   -1.0000000

--------------------------------
MULLIKEN REDUCED ORBITAL CHARGES
--------------------------------
  0 C s       :     3.264764  s :     3.264764
      pz      :     0.971050  p :     3.173334
      px      :     1.280544
      py      :     0.921739
      dz2     :     0.015370  d :     0.054426
      dxz     :     0.008902
      dyz     :     0.012734
      dx2y2   :     0.008932
      dxy     :     0.008490
      f0      :     0.001239  f :     0.008081
      f+1     :     0.000600
      f-1     :     0.001794
      f+2     :     0.001409
      f-2     :     0.001206
      f+3     :     0.001003
      f-3     :     0.000831
  1 H s       :     0.591438  s :     0.591438
      pz      :     0.011279  p :     0.048221
      px      :     0.024374
      py      :     0.012568
  2 H s       :     0.833261  s :     0.833261
      pz      :     0.012448  p :     0.023234
      px      :     0.007569
      py      :     0.003217
  3 H s       :     0.831628  s :     0.831628
      pz      :     0.003726  p :     0.022951
      px      :     0.007069
      py      :     0.012157
  4 N s       :     3.288474  s :     3.288474
      pz      :     0.942096  p :     3.035371
      px      :     1.156031
      py      :     0.937244
      dz2     :     0.047787  d :     0.227244
      dxz     :     0.040452
      dyz     :     0.068923
      dx2y2   :     0.022974
      dxy     :     0.047108
      f0      :     0.002721  f :     0.014019
      f+1     :     0.001648
      f-1     :     0.003374
      f+2     :     0.001662
      f-2     :     0.001495
      f+3     :     0.001615
      f-3     :     0.001503
  5 O s       :     3.876364  s :     3.876364
      pz      :     1.834775  p :     4.682845
      px      :     1.660629
      py      :     1.187441
      dz2     :     0.004631  d :     0.035239
      dxz     :     0.000889
      dyz     :     0.008389
      dx2y2   :     0.011914
      dxy     :     0.009416
      f0      :     0.000303  f :     0.002915
      f+1     :     0.000054
      f-1     :     0.000531
      f+2     :     0.000497
      f-2     :     0.000153
      f+3     :     0.000664
      f-3     :     0.000713
  6 O s       :     3.875117  s :     3.875117
      pz      :     1.189078  p :     4.685640
      px      :     1.626229
      py      :     1.870333
      dz2     :     0.015559  d :     0.035159
      dxz     :     0.010347
      dyz     :     0.006968
      dx2y2   :     0.001214
      dxy     :     0.001071
      f0      :     0.001067  f :     0.002909
      f+1     :     0.000830
      f-1     :     0.000604
      f+2     :     0.000197
      f-2     :     0.000181
      f+3     :     0.000015
      f-3     :     0.000015
  7 C s       :     3.083917  s :     3.083917
      pz      :     0.725981  p :     2.284988
      px      :     0.774698
      py      :     0.784309
      dz2     :     0.045230  d :     0.244923
      dxz     :     0.019031
      dyz     :     0.062406
      dx2y2   :     0.048041
      dxy     :     0.070215
      f0      :     0.002542  f :     0.025190
      f+1     :     0.002493
      f-1     :     0.003435
      f+2     :     0.004895
      f-2     :     0.002469
      f+3     :     0.005877
      f-3     :     0.003480
  8 O s       :     3.761053  s :     3.761053
      pz      :     1.520361  p :     4.653406
      px      :     1.483612
      py      :     1.649433
      dz2     :     0.004166  d :     0.027606
      dxz     :     0.004212
      dyz     :     0.007234
      dx2y2   :     0.003023
      dxy     :     0.008972
      f0      :     0.000255  f :     0.001662
      f+1     :     0.000339
      f-1     :     0.000092
      f+2     :     0.000260
      f-2     :     0.000474
      f+3     :     0.000130
      f-3     :     0.000112
  9 O s       :     3.803485  s :     3.803485
      pz      :     1.604994  p :     4.607624
      px      :     1.656853
      py      :     1.345777
      dz2     :     0.003124  d :     0.027947
      dxz     :     0.000832
      dyz     :     0.008596
      dx2y2   :     0.007363
      dxy     :     0.008033
      f0      :     0.000180  f :     0.001789
      f+1     :     0.000023
      f-1     :     0.000307
      f+2     :     0.000336
      f-2     :     0.000106
      f+3     :     0.000476
      f-3     :     0.000362
 10 C s       :     3.275071  s :     3.275071
      pz      :     1.048953  p :     3.048859
      px      :     1.006323
      py      :     0.993583
      dz2     :     0.009620  d :     0.037346
      dxz     :     0.005143
      dyz     :     0.004585
      dx2y2   :     0.011937
      dxy     :     0.006061
      f0      :     0.001057  f :     0.003599
      f+1     :     0.000272
      f-1     :     0.000234
      f+2     :     0.000235
      f-2     :     0.000256
      f+3     :     0.000799
      f-3     :     0.000746
 11 H s       :     0.829880  s :     0.829880
      pz      :     0.012876  p :     0.021242
      px      :     0.004332
      py      :     0.004033
 12 H s       :     0.822366  s :     0.822366
      pz      :     0.005391  p :     0.021510
      px      :     0.011781
      py      :     0.004338
 13 H s       :     0.838872  s :     0.838872
      pz      :     0.004498  p :     0.021366
      px      :     0.004277
      py      :     0.012592
 14 H s       :     0.575699  s :     0.575699
      pz      :     0.014784  p :     0.055919
      px      :     0.019107
      py      :     0.022027
 15 O s       :     3.792616  s :     3.792616
      pz      :     1.706422  p :     4.859473
      px      :     1.457569
      py      :     1.695482
      dz2     :     0.004217  d :     0.019288
      dxz     :     0.002176
      dyz     :     0.006479
      dx2y2   :     0.005634
      dxy     :     0.000783
      f0      :     0.000029  f :     0.001128
      f+1     :     0.000177
      f-1     :     0.000309
      f+2     :     0.000121
      f-2     :     0.000126
      f+3     :     0.000261
      f-3     :     0.000104
 16 H s       :     0.595043  s :     0.595043
      pz      :     0.017681  p :     0.044498
      px      :     0.010795
      py      :     0.016022


                     *******************************
                     * LOEWDIN POPULATION ANALYSIS *
                     *******************************

----------------------
LOEWDIN ATOMIC CHARGES
----------------------
   0 C :   -0.430769
   1 H :    0.153451
   2 H :    0.102596
   3 H :    0.102746
   4 N :   -0.124119
   5 O :   -0.299065
   6 O :   -0.301692
   7 C :   -0.542422
   8 O :    0.057546
   9 O :    0.018947
  10 C :   -0.265916
  11 H :    0.144190
  12 H :    0.151381
  13 H :    0.138759
  14 H :    0.181807
  15 O :   -0.259208
  16 H :    0.171767

-------------------------------
LOEWDIN REDUCED ORBITAL CHARGES
-------------------------------
  0 C s       :     2.875590  s :     2.875590
      pz      :     1.032656  p :     3.236487
      px      :     1.196500
      py      :     1.007331
      dz2     :     0.085333  d :     0.275910
      dxz     :     0.030616
      dyz     :     0.074326
      dx2y2   :     0.053114
      dxy     :     0.032521
      f0      :     0.005283  f :     0.042783
      f+1     :     0.002384
      f-1     :     0.010529
      f+2     :     0.008590
      f-2     :     0.007674
      f+3     :     0.003849
      f-3     :     0.004474
  1 H s       :     0.673280  s :     0.673280
      pz      :     0.035390  p :     0.173269
      px      :     0.099821
      py      :     0.038058
  2 H s       :     0.826997  s :     0.826997
      pz      :     0.035830  p :     0.070407
      px      :     0.023686
      py      :     0.010890
  3 H s       :     0.826280  s :     0.826280
      pz      :     0.012650  p :     0.070974
      px      :     0.023062
      py      :     0.035263
  4 N s       :     2.924852  s :     2.924852
      pz      :     1.136481  p :     3.360180
      px      :     1.073657
      py      :     1.150042
      dz2     :     0.178905  d :     0.768003
      dxz     :     0.122752
      dyz     :     0.228196
      dx2y2   :     0.097901
      dxy     :     0.140249
      f0      :     0.014081  f :     0.071085
      f+1     :     0.008095
      f-1     :     0.018519
      f+2     :     0.007766
      f-2     :     0.008499
      f+3     :     0.006332
      f-3     :     0.007792
  5 O s       :     3.525887  s :     3.525887
      pz      :     1.753197  p :     4.674215
      px      :     1.612250
      py      :     1.308768
      dz2     :     0.011884  d :     0.089369
      dxz     :     0.002194
      dyz     :     0.022512
      dx2y2   :     0.030695
      dxy     :     0.022084
      f0      :     0.000969  f :     0.009594
      f+1     :     0.000140
      f-1     :     0.001697
      f+2     :     0.001746
      f-2     :     0.000505
      f+3     :     0.002155
      f-3     :     0.002383
  6 O s       :     3.526673  s :     3.526673
      pz      :     1.311445  p :     4.676341
      px      :     1.588775
      py      :     1.776121
      dz2     :     0.039305  d :     0.089125
      dxz     :     0.024954
      dyz     :     0.019412
      dx2y2   :     0.002838
      dxy     :     0.002615
      f0      :     0.003423  f :     0.009554
      f+1     :     0.002707
      f-1     :     0.002109
      f+2     :     0.000611
      f-2     :     0.000634
      f+3     :     0.000034
      f-3     :     0.000035
  7 C s       :     2.768342  s :     2.768342
      pz      :     0.803783  p :     2.664002
      px      :     0.859535
      py      :     1.000684
      dz2     :     0.155496  d :     0.952426
      dxz     :     0.096972
      dyz     :     0.240188
      dx2y2   :     0.194606
      dxy     :     0.265164
      f0      :     0.017620  f :     0.157653
      f+1     :     0.015120
      f-1     :     0.020303
      f+2     :     0.030004
      f-2     :     0.015509
      f+3     :     0.037733
      f-3     :     0.021365
  8 O s       :     3.342867  s :     3.342867
      pz      :     1.488676  p :     4.529872
      px      :     1.442272
      py      :     1.598924
      dz2     :     0.008144  d :     0.065146
      dxz     :     0.015951
      dyz     :     0.015888
      dx2y2   :     0.007637
      dxy     :     0.017526
      f0      :     0.000577  f :     0.004569
      f+1     :     0.000664
      f-1     :     0.000415
      f+2     :     0.000852
      f-2     :     0.001032
      f+3     :     0.000650
      f-3     :     0.000379
  9 O s       :     3.406201  s :     3.406201
      pz      :     1.490937  p :     4.504339
      px      :     1.525461
      py      :     1.487941
      dz2     :     0.008248  d :     0.064528
      dxz     :     0.001199
      dyz     :     0.017214
      dx2y2   :     0.021577
      dxy     :     0.016289
      f0      :     0.000575  f :     0.005985
      f+1     :     0.000064
      f-1     :     0.001060
      f+2     :     0.001141
      f-2     :     0.000250
      f+3     :     0.001388
      f-3     :     0.001507
 10 C s       :     2.835080  s :     2.835080
      pz      :     1.069311  p :     3.182689
      px      :     1.056224
      py      :     1.057154
      dz2     :     0.059877  d :     0.223525
      dxz     :     0.032090
      dyz     :     0.023097
      dx2y2   :     0.067388
      dxy     :     0.041072
      f0      :     0.003992  f :     0.024623
      f+1     :     0.001742
      f-1     :     0.002159
      f+2     :     0.003886
      f-2     :     0.004764
      f+3     :     0.004201
      f-3     :     0.003879
 11 H s       :     0.795925  s :     0.795925
      pz      :     0.035313  p :     0.059885
      px      :     0.012467
      py      :     0.012104
 12 H s       :     0.788758  s :     0.788758
      pz      :     0.015937  p :     0.059860
      px      :     0.030845
      py      :     0.013078
 13 H s       :     0.801680  s :     0.801680
      pz      :     0.013403  p :     0.059561
      px      :     0.012712
      py      :     0.033446
 14 H s       :     0.634633  s :     0.634633
      pz      :     0.043126  p :     0.183560
      px      :     0.061134
      py      :     0.079300
 15 O s       :     3.448501  s :     3.448501
      pz      :     1.678508  p :     4.778175
      px      :     1.454656
      py      :     1.645011
      dz2     :     0.005928  d :     0.030286
      dxz     :     0.002241
      dyz     :     0.009528
      dx2y2   :     0.010208
      dxy     :     0.002381
      f0      :     0.000046  f :     0.002246
      f+1     :     0.000402
      f-1     :     0.000531
      f+2     :     0.000336
      f-2     :     0.000212
      f+3     :     0.000562
      f-3     :     0.000157
 16 H s       :     0.668595  s :     0.668595
      pz      :     0.068729  p :     0.159638
      px      :     0.031304
      py      :     0.059605


                      *****************************
                      * MAYER POPULATION ANALYSIS *
                      *****************************

  NA   - Mulliken gross atomic population
  ZA   - Total nuclear charge
  QA   - Mulliken gross atomic charge
  VA   - Mayer's total valence
  BVA  - Mayer's bonded valence
  FA   - Mayer's free valence

  ATOM       NA         ZA         QA         VA         BVA        FA
  0 C      6.5006     6.0000    -0.5006     3.7837     3.7837     0.0000
  1 H      0.6397     1.0000     0.3603     0.8950     0.8950    -0.0000
  2 H      0.8565     1.0000     0.1435     0.9628     0.9628     0.0000
  3 H      0.8546     1.0000     0.1454     0.9623     0.9623     0.0000
  4 N      6.5651     7.0000     0.4349     4.0820     4.0820     0.0000
  5 O      8.5974     8.0000    -0.5974     1.5847     1.5847    -0.0000
  6 O      8.5988     8.0000    -0.5988     1.5813     1.5813     0.0000
  7 C      5.6390     6.0000     0.3610     4.1961     4.1961     0.0000
  8 O      8.4437     8.0000    -0.4437     1.9983     1.9983     0.0000
  9 O      8.4408     8.0000    -0.4408     2.0242     2.0242     0.0000
 10 C      6.3649     6.0000    -0.3649     3.8193     3.8193     0.0000
 11 H      0.8511     1.0000     0.1489     0.9705     0.9705     0.0000
 12 H      0.8439     1.0000     0.1561     0.9668     0.9668     0.0000
 13 H      0.8602     1.0000     0.1398     0.9777     0.9777     0.0000
 14 H      0.6316     1.0000     0.3684     0.9304     0.9304     0.0000
 15 O      8.6725     8.0000    -0.6725     1.8460     1.8460    -0.0000
 16 H      0.6395     1.0000     0.3605     0.9036     0.9036    -0.0000

  Mayer bond orders larger than 0.100000
B(  0-C ,  2-H ) :   0.9602 B(  0-C ,  3-H ) :   0.9545 B(  0-C ,  4-N ) :   1.4472 
B(  0-C ,  5-O ) :   0.1868 B(  0-C ,  6-O ) :   0.1981 B(  1-H , 15-O ) :   0.8288 
B(  4-N ,  5-O ) :   1.3166 B(  4-N ,  6-O ) :   1.3178 B(  7-C ,  8-O ) :   1.2518 
B(  7-C ,  9-O ) :   1.9347 B(  7-C , 10-C ) :   0.9757 B(  8-O , 14-H ) :   0.7317 
B( 10-C , 11-H ) :   0.9556 B( 10-C , 12-H ) :   0.9404 B( 10-C , 13-H ) :   0.9643 
B( 14-H , 15-O ) :   0.1690 B( 15-O , 16-H ) :   0.8570 

-------
TIMINGS
-------

Total SCF time: 0 days 0 hours 0 min 14 sec 

Total time                  ....      14.836 sec
Sum of individual times     ....      13.695 sec  ( 92.3%)

Fock matrix formation       ....      10.155 sec  ( 68.4%)
  Split-RI-J                ....       1.731 sec  ( 17.0% of F)
  Chain of spheres X        ....       3.685 sec  ( 36.3% of F)
  XC integration            ....       1.420 sec  ( 14.0% of F)
    Basis function eval.    ....       0.081 sec  (  5.7% of XC)
    Density eval.           ....       0.151 sec  ( 10.7% of XC)
    XC-Functional eval.     ....       0.012 sec  (  0.9% of XC)
    XC-Potential eval.      ....       0.106 sec  (  7.5% of XC)
Diagonalization             ....       0.560 sec  (  3.8%)
[...]
             **** ENERGY FILE WAS UPDATED (/home/rudenko/mop_saddle_orca_4_serv/for_orca/ch3no2_ch3coo_new/orca/orca_end/end.en.tmp) ****
             **** THE GBW FILE WAS UPDATED (/home/rudenko/mop_saddle_orca_4_serv/for_orca/ch3no2_ch3coo_new/orca/orca_end/end.gbw) ****
             **** DENSITY /home/rudenko/mop_saddle_orca_4_serv/for_orca/ch3no2_ch3coo_new/orca/orca_end/end.scfp WAS UPDATED ****
Total SCF time: 0 days 0 hours 0 min 11 sec 

Maximum memory used throughout the entire SCF-calculation: 78.6 MB


-------------------------------------------------------------------------------
                          DFT DISPERSION CORRECTION                            
                                                                               
                              DFTD3 V3.1  Rev 1                                
                          USING Becke-Johnson damping                          
-------------------------------------------------------------------------------
-------------------------   ----------------
Dispersion correction           -0.018581525
-------------------------   ----------------


-------------------------   --------------------
FINAL SINGLE POINT ENERGY      -550.074410247914
-------------------------   --------------------



           ************************************************************
           *        Program running with 102 parallel MPI-processes   *
           *              working on a common directory               *
           ************************************************************
------------------------------------------------------------------------------
                         ORCA SCF GRADIENT CALCULATION
------------------------------------------------------------------------------

 ... reading COSX grid (gridx3)
Gradient of the Kohn-Sham DFT energy:
Kohn-Sham wavefunction type      ... RKS
Hartree-Fock exchange scaling    ...    0.200
Number of operators              ...    1
Number of atoms                  ...   17
Basis set dimensions             ...  327
Integral neglect threshold       ... 2.5e-11
Integral primitive cutoff        ... 2.5e-12
SHARK Integral package           ... ON

Nuc. rep. gradient       (SHARK) ... done (  0.0 sec)
HCore & Overlap gradient (SHARK) ... done (  0.1 sec)
RI-J gradient            (SHARK) ... done (  0.2 sec)
COSX-gradient                    ... done (  0.8 sec)
Exchange-correlation gradient    ... done
Dispersion correction            ... done

------------------
CARTESIAN GRADIENT
------------------

   1   C   :   -0.000238937    0.000369976    0.000307906
   2   H   :    0.000631255    0.000520278   -0.001394338
   3   H   :   -0.000050670   -0.000062934   -0.000081685
   4   H   :    0.000107929   -0.000164642    0.000040940
   5   N   :   -0.000094305   -0.000582702    0.000064823
   6   O   :    0.000136043    0.000232218    0.000100507
   7   O   :   -0.000095180    0.000158322   -0.000028826
   8   C   :    0.000013860    0.000609048    0.000750508
   9   O   :    0.000468266   -0.000499206    0.000148505
  10   O   :    0.000061893   -0.000206633   -0.000368788
  11   C   :   -0.000237491    0.000027250   -0.000086370
  12   H   :    0.000070857   -0.000159134    0.000009449
  13   H   :    0.000046081    0.000010549   -0.000063441
  14   H   :    0.000074263    0.000097141    0.000058578
  15   H   :   -0.000679708    0.000175745   -0.000817262
  16   O   :   -0.000282969   -0.000353508    0.001223740
  17   H   :    0.000083351    0.000015858    0.000072286

Difference to translation invariance:
           :    0.0000145373    0.0001876250   -0.0000634692

Difference to rotation invariance:
           :    0.0009763102   -0.0003128275    0.0002621625

Norm of the cartesian gradient     ...    0.0028335205
RMS gradient                       ...    0.0003967722
MAX gradient                       ...    0.0013943377

-------
TIMINGS
-------

Total SCF gradient time            ...        2.886 sec

One electron gradient       ....       0.070 sec  (  2.4%)
RI-J Coulomb gradient       ....       0.233 sec  (  8.1%)
COSX gradient               ....       0.775 sec  ( 26.9%)
XC gradient                 ....       0.342 sec  ( 11.9%)
CPCM gradient               ....       0.140 sec  (  4.9%)
   A-Matrix (El+Nuc)        ....       0.054 sec  (  1.9%)
   Potential                ....       0.086 sec  (  3.0%)

Maximum memory used throughout the entire SCFGRAD-calculation: 51.3 MB
------------------------------------------------------------------------------
                         ORCA GEOMETRY RELAXATION STEP
------------------------------------------------------------------------------

Reading the OPT-File                    .... done
Getting information on internals        .... done
Copying old internal coords+grads       .... done
Making the new internal coordinates     .... (new redundants).... done
Validating the new internal coordinates .... (new redundants).... done
Calculating the B-matrix                .... done
Calculating the G,G- and P matrices     .... done
Transforming gradient to internals      .... done
Projecting the internal gradient        .... done
Number of atoms                         ....  17
Number of internal coordinates          .... 120
Current Energy                          ....  -550.074410248 Eh
Current gradient norm                   ....     0.002833521 Eh/bohr
Maximum allowed component of the step   ....  0.300
Current trust radius                    ....  0.300
Updating the Hessian (BFGS)             .... done
Forming the augmented Hessian           .... done
Diagonalizing the augmented Hessian     .... done
Last element of RFO vector              ....  0.999181149
Lowest eigenvalues of augmented Hessian:
 -0.000007292  0.000548431  0.000717598  0.002928324  0.004496238
Length of the computed step             ....  0.040493412
The final length of the internal step   ....  0.040493412
Converting the step to cartesian space:
 Initial RMS(Int)=    0.0036965259
Transforming coordinates:
 Iter   0:  RMS(Cart)=    0.0073202593 RMS(Int)=    0.0037204852
 Iter   1:  RMS(Cart)=    0.0000791010 RMS(Int)=    0.0001021607
 Iter   2:  RMS(Cart)=    0.0000033969 RMS(Int)=    0.0000042031
 Iter   3:  RMS(Cart)=    0.0000001218 RMS(Int)=    0.0000001642
 Iter   4:  RMS(Cart)=    0.0000000045 RMS(Int)=    0.0000000065
done
Storing new coordinates                 .... done

                                .--------------------.
          ----------------------|Geometry convergence|-------------------------
          Item                value                   Tolerance       Converged
          ---------------------------------------------------------------------
          Energy change      -0.0000071865            0.0000050000      NO
          RMS gradient        0.0001021086            0.0001000000      NO
          MAX gradient        0.0004304546            0.0003000000      NO
          RMS step            0.0036965259            0.0020000000      NO
          MAX step            0.0142223648            0.0040000000      NO
          ........................................................
          Max(Bonds)      0.0050      Max(Angles)    0.44
          Max(Dihed)        0.81      Max(Improp)    0.00
          ---------------------------------------------------------------------

The optimization has not yet converged - more geometry cycles are needed


    ---------------------------------------------------------------------------
                         Redundant Internal Coordinates
                            (Angstroem and degrees)

        Definition                    Value    dE/dq     Step     New-Value
    ----------------------------------------------------------------------------
     1. B(H   1,C   0)                2.0198  0.000067  0.0002    2.0200   
     2. B(H   2,C   0)                1.0771 -0.000083  0.0001    1.0772   
     3. B(H   2,H   1)                2.3719  0.000013 -0.0040    2.3678   
     4. B(H   3,C   0)                1.0775  0.000060 -0.0001    1.0773   
     5. B(H   3,H   1)                2.3739  0.000007  0.0003    2.3741   
     6. B(N   4,C   0)                1.3335 -0.000206  0.0000    1.3335   
     7. B(N   4,H   1)                2.4989 -0.000026  0.0029    2.5018   
     8. B(O   5,N   4)                1.2813  0.000269  0.0000    1.2813   
     9. B(O   6,N   4)                1.2802  0.000002 -0.0000    1.2802   
    10. B(O   8,C   7)                1.3308 -0.000285  0.0006    1.3314   
    11. B(O   9,C   7)                1.2171  0.000336 -0.0003    1.2168   
    12. B(C  10,C   7)                1.5022 -0.000054  0.0001    1.5023   
    13. B(H  11,C  10)                1.0867  0.000038 -0.0001    1.0867   
    14. B(H  12,C  10)                1.0904 -0.000003 -0.0001    1.0904   
    15. B(H  13,C  10)                1.0925  0.000040 -0.0000    1.0925   
    16. B(H  14,O   8)                1.0033 -0.000016 -0.0001    1.0032   
    17. B(O  15,H   1)                0.9879 -0.000060 -0.0000    0.9879   
    18. B(O  15,H  14)                1.6653  0.000012  0.0008    1.6661   
    19. B(H  16,O  15)                0.9666  0.000056 -0.0000    0.9666   
    20. B(H  16,H  14)                2.1931 -0.000039  0.0050    2.1980   
    21. A(H   1,C   0,H   3)           95.20 -0.000049    0.01     95.21   
    22. A(H   2,C   0,N   4)          117.38  0.000011   -0.01    117.37   
    23. A(H   1,C   0,N   4)           94.12  0.000019    0.14     94.26   
    24. A(H   2,C   0,H   3)          123.15 -0.000011   -0.02    123.13   
    25. A(H   1,C   0,H   2)           95.09 -0.000001   -0.27     94.82   
    26. A(H   3,C   0,N   4)          117.38  0.000010    0.06    117.44   
    27. A(H   3,H   1,O  15)          158.97 -0.000007   -0.18    158.79   
    28. A(C   0,H   1,H   2)           26.89 -0.000022    0.06     26.96   
    29. A(H   2,H   1,O  15)          147.99  0.000010    0.20    148.19   
    30. A(C   0,H   1,O  15)          173.78 -0.000012    0.27    174.05   
    31. A(H   3,H   1,N   4)           50.04 -0.000027   -0.02     50.02   
    32. A(H   2,H   1,H   3)           47.06 -0.000009    0.03     47.10   
    33. A(C   0,H   1,N   4)           32.16 -0.000049   -0.05     32.11   
    34. A(N   4,H   1,O  15)          146.26  0.000048    0.07    146.33   
    35. A(C   0,H   1,H   3)           26.87  0.000016   -0.01     26.87   
    36. A(H   2,H   1,N   4)           50.06 -0.000055    0.00     50.06   
    37. A(C   0,H   2,H   1)           58.02  0.000023    0.20     58.22   
    38. A(C   0,H   3,H   1)           57.92  0.000033   -0.00     57.92   
    39. A(H   1,N   4,O   5)          106.88 -0.000026    0.01    106.89   
    40. A(C   0,N   4,H   1)           53.73  0.000030   -0.10     53.63   
    41. A(H   1,N   4,O   6)          107.07  0.000076    0.06    107.14   
    42. A(O   5,N   4,O   6)          118.60 -0.000034    0.01    118.61   
    43. A(C   0,N   4,O   6)          120.74  0.000067    0.00    120.74   
    44. A(C   0,N   4,O   5)          120.64 -0.000031   -0.01    120.63   
    45. A(O   8,C   7,O   9)          123.02  0.000089   -0.00    123.02   
    46. A(O   9,C   7,C  10)          124.24 -0.000430    0.08    124.32   
    47. A(O   8,C   7,C  10)          112.73  0.000342   -0.08    112.66   
    48. A(C   7,O   8,H  14)          110.52  0.000366   -0.08    110.44   
    49. A(H  12,C  10,H  13)          107.53 -0.000064    0.01    107.54   
    50. A(H  11,C  10,H  13)          109.49  0.000100   -0.04    109.45   
    51. A(C   7,C  10,H  13)          108.90  0.000165   -0.09    108.81   
    52. A(H  11,C  10,H  12)          110.30 -0.000035    0.10    110.39   
    53. A(C   7,C  10,H  12)          110.40  0.000068   -0.02    110.38   
    54. A(C   7,C  10,H  11)          110.17 -0.000226    0.03    110.20   
    55. A(O  15,H  14,H  16)           24.46  0.000030   -0.12     24.35   
    56. A(O   8,H  14,H  16)          164.26  0.000358    0.44    164.69   
    57. A(H  14,O  15,H  16)          110.02 -0.000069    0.35    110.37   
    58. A(H   1,O  15,H  14)          103.66  0.000069   -0.10    103.56   
    59. A(H   1,O  15,H  16)          105.32 -0.000042    0.00    105.33   
    60. A(H  14,H  16,O  15)           45.52  0.000039   -0.23     45.28   
    61. D(O  15,H   1,C   0,H   2)    -38.01  0.000022   -0.48    -38.49   
    62. D(N   4,H   1,C   0,H   3)    118.00  0.000006    0.08    118.09   
    63. D(O  15,H   1,C   0,H   3)   -162.02  0.000042   -0.42   -162.44   
    64. D(H   2,H   1,C   0,N   4)    117.99  0.000014   -0.02    117.96   
    65. D(N   4,H   1,C   0,H   2)   -117.99 -0.000014    0.02   -117.96   
    66. D(H   3,H   1,C   0,N   4)   -118.00 -0.000006   -0.08   -118.09   
    67. D(H   3,H   1,C   0,H   2)    124.01 -0.000020   -0.06    123.95   
    68. D(H   2,H   1,C   0,H   3)   -124.01  0.000020    0.06   -123.95   
    69. D(O  15,H   1,C   0,N   4)     79.98  0.000035   -0.51     79.47   
    70. D(C   0,H   2,H   1,H   3)    -30.78 -0.000033    0.00    -30.78   
    71. D(C   0,H   2,H   1,N   4)     37.81 -0.000030   -0.05     37.76   
    72. D(C   0,H   2,H   1,O  15)    172.76 -0.000012    0.14    172.90   
    73. D(H   1,H   2,C   0,N   4)    -97.31 -0.000023   -0.02    -97.33   
    74. D(H   1,H   2,C   0,H   3)     99.61 -0.000063   -0.17     99.44   
    75. D(H   1,H   3,C   0,H   2)    -99.55  0.000037    0.32    -99.23   
    76. D(C   0,H   3,H   1,H   2)     30.81 -0.000013    0.08     30.89   
    77. D(C   0,H   3,H   1,N   4)    -37.81  0.000045    0.08    -37.73   
    78. D(H   1,H   3,C   0,N   4)     97.37 -0.000003    0.18     97.55   
    79. D(C   0,H   3,H   1,O  15)    174.65 -0.000021    0.58    175.23   
    80. D(C   0,N   4,H   1,H   3)     31.37  0.000032   -0.02     31.35   
    81. D(C   0,N   4,H   1,O  15)   -168.92  0.000037   -0.49   -169.41   
    82. D(H   1,N   4,C   0,H   2)     97.90  0.000010   -0.23     97.67   
    83. D(O   6,N   4,C   0,H   1)     89.27  0.000073    0.03     89.30   
    84. D(C   0,N   4,H   1,H   2)    -31.40  0.000003   -0.08    -31.48   
    85. D(O   6,N   4,C   0,H   3)     -8.76  0.000117   -0.07     -8.83   
    86. D(H   1,N   4,C   0,H   3)    -98.03  0.000044   -0.10    -98.13   
    87. D(O   5,N   4,C   0,H   1)    -89.07 -0.000005    0.03    -89.04   
    88. D(O   5,N   4,C   0,H   3)    172.90  0.000039   -0.07    172.83   
    89. D(O   5,N   4,C   0,H   2)      8.82  0.000006   -0.20      8.63   
    90. D(O   5,N   4,H   1,O  15)    -52.95  0.000015   -0.51    -53.46   
    91. D(O   6,N   4,C   0,H   2)   -172.83  0.000083   -0.20   -173.03   
    92. D(O   6,N   4,H   1,H   3)    -84.59 -0.000001    0.01    -84.58   
    93. D(O   6,N   4,H   1,H   2)   -147.36 -0.000029   -0.05   -147.41   
    94. D(O   6,N   4,H   1,C   0)   -115.96 -0.000032    0.04   -115.93   
    95. D(O   6,N   4,H   1,O  15)     75.12  0.000004   -0.46     74.66   
    96. D(O   5,N   4,H   1,H   3)    147.35  0.000010   -0.05    147.30   
    97. D(O   5,N   4,H   1,H   2)     84.57 -0.000019   -0.10     84.47   
    98. D(O   5,N   4,H   1,C   0)    115.97 -0.000022   -0.02    115.95   
    99. D(H  14,O   8,C   7,C  10)    175.27 -0.000025   -0.05    175.22   
   100. D(H  14,O   8,C   7,O   9)     -4.19 -0.000121    0.02     -4.17   
   101. D(H  13,C  10,C   7,O   9)    110.11  0.000060   -0.19    109.92   
   102. D(H  13,C  10,C   7,O   8)    -69.35 -0.000041   -0.12    -69.47   
   103. D(H  12,C  10,C   7,O   9)   -132.05  0.000121   -0.24   -132.29   
   104. D(H  12,C  10,C   7,O   8)     48.49  0.000020   -0.17     48.32   
   105. D(H  11,C  10,C   7,O   9)     -9.99 -0.000029   -0.11    -10.10   
   106. D(H  11,C  10,C   7,O   8)    170.56 -0.000130   -0.04    170.52   
   107. D(H  16,H  14,O   8,C   7)     38.54  0.000129   -0.33     38.22   
   108. D(H   1,O  15,H  14,H  16)   -112.21  0.000042   -0.10   -112.31   
   109. D(H  16,O  15,O   8,C   7)     34.17 -0.000027    0.07     34.25   
   110. D(H   1,O  15,O   8,C   7)    -79.06 -0.000026   -0.02    -79.07   
   111. D(H  14,O  15,H   1,N   4)      1.58 -0.000082    0.41      1.98   
   112. D(H  14,O  15,H   1,H   3)    133.79 -0.000022   -0.47    133.32   
   113. D(H  14,O  15,H   1,H   2)   -100.79 -0.000048   -0.10   -100.89   
   114. D(H  14,O  15,H   1,C   0)    -69.10 -0.000082    0.50    -68.60   
   115. D(H  16,O  15,H   1,N   4)   -114.01 -0.000018    0.06   -113.95   
   116. D(H  16,O  15,H   1,H   3)     18.20  0.000042   -0.81     17.38   
   117. D(H  16,O  15,H   1,H   2)    143.62  0.000016   -0.45    143.17   
   118. D(H  16,O  15,H   1,C   0)    175.32 -0.000018    0.15    175.47   
   119. D(H  14,H  16,O  15,H   1)    111.13  0.000029    0.03    111.17   
   120. D(O  15,H  16,H  14,O   8)    174.11 -0.000237    0.36    174.47   
    ----------------------------------------------------------------------------




    ----------------------------------------------------------------------------
                                  WARNING !!!
       The optimization did not converge but reached the maximum number of
       optimization cycles.
       Please check your results very carefully.
    ----------------------------------------------------------------------------



                            ***************************************
                            *     ORCA property calculations      *
                            ***************************************

                                    ---------------------
                                    Active property flags
                                    ---------------------
   (+) Dipole Moment


------------------------------------------------------------------------------
                       ORCA ELECTRIC PROPERTIES CALCULATION
------------------------------------------------------------------------------

Dipole Moment Calculation                       ... on
Quadrupole Moment Calculation                   ... off
Polarizability Calculation                      ... off
GBWName                                         ... /home/rudenko/mop_saddle_orca_4_serv/for_orca/ch3no2_ch3coo_new/orca/orca_end/end.gbw
Electron density                                ... /home/rudenko/mop_saddle_orca_4_serv/for_orca/ch3no2_ch3coo_new/orca/orca_end/end.scfp
The origin for moment calculation is the CENTER OF MASS  = ( 2.681512,  0.154513 -2.147859)

-------------
DIPOLE MOMENT
-------------
                                X             Y             Z
Electronic contribution:     -1.25215       0.20115      -1.30602
Nuclear contribution   :      3.63108      -1.65615       1.74581
                        -----------------------------------------
Total Dipole Moment    :      2.37893      -1.45500       0.43979
                        -----------------------------------------
Magnitude (a.u.)       :      2.82307
Magnitude (Debye)      :      7.17568



--------------------
Rotational spectrum 
--------------------
 
Rotational constants in cm-1:     0.063821     0.026758     0.023254 
Rotational constants in MHz :  1913.298997   802.171516   697.135822 

 Dipole components along the rotational axes: 
x,y,z [a.u.] :    -2.091035     1.896627    -0.011253 
x,y,z [Debye]:    -5.314988     4.820843    -0.028602 

 

Timings for individual modules:

Sum of individual times         ...     1383.885 sec (=  23.065 min)
GTO integral calculation        ...      219.407 sec (=   3.657 min)  15.9 %
SCF iterations                  ...      824.793 sec (=  13.747 min)  59.6 %
SCF Gradient evaluation         ...      338.251 sec (=   5.638 min)  24.4 %
Geometry relaxation             ...        1.434 sec (=   0.024 min)   0.1 %
                             ****ORCA TERMINATED NORMALLY****
TOTAL RUN TIME: 0 days 0 hours 26 minutes 21 seconds 446 msec
