
                                 *****************
                                 * O   R   C   A *
                                 *****************

                                            #,                                       
                                            ###                                      
                                            ####                                     
                                            #####                                    
                                            ######                                   
                                           ########,                                 
                                     ,,################,,,,,                         
                               ,,#################################,,                 
                          ,,##########################################,,             
                       ,#########################################, ''#####,          
                    ,#############################################,,   '####,        
                  ,##################################################,,,,####,       
                ,###########''''           ''''###############################       
              ,#####''   ,,,,##########,,,,          '''####'''          '####       
            ,##' ,,,,###########################,,,                        '##       
           ' ,,###''''                  '''############,,,                           
         ,,##''                                '''############,,,,        ,,,,,,###''
      ,#''                                            '''#######################'''  
     '                                                          ''''####''''         
             ,#######,   #######,   ,#######,      ##                                
            ,#'     '#,  ##    ##  ,#'     '#,    #''#        ######   ,####,        
            ##       ##  ##   ,#'  ##            #'  '#       #        #'  '#        
            ##       ##  #######   ##           ,######,      #####,   #    #        
            '#,     ,#'  ##    ##  '#,     ,#' ,#      #,         ##   #,  ,#        
             '#######'   ##     ##  '#######'  #'      '#     #####' # '####'        



                  #######################################################
                  #                        -***-                        #
                  #          Department of theory and spectroscopy      #
                  #    Directorship and core code : Frank Neese         #
                  #        Max Planck Institute fuer Kohlenforschung    #
                  #                Kaiser Wilhelm Platz 1               #
                  #                 D-45470 Muelheim/Ruhr               #
                  #                      Germany                        #
                  #                                                     #
                  #                  All rights reserved                #
                  #                        -***-                        #
                  #######################################################


                         Program Version 5.0.4 -  RELEASE  -


 With contributions from (in alphabetic order):
   Daniel Aravena         : Magnetic Suceptibility
   Michael Atanasov       : Ab Initio Ligand Field Theory (pilot matlab implementation)
   Alexander A. Auer      : GIAO ZORA, VPT2 properties, NMR spectrum
   Ute Becker             : Parallelization
   Giovanni Bistoni       : ED, misc. LED, open-shell LED, HFLD
   Martin Brehm           : Molecular dynamics
   Dmytro Bykov           : SCF Hessian
   Vijay G. Chilkuri      : MRCI spin determinant printing, contributions to CSF-ICE
   Dipayan Datta          : RHF DLPNO-CCSD density
   Achintya Kumar Dutta   : EOM-CC, STEOM-CC
   Dmitry Ganyushin       : Spin-Orbit,Spin-Spin,Magnetic field MRCI
   Miquel Garcia          : C-PCM and meta-GGA Hessian, CC/C-PCM, Gaussian charge scheme
   Yang Guo               : DLPNO-NEVPT2, F12-NEVPT2, CIM, IAO-localization
   Andreas Hansen         : Spin unrestricted coupled pair/coupled cluster methods
   Benjamin Helmich-Paris : MC-RPA, TRAH-SCF, COSX integrals
   Lee Huntington         : MR-EOM, pCC
   Robert Izsak           : Overlap fitted RIJCOSX, COSX-SCS-MP3, EOM
   Marcus Kettner         : VPT2
   Christian Kollmar      : KDIIS, OOCD, Brueckner-CCSD(T), CCSD density, CASPT2, CASPT2-K
   Simone Kossmann        : Meta GGA functionals, TD-DFT gradient, OOMP2, MP2 Hessian
   Martin Krupicka        : Initial AUTO-CI
   Lucas Lang             : DCDCAS
   Marvin Lechner         : AUTO-CI (C++ implementation), FIC-MRCC
   Dagmar Lenk            : GEPOL surface, SMD
   Dimitrios Liakos       : Extrapolation schemes; Compound Job, initial MDCI parallelization
   Dimitrios Manganas     : Further ROCIS development; embedding schemes
   Dimitrios Pantazis     : SARC Basis sets
   Anastasios Papadopoulos: AUTO-CI, single reference methods and gradients
   Taras Petrenko         : DFT Hessian,TD-DFT gradient, ASA, ECA, R-Raman, ABS, FL, XAS/XES, NRVS
   Peter Pinski           : DLPNO-MP2, DLPNO-MP2 Gradient
   Christoph Reimann      : Effective Core Potentials
   Marius Retegan         : Local ZFS, SOC
   Christoph Riplinger    : Optimizer, TS searches, QM/MM, DLPNO-CCSD(T), (RO)-DLPNO pert. Triples
   Tobias Risthaus        : Range-separated hybrids, TD-DFT gradient, RPA, STAB
   Michael Roemelt        : Original ROCIS implementation
   Masaaki Saitow         : Open-shell DLPNO-CCSD energy and density
   Barbara Sandhoefer     : DKH picture change effects
   Avijit Sen             : IP-ROCIS
   Kantharuban Sivalingam : CASSCF convergence, NEVPT2, FIC-MRCI
   Bernardo de Souza      : ESD, SOC TD-DFT
   Georgi Stoychev        : AutoAux, RI-MP2 NMR, DLPNO-MP2 response
   Willem Van den Heuvel  : Paramagnetic NMR
   Boris Wezisla          : Elementary symmetry handling
   Frank Wennmohs         : Technical directorship


 We gratefully acknowledge several colleagues who have allowed us to
 interface, adapt or use parts of their codes:
   Stefan Grimme, W. Hujo, H. Kruse, P. Pracht,  : VdW corrections, initial TS optimization,
                  C. Bannwarth, S. Ehlert          DFT functionals, gCP, sTDA/sTD-DF
   Ed Valeev, F. Pavosevic, A. Kumar             : LibInt (2-el integral package), F12 methods
   Garnet Chan, S. Sharma, J. Yang, R. Olivares  : DMRG
   Ulf Ekstrom                                   : XCFun DFT Library
   Mihaly Kallay                                 : mrcc  (arbitrary order and MRCC methods)
   Jiri Pittner, Ondrej Demel                    : Mk-CCSD
   Frank Weinhold                                : gennbo (NPA and NBO analysis)
   Christopher J. Cramer and Donald G. Truhlar   : smd solvation model
   Lars Goerigk                                  : TD-DFT with DH, B97 family of functionals
   V. Asgeirsson, H. Jonsson                     : NEB implementation
   FAccTs GmbH                                   : IRC, NEB, NEB-TS, DLPNO-Multilevel, CI-OPT
                                                   MM, QMMM, 2- and 3-layer-ONIOM, Crystal-QMMM,
                                                   LR-CPCM, SF, NACMEs, symmetry and pop. for TD-DFT,
                                                   nearIR, NL-DFT gradient (VV10), updates on ESD,
                                                   ML-optimized integration grids
   S Lehtola, MJT Oliveira, MAL Marques          : LibXC Library
   Liviu Ungur et al                             : ANISO software


 Your calculation uses the libint2 library for the computation of 2-el integrals
 For citations please refer to: http://libint.valeyev.net

 Your ORCA version has been built with support for libXC version: 5.1.0
 For citations please refer to: https://tddft.org/programs/libxc/

 This ORCA versions uses:
   CBLAS   interface :  Fast vector & matrix operations
   LAPACKE interface :  Fast linear algebra routines
   SCALAPACK package :  Parallel linear algebra routines
   Shared memory     :  Shared parallel matrices
   BLAS/LAPACK       :  OpenBLAS 0.3.15  USE64BITINT DYNAMIC_ARCH NO_AFFINITY Prescott SINGLE_THREADED
        Core in use  :  Prescott
   Copyright (c) 2011-2014, The OpenBLAS Project




***************************************
The coordinates will be read from file: start.xyz
***************************************


Your calculation utilizes the atom-pairwise dispersion correction
with the Becke-Johnson damping scheme (D3BJ)
Cite in your paper:
S.Grimme, S.Ehrlich, L.Goerigk, J Comput Chem, (2011), 32, 1456–1465 
S.Grimme, J.Antony, S.Ehrlich and H.Krieg, J.Chem.Phys., 132, (2010), 154104 
   

Your calculation utilizes a Nudged-Elastic-Band implementation
 by V.Asgeirsson, C. Riplinger & H. Jonsson
Please cite in your paper:
 V. Asgeirsson et al., in prep. (2019)
   

================================================================================

----- Orbital basis set information -----
Your calculation utilizes the basis: def2-TZVP
   F. Weigend and R. Ahlrichs, Phys. Chem. Chem. Phys. 7, 3297 (2005).

----- AuxJ basis set information -----
Your calculation utilizes the auxiliary basis: def2/J
   F. Weigend, Phys. Chem. Chem. Phys. 8, 1057 (2006).

================================================================================
                                        WARNINGS
                       Please study these warnings very carefully!
================================================================================


WARNING: Geometry Optimization
  ===> : Switching off AutoStart
         For restart on a previous wavefunction, please use MOREAD

INFO   : the flag for use of the SHARK integral package has been found!

================================================================================
                                       INPUT FILE
================================================================================
NAME = neb.inp
|  1> ! NEB-TS b3lyp D3 def2-TZVP CPCM
|  2> 
|  3> %pal
|  4> nprocs 102
|  5> end
|  6> 
|  7> %cpcm
|  8> epsilon 78.4
|  9> end
| 10> 
| 11> %neb
| 12> NEB_End_XYZFile "end.xyz"
| 13> Nimages 6
| 14> end
| 15> 
| 16> 
| 17> *XYZfile -1 1 start.xyz
| 18> 
| 19>                          ****END OF INPUT****
================================================================================


--------------------------------------------------------------------------------
                        Nudged Elastic Band Calculation
--------------------------------------------------------------------------------

Number of images (incl. end points)     ....  8
Number of intermediate images           ....  6
Number of optimized images              ....  6
Optimization of end points before NEB   ....  NO
Use existing gbw files for MO input     ....  NO
Number of atoms                         ....  17
Number of (active) degrees of freedom   ....  51
Constrained atoms                       ....  None

-----------------------------------------
  REACTANT (ANGSTROEM)
-----------------------------------------
C      0.748166    -1.385883     1.593286 
H      1.397898    -1.472737     0.728386 
H      0.955642    -0.464048     2.135648 
H      0.807808    -2.245843     2.251680 
N     -0.657955    -1.273826     1.106966 
O     -1.544176    -1.758927     1.787811 
O     -0.855902    -0.672605     0.059231 
C      0.141477     2.801104    -3.921392 
O      0.297755     2.571272    -2.682651 
O      0.594115     2.100679    -4.854909 
C     -0.678394     4.046071    -4.267131 
H     -0.702614     4.227130    -5.340417 
H     -0.258683     4.917792    -3.760981 
H     -1.701243     3.920802    -3.902096 
H      0.977022     1.086763    -2.216037 
O      1.323930     0.215790    -1.881148 
H      0.645894    -0.105733    -1.271695 

-----------------------------------------
  PRODUCT (ANGSTROEM)
-----------------------------------------
C     -1.053273    -0.339149     0.087634 
H      0.720225    -1.285023     0.288517 
H     -1.105425    -0.024908     1.116601 
H     -1.579819    -1.198277    -0.293561 
N     -0.594595     0.543772    -0.800341 
O     -0.081525     1.652303    -0.413509 
O     -0.628657     0.288579    -2.054362 
C      3.344816     0.071585    -1.979901 
O      3.236402     0.128314    -0.654155 
O      2.845604    -0.813893    -2.648736 
C      4.131311     1.219669    -2.545862 
H      4.338124     1.049772    -3.599054 
H      5.061448     1.352193    -1.992552 
H      3.547595     2.136247    -2.432915 
H      2.642395    -0.607503    -0.319426 
O      1.615340    -1.671015     0.448630 
H      1.611290    -2.523382    -0.007200 



----------------------
NEB settings
----------------------
Method type                             ....  climbing image
Threshold for climbing image            ....  2.00e-02 Eh/Bohr 
Free endpoints                          ....  off 
Tangent type                            ....  improved 
Number of intermediate images           ....  6 
Number of images free to move           ....  6 
Spring type for image distribution      ....  distance between adjacent images 
Spring constant                         ....  energy weighted (0.0100 -to- 0.1000) Eh/Bohr^2 
Spring force perp. to the path          ....  none 
Generation of initial path              ....  image dependent pair potential 
Initial path via TS guess               ....  off 

Minimization of RMSD: Rotation          ....  always 
Minimization of RMSD: Translation type  ....  centroid 
Center fixed to origin                  ....  true 
Remove external force                   ....  true 

Reparametrization of the path           ....  off 
Convergence thresholds:
Convergence monitored for               ....  all images
Scaling factor                          ....  10.00

Convergence parameters for regular images:
               Max(|Fp|)                ....  2.00e-02 Eh/Bohr
               RMS(Fp)                  ....  1.00e-02 Eh/Bohr

Convergence parameters for climbing image:
               Max(|F|)                 ....  2.00e-03 Eh/Bohr
               RMS(F)                   ....  1.00e-03 Eh/Bohr
Optimization method:
Method                                  ....  L-BFGS
Max. iterations                         ....  500 
Step size                               ....  1.00 
Maximum allowed step size               ....  0.10 Bohr

LBFGS parameters: 
               Memory                   ....  20 
               Initial step size        ....  0.0010 
               Estimate curvature       ....  YES 
               Reset on maxmove         ....  YES 
               Reparam. on reset        ....  NO 
Generation of  the initial path:
Minimize RMSD between reactant and product configurations     .... done
       RMSD before minimization         ....  4.5221 Bohr
       RMSD after minimization          ....  1.6113 Bohr
Performing linear interpolation         ....  done
Interpolation using                     ....  IDPP (Image Dependent Pair Potential)
IDPP-Settings:
       Remove global transl. and rot.   ...   true
       Convergence tolerance            ....  0.0100 1/Ang.^3
       Max. numer of iterations         ....    7000
       Spring constant                  ....  1.0000 1/Ang.^4
       Time step                        ....  0.0100 fs
       Max. movement per iteration      ....  0.0500 Ang.
       Full print                       ....  false 
idpp initial path generation successfully converged in 55 iterations
Displacement along initial path:             11.9062 Bohr
Writing initial trajectory to file      ....  neb_initial_path_trj.xyz



----------------------
NEB OPTIMIZATION      
----------------------

Following output files will be written:
Energy profile during opt. written to    ....  neb.interp
Optimization log-file                    ....  neb.NEB.log
Current trajectory will be written to    ....  neb_MEP_trj.xyz
       and to allxyz file                ....  neb_MEP.allxyz
       and individual images to xyz file ....  neb_im{NIm}.xyz
Trajectory history will be written to    ....  neb_MEP_ALL_trj.xyz
Converged CI will be written to          ....  neb_NEB-CI_converged.xyz
Converged TS will be written to          ....  neb_NEB-TS_converged.xyz

Single point energy and gradient calculation of reactant and
product configurations (have to be performed only once)
Properties of fixed NEB end points:
               Reactant:
                         E               ....   -550.090017 Eh
                         RMS(F)          ....      0.000207 Eh/Bohr
                         MAX(|F|)        ....      0.000429 Eh/Bohr
               Product:
                         E               ....   -550.074438 Eh
                         RMS(F)          ....      0.000379 Eh/Bohr
                         MAX(|F|)        ....      0.001176 Eh/Bohr



Starting iterations:

Optim.  Iteration  HEI  E(HEI)-E(0)  max(|Fp|)   RMS(Fp)    dS
Switch-on CI threshold               0.020000 
   LBFGS     0      4    0.103796    0.100900   0.019518  11.9062       
   LBFGS     1      5    0.080755    0.067275   0.013729  11.9062       
   LBFGS     2      5    0.069758    0.059709   0.010611  11.9469       
   LBFGS     3      5    0.059308    0.052448   0.008043  12.0120       
   LBFGS     4      5    0.050366    0.033932   0.006069  12.1037       
   LBFGS     5      5    0.041492    0.032081   0.006523  12.1768       
   LBFGS     6      5    0.034458    0.028340   0.005271  12.3037       
   LBFGS     7      5    0.031842    0.033656   0.005860  12.4138       
   LBFGS     8      5    0.029803    0.033084   0.004990  12.4937       
   LBFGS     9      5    0.027747    0.029960   0.004964  12.6465       
   LBFGS    10      5    0.031410    0.058469   0.007977  12.6891       
   LBFGS    11      5    0.031803    0.029743   0.003940  12.7126       
   LBFGS    12      5    0.034050    0.038010   0.005051  12.7744       
   LBFGS    13      5    0.033770    0.023082   0.004102  12.7891       
   LBFGS    14      5    0.033405    0.016185   0.002830  12.7952       

Image  5 will be converted to a climbing image in the next iteration (max(|Fp|) < 0.0200) 

Optim.  Iteration  CI   E(CI)-E(0)   max(|Fp|)   RMS(Fp)    dS     max(|FCI|)   RMS(FCI)
Convergence thresholds               0.020000   0.010000            0.002000    0.001000 
   LBFGS    15      5    0.033101    0.007653   0.001532  12.7906    0.009591    0.002942       
   LBFGS    16      5    0.032668    0.023120   0.003517  12.7846    0.011918    0.003740       
   LBFGS    17      5    0.031986    0.021985   0.003773  12.8536    0.014068    0.003908       
   LBFGS    18      5    0.031638    0.019687   0.003400  12.9133    0.012930    0.003246       
   LBFGS    19      5    0.031358    0.010200   0.001927  12.9452    0.007225    0.002163       
   LBFGS    20      5    0.030791    0.014746   0.002163  13.0472    0.005204    0.001682       
   LBFGS    21      5    0.030618    0.017947   0.002931  13.0415    0.007207    0.002040       
   LBFGS    22      5    0.030408    0.018790   0.002757  13.0487    0.007130    0.001918       
   LBFGS    23      5    0.029927    0.018090   0.002298  13.0944    0.004036    0.001365       
   LBFGS    24      5    0.029788    0.014001   0.002138  13.1206    0.004959    0.001533       
   LBFGS    25      5    0.029647    0.014078   0.001613  13.1220    0.003323    0.001232       
   LBFGS    26      5    0.029238    0.018003   0.002123  13.1433    0.003291    0.001146       
   LBFGS    27      5    0.029129    0.011905   0.001798  13.1647    0.002873    0.001101       
   LBFGS    28      5    0.029028    0.012280   0.001500  13.1623    0.002646    0.000952       
   LBFGS    29      5    0.028739    0.014113   0.002082  13.1707    0.003349    0.001067       
   LBFGS    30      5    0.028445    0.014674   0.002478  13.1973    0.004605    0.001202       
   LBFGS    31      5    0.028374    0.010928   0.001522  13.2204    0.001994    0.000847       

                                .--------------------.
          ----------------------| CI-NEB convergence |-------------------------
          Item                value                   Tolerance       Converged
          ---------------------------------------------------------------------
          RMS(Fp)             0.0015224473            0.0100000000      YES
          MAX(|Fp|)           0.0109276536            0.0200000000      YES
          RMS(FCI)            0.0008465862            0.0010000000      YES
          MAX(|FCI|)          0.0019941532            0.0020000000      YES
          ---------------------------------------------------------------------

The elastic band and climbing image have converged successfully to a MEP in 31 iterations!


                    *********************H U R R A Y*********************
                    ***        THE NEB OPTIMIZATION HAS CONVERGED     ***
                    *****************************************************



---------------------------------------------------------------
                         PATH SUMMARY              
---------------------------------------------------------------
All forces in Eh/Bohr.

Image Dist.(Ang.)    E(Eh)   dE(kcal/mol)  max(|Fp|)  RMS(Fp)
  0     0.000    -550.09002      0.00       0.00044   0.00021
  1     1.041    -550.08974      0.17       0.00520   0.00109
  2     2.323    -550.08885      0.73       0.00843   0.00166
  3     4.280    -550.08796      1.29       0.00900   0.00222
  4     5.129    -550.07140     11.68       0.01093   0.00242
  5     5.418    -550.06164     17.80       0.00184   0.00084 <= CI
  6     5.784    -550.07213     11.22       0.00309   0.00121
  7     6.996    -550.07444      9.78       0.00116   0.00038

Straight line distance between images along the path:
        D( 0- 1) =   1.0406 Ang.
        D( 1- 2) =   1.2820 Ang.
        D( 2- 3) =   1.9570 Ang.
        D( 3- 4) =   0.8497 Ang.
        D( 4- 5) =   0.2888 Ang.
        D( 5- 6) =   0.3657 Ang.
        D( 6- 7) =   1.2121 Ang.

---------------------------------------------------------------
               INFORMATION ABOUT SADDLE POINT     
---------------------------------------------------------------

Climbing image                            ....  5 
Energy                                    ....  -550.06164315 Eh
Max. abs. force                           ....  1.9942e-03 Eh/Bohr

-----------------------------------------
  SADDLE POINT (ANGSTROEM)
-----------------------------------------
C      0.358330    -1.924609     2.240588 
H      1.142106    -1.306487     1.292383 
H      0.582749    -1.582623     3.246266 
H      0.441220    -2.999075     2.099251 
N     -0.922380    -1.478305     1.846803 
O     -1.443576    -0.504869     2.426641 
O     -1.462923    -1.995279     0.850643 
C     -0.031455     1.219760    -1.791679 
O      0.598304     1.352433    -0.638255 
O      0.043425     0.221488    -2.492184 
C     -0.877667     2.415836    -2.160791 
H     -1.267724     2.304307    -3.170409 
H     -0.304773     3.341226    -2.085076 
H     -1.714880     2.492828    -1.462501 
H      1.078811     0.476467    -0.319796 
O      1.757373    -0.682937     0.381786 
H      2.023061    -1.350161    -0.263670 

-----------------------------------------
  FORCES (Eh/Bohr)
-----------------------------------------
C     -0.001142    -0.000288     0.000334 
H     -0.000234     0.001994    -0.001373 
H      0.000545    -0.000098    -0.001216 
H      0.001239     0.001445    -0.001876 
N     -0.001241     0.001544     0.000033 
O      0.001282    -0.000883    -0.001210 
O     -0.000789    -0.000926     0.001620 
C     -0.000210    -0.000658    -0.000003 
O     -0.000590    -0.000467     0.000543 
O      0.000173    -0.000435     0.000679 
C      0.000358    -0.000349     0.000275 
H      0.000619    -0.000301     0.000442 
H      0.000729    -0.000738     0.000507 
H      0.000559    -0.000298     0.000274 
H     -0.000440    -0.000937     0.000884 
O     -0.000586     0.001003     0.000165 
H     -0.000448     0.000146     0.000157 

-----------------------------------------
  UNIT TANGENT
-----------------------------------------
C     -0.285837    -0.150106     0.243901 
H      0.378368     0.290206    -0.538475 
H     -0.058559    -0.026079     0.125606 
H      0.017276    -0.050253    -0.039975 
N      0.025523    -0.049828     0.076076 
O      0.022588     0.103862    -0.057355 
O      0.003835    -0.019297    -0.015632 
C     -0.026202     0.001324    -0.028201 
O     -0.006731     0.040500     0.021043 
O      0.010153    -0.007711     0.040181 
C     -0.006945     0.000610    -0.000040 
H     -0.008473    -0.003493     0.003790 
H     -0.002852    -0.003680    -0.000719 
H     -0.001857    -0.001938     0.004861 
H     -0.176690     0.280238    -0.105166 
O      0.063725    -0.266235     0.208601 
H      0.052677    -0.138120     0.061504 
 => Unit tangent is an approximation to the TS mode at the saddle point

Next a TS optimization is performed on the CI from the NEB run.

         *************************************************************
         *                       TS OPTIMIZATION                     *
         *************************************************************


Following output files will be written:
Converged TS will be written to          ....  neb_NEB-TS_converged.xyz
                                         ....  neb.xyz
Current trajectory will be written to    ....  neb_trj.xyz
Initial Hessian will be stored in        ....  neb.appr.hess
Geometry optimization settings:
Update method            Update   .... Bofill
Choice of coordinates    CoordSys .... Z-matrix Internals
Initial Hessian          InHess   .... Read

Convergence Tolerances:
Energy Change            TolE     ....  5.0000e-06 Eh
Max. Gradient            TolMAXG  ....  3.0000e-04 Eh/bohr
RMS Gradient             TolRMSG  ....  1.0000e-04 Eh/bohr
Max. Displacement        TolMAXD  ....  4.0000e-03 bohr
RMS Displacement         TolRMSD  ....  2.0000e-03 bohr
Strict Convergence                ....  False
------------------------------------------------------------------------------
                        ORCA OPTIMIZATION COORDINATE SETUP
------------------------------------------------------------------------------

The optimization will be done in new redundant internal coordinates
Making redundant internal coordinates   ...  (new redundants) done
Following TS mode number                ...     0
TS-active-atoms for coordinate setup... 0 1 14 15 
Evaluating the initial hessian          ... (Reading Exact Hessian)...  
InHessName: neb.appr.hess	The file <neb.appr.hess> is opened as a .hess file
done
done
Diagonalizing the Hessian               .... done
Dimension of the hessian                .... 64
Lowest eigenvalues of the non projected Hessian:
 -0.011453847 -0.000000000 -0.000000000 -0.000000000 -0.000000000
done
Evaluating the coordinates              ...  done
Calculating the B-matrix                .... done
Calculating the G-matrix                .... done
Diagonalizing the G-matrix              .... done
Small eigenvalue found = 6.143e-03
Small eigenvalue found = 1.341e-02
Small eigenvalue found = 2.592e-02
The first mode is                       ....   19
The number of degrees of freedom        ....   45

    -----------------------------------------------------------------
                    Redundant Internal Coordinates


    -----------------------------------------------------------------
         Definition                    Initial Value    d2E/dq (diagonal element)
    -----------------------------------------------------------------
      1. B(H   1,C   0)                  1.3768         0.090783   
      2. B(H   2,C   0)                  1.0857         0.371541   
      3. B(H   3,C   0)                  1.0869         0.367206   
      4. B(N   4,C   0)                  1.4123         0.266839   
      5. B(O   5,N   4)                  1.2472         0.583373   
      6. B(O   5,C   0)                  2.3016         0.117016   
      7. B(O   6,N   4)                  1.2457         0.589097   
      8. B(O   6,C   0)                  2.2921         0.116415   
      9. B(O   8,C   7)                  1.3208         0.721388   
     10. B(O   9,C   7)                  1.2218         1.037095   
     11. B(C  10,C   7)                  1.5109         0.400722   
     12. B(H  11,C  10)                  1.0881         0.362653   
     13. B(H  12,C  10)                  1.0910         0.358780   
     14. B(H  13,C  10)                  1.0929         0.356276   
     15. B(H  14,O   8)                  1.0486         0.382626   
     16. B(O  15,H   1)                  1.2635         0.115749   
     17. B(O  15,H  14)                  1.5155         0.092019   
     18. B(H  16,O  15)                  0.9656         0.510957   
     19. A(H   2,C   0,N   4)          110.2547         0.142491   
     20. A(H   2,C   0,H   3)          114.5879         0.078211   
     21. A(H   3,C   0,N   4)          110.2008         0.139219   
     22. A(H   1,C   0,N   4)          100.5060         0.210054   
     23. A(H   1,C   0,H   3)          108.1111         0.087378   
     24. A(H   1,C   0,H   2)          112.2637         0.096914   
     25. A(C   0,H   1,O  15)          174.3301         0.282611   
     26. A(C   0,N   4,O   5)          119.7357         0.168943   
     27. A(O   5,N   4,O   6)          120.9551         0.260861   
     28. A(C   0,N   4,O   6)          119.0343         0.168492   
     29. A(O   9,C   7,C  10)          122.7543         0.293006   
     30. A(O   8,C   7,C  10)          113.6313         0.285501   
     31. A(O   8,C   7,O   9)          123.6081         0.309524   
     32. A(C   7,O   8,H  14)          113.5639         0.361237   
     33. A(H  11,C  10,H  12)          109.8512         0.129262   
     34. A(C   7,C  10,H  12)          111.1250         0.231739   
     35. A(C   7,C  10,H  11)          110.2617         0.229874   
     36. A(H  12,C  10,H  13)          107.3470         0.122647   
     37. A(H  11,C  10,H  13)          108.9936         0.123434   
     38. A(C   7,C  10,H  13)          109.1903         0.230995   
     39. A(O   8,H  14,O  15)          169.9955         0.225647   
     40. A(H  14,O  15,H  16)          110.0212         0.157442   
     41. A(H   1,O  15,H  14)          119.5458         0.222512   
     42. A(H   1,O  15,H  16)          105.9448         0.137168   
     43. D(O  15,H   1,C   0,N   4)      5.0242         0.045697   
     44. D(O  15,H   1,C   0,H   2)   -112.1296         0.053424   
     45. D(O  15,H   1,C   0,H   3)    120.5018         0.053405   
     46. D(O   5,N   4,C   0,H   3)    148.2084         0.030039   
     47. D(O   5,N   4,C   0,H   2)     20.7375         0.038154   
     48. D(O   6,N   4,C   0,H   1)     76.1427         0.028222   
     49. D(O   5,N   4,C   0,H   1)    -97.8931         0.030318   
     50. D(O   6,N   4,C   0,H   2)   -165.2267         0.031915   
     51. D(O   6,N   4,C   0,H   3)    -37.7558         0.031060   
     52. D(H  14,O   8,C   7,C  10)    172.1324         0.022473   
     53. D(H  14,O   8,C   7,O   9)     -6.9733         0.022019   
     54. D(H  12,C  10,C   7,O   8)     50.7550         0.030105   
     55. D(H  11,C  10,C   7,O   9)     -8.0789         0.030048   
     56. D(H  12,C  10,C   7,O   9)   -130.1307         0.030104   
     57. D(H  11,C  10,C   7,O   8)    172.8068         0.030232   
     58. D(H  13,C  10,C   7,O   9)    111.6454         0.030118   
     59. D(H  13,C  10,C   7,O   8)    -67.4690         0.030199   
     60. D(O  15,H  14,O   8,C   7)   -157.5696         0.139804   
     61. D(H  16,O  15,H  14,O   8)   -178.0534         0.022262   
     62. D(H   1,O  15,H  14,O   8)     59.0837         0.029672   
     63. D(H  14,O  15,H   1,C   0)     14.2417         0.030021   
     64. D(H  16,O  15,H   1,C   0)   -110.5947         0.030210   
    -----------------------------------------------------------------

Number of atoms                         .... 17
Number of degrees of freedom            .... 64

         *************************************************************
         *                GEOMETRY OPTIMIZATION CYCLE   1            *
         *************************************************************


           ************************************************************
           *        Program running with 102 parallel MPI-processes   *
           *              working on a common directory               *
           ************************************************************
------------------------------------------------------------------------------
                           ORCA GTO INTEGRAL CALCULATION
                           -- RI-GTO INTEGRALS CHOSEN --
------------------------------------------------------------------------------
------------------------------------------------------------------------------
                   ___                                                        
                  /   \      - P O W E R E D   B Y -                         
                 /     \                                                     
                 |  |  |   _    _      __       _____    __    __             
                 |  |  |  | |  | |    /  \     |  _  \  |  |  /  |          
                  \  \/   | |  | |   /    \    | | | |  |  | /  /          
                 / \  \   | |__| |  /  /\  \   | |_| |  |  |/  /          
                |  |  |   |  __  | /  /__\  \  |    /   |      \           
                |  |  |   | |  | | |   __   |  |    \   |  |\   \          
                \     /   | |  | | |  |  |  |  | |\  \  |  | \   \       
                 \___/    |_|  |_| |__|  |__|  |_| \__\ |__|  \__/        
                                                                              
                      - O R C A' S   B I G   F R I E N D -                    
                                      &                                       
                       - I N T E G R A L  F E E D E R -                       
                                                                              
 v1 FN, 2020, v2 2021                                                         
------------------------------------------------------------------------------


Reading SHARK input file neb.SHARKINP.tmp ... ok
----------------------
SHARK INTEGRAL PACKAGE
----------------------

Number of atoms                             ...     17
Number of basis functions                   ...    327
Number of shells                            ...    131
Maximum angular momentum                    ...      3
Integral batch strategy                     ... SHARK/LIBINT Hybrid
RI-J (if used) integral strategy            ... SPLIT-RIJ (Revised 2003 algorithm where possible)
Printlevel                                  ...      1
Contraction scheme used                     ... SEGMENTED contraction
Coulomb Range Separation                    ... NOT USED
Exchange Range Separation                   ... NOT USED
Finite Nucleus Model                        ... NOT USED
Auxiliary Coulomb fitting basis             ... AVAILABLE
   # of basis functions in Aux-J            ...    529
   # of shells in Aux-J                     ...    175
   Maximum angular momentum in Aux-J        ...      4
Auxiliary J/K fitting basis                 ... NOT available
Auxiliary Correlation fitting basis         ... NOT available
Auxiliary 'external' fitting basis          ... NOT available
Integral threshold                          ...     2.500000e-11
Primitive cut-off                           ...     2.500000e-12
Primitive pair pre-selection threshold      ...     2.500000e-12

Calculating pre-screening integrals         ... done (  0.1 sec) Dimension = 131
Organizing shell pair data                  ... done (  0.3 sec)
Shell pair information
Total number of shell pairs                 ...      8646
Shell pairs after pre-screening             ...      6897
Total number of primitive shell pairs       ...     26328
Primitive shell pairs kept                  ...     14833
          la=0 lb=0:   1878 shell pairs
          la=1 lb=0:   1991 shell pairs
          la=1 lb=1:    550 shell pairs
          la=2 lb=0:    957 shell pairs
          la=2 lb=1:    527 shell pairs
          la=2 lb=2:    137 shell pairs
          la=3 lb=0:    458 shell pairs
          la=3 lb=1:    250 shell pairs
          la=3 lb=2:    118 shell pairs
          la=3 lb=3:     31 shell pairs

Calculating one electron integrals          ... done (  0.1 sec)
Calculating RI/J V-Matrix + Cholesky decomp.... done (  0.0 sec)
Calculating Nuclear repulsion               ... done (  0.0 sec) ENN=    456.330072299100 Eh

SHARK setup successfully completed in   0.8 seconds

Maximum memory used throughout the entire GTOINT-calculation: 20.1 MB


           ************************************************************
           *        Program running with 102 parallel MPI-processes   *
           *              working on a common directory               *
           ************************************************************
-------------------------------------------------------------------------------
                                 ORCA SCF
-------------------------------------------------------------------------------

------------
SCF SETTINGS
------------
Hamiltonian:
 Density Functional     Method          .... DFT(GTOs)
 Exchange Functional    Exchange        .... B88
   X-Alpha parameter    XAlpha          ....  0.666667
   Becke's b parameter  XBeta           ....  0.004200
 Correlation Functional Correlation     .... LYP
 LDA part of GGA corr.  LDAOpt          .... VWN-5
 Gradients option       PostSCFGGA      .... off
 Hybrid DFT is turned on
   Fraction HF Exchange ScalHFX         ....  0.200000
   Scaling of DF-GGA-X  ScalDFX         ....  0.720000
   Scaling of DF-GGA-C  ScalDFC         ....  0.810000
   Scaling of DF-LDA-C  ScalLDAC        ....  1.000000
   Perturbative correction              ....  0.000000
   Density functional embedding theory  .... OFF
   NL short-range parameter             ....  4.800000
 RI-approximation to the Coulomb term is turned on
   Number of AuxJ basis functions       .... 529
   RIJ-COSX (HFX calculated with COS-X)).... on


General Settings:
 Integral files         IntName         .... neb
 Hartree-Fock type      HFTyp           .... RHF
 Total Charge           Charge          ....   -1
 Multiplicity           Mult            ....    1
 Number of Electrons    NEL             ....   74
 Basis Dimension        Dim             ....  327
 Nuclear Repulsion      ENuc            ....    456.3300722991 Eh

Convergence Acceleration:
 DIIS                   CNVDIIS         .... on
   Start iteration      DIISMaxIt       ....    12
   Startup error        DIISStart       ....  0.200000
   # of expansion vecs  DIISMaxEq       ....     5
   Bias factor          DIISBfac        ....   1.050
   Max. coefficient     DIISMaxC        ....  10.000
 Trust-Rad. Augm. Hess. CNVTRAH         .... auto
   Auto Start mean grad. ratio tolernc. ....  1.125000
   Auto Start start iteration           ....     1
   Auto Start num. interpolation iter.  ....    10
   Max. Number of Micro iterations      ....    16
   Max. Number of Macro iterations      .... Maxiter - #DIIS iter
   Number of Davidson start vectors     ....     2
   Converg. threshold I  (grad. norm)   ....   1.000e-05
   Converg. threshold II (energy diff.) ....   1.000e-08
   Grad. Scal. Fac. for Micro threshold ....   0.100
   Minimum threshold for Micro iter.    ....   0.010
   NR start threshold (gradient norm)   ....   0.001
   Initial trust radius                 ....   0.400
   Minimum AH scaling param. (alpha)    ....   1.000
   Maximum AH scaling param. (alpha)    .... 1000.000
   Orbital update algorithm             .... Taylor
   White noise on init. David. guess    .... on
   Maximum white noise                  ....   0.010
   Quad. conv. algorithm                .... NR
 SOSCF                  CNVSOSCF        .... on
   Start iteration      SOSCFMaxIt      ....   150
   Startup grad/error   SOSCFStart      ....  0.003300
 Level Shifting         CNVShift        .... on
   Level shift para.    LevelShift      ....    0.2500
   Turn off err/grad.   ShiftErr        ....    0.0010
 Zerner damping         CNVZerner       .... off
 Static damping         CNVDamp         .... on
   Fraction old density DampFac         ....    0.7000
   Max. Damping (<1)    DampMax         ....    0.9800
   Min. Damping (>=0)   DampMin         ....    0.0000
   Turn off err/grad.   DampErr         ....    0.1000
 Fernandez-Rico         CNVRico         .... off

SCF Procedure:
 Maximum # iterations   MaxIter         ....   125
 SCF integral mode      SCFMode         .... Direct
   Integral package                     .... SHARK and LIBINT hybrid scheme
 Reset frequency        DirectResetFreq ....    20
 Integral Threshold     Thresh          ....  2.500e-11 Eh
 Primitive CutOff       TCut            ....  2.500e-12 Eh

Convergence Tolerance:
 Convergence Check Mode ConvCheckMode   .... Total+1el-Energy
 Convergence forced     ConvForced      .... 0
 Energy Change          TolE            ....  1.000e-08 Eh
 1-El. energy change                    ....  1.000e-05 Eh
 Orbital Gradient       TolG            ....  1.000e-05
 Orbital Rotation angle TolX            ....  1.000e-05
 DIIS Error             TolErr          ....  5.000e-07


Diagonalization of the overlap matrix:
Smallest eigenvalue                        ... 4.322e-04
Time for diagonalization                   ...    0.026 sec
Threshold for overlap eigenvalues          ... 1.000e-08
Number of eigenvalues below threshold      ... 0
Time for construction of square roots      ...    0.085 sec
Total time needed                          ...    0.114 sec

---------------------
INITIAL GUESS: MOREAD
---------------------
Guess MOs are being read from file: neb.gbw
Input Geometry matches current geometry (good)
Input basis set matches current basis set (good)
MOs were renormalized
MOs were reorthogonalized (Cholesky)
                      ------------------
                      INITIAL GUESS DONE (   0.2 sec)
                      ------------------
-------------------
DFT GRID GENERATION
-------------------

General Integration Accuracy     IntAcc      ... 4.388
Radial Grid Type                 RadialGrid  ... OptM3 with GC (2021)
Angular Grid (max. ang.)         AngularGrid ... 4 (Lebedev-302)
Angular grid pruning method      GridPruning ... 4 (adaptive)
Weight generation scheme         WeightScheme... Becke
Basis function cutoff            BFCut       ... 1.0000e-11
Integration weight cutoff        WCut        ... 1.0000e-14
Angular grids for H and He will be reduced by one unit
Partially contracted basis set               ... off
Rotationally invariant grid construction     ... off

Total number of grid points                  ...    80707
Total number of batches                      ...     1272
Average number of points per batch           ...       63
Average number of grid points per atom       ...     4747
Time for grid setup =    0.859 sec

--------------------
COSX GRID GENERATION
--------------------

GRIDX 1
-------
General Integration Accuracy     IntAcc      ... 3.816
Radial Grid Type                 RadialGrid  ... OptM3 with GC (2021)
Angular Grid (max. ang.)         AngularGrid ... 1 (Lebedev-50)
Angular grid pruning method      GridPruning ... 4 (adaptive)
Weight generation scheme         WeightScheme... Becke
Basis function cutoff            BFCut       ... 1.0000e-11
Integration weight cutoff        WCut        ... 1.0000e-14
Angular grids for H and He will be reduced by one unit
Partially contracted basis set               ... on
Rotationally invariant grid construction     ... off

Total number of grid points                  ...    10295
Total number of batches                      ...      172
Average number of points per batch           ...       59
Average number of grid points per atom       ...      606
UseSFitting                                  ... on

GRIDX 2
-------
General Integration Accuracy     IntAcc      ... 4.020
Radial Grid Type                 RadialGrid  ... OptM3 with GC (2021)
Angular Grid (max. ang.)         AngularGrid ... 2 (Lebedev-110)
Angular grid pruning method      GridPruning ... 4 (adaptive)
Weight generation scheme         WeightScheme... Becke
Basis function cutoff            BFCut       ... 1.0000e-11
Integration weight cutoff        WCut        ... 1.0000e-14
Angular grids for H and He will be reduced by one unit
Partially contracted basis set               ... on
Rotationally invariant grid construction     ... off

Total number of grid points                  ...    22629
Total number of batches                      ...      362
Average number of points per batch           ...       62
Average number of grid points per atom       ...     1331
UseSFitting                                  ... on

GRIDX 3
-------
General Integration Accuracy     IntAcc      ... 4.338
Radial Grid Type                 RadialGrid  ... OptM3 with GC (2021)
Angular Grid (max. ang.)         AngularGrid ... 3 (Lebedev-194)
Angular grid pruning method      GridPruning ... 4 (adaptive)
Weight generation scheme         WeightScheme... Becke
Basis function cutoff            BFCut       ... 1.0000e-11
Integration weight cutoff        WCut        ... 1.0000e-14
Angular grids for H and He will be reduced by one unit
Partially contracted basis set               ... on
Rotationally invariant grid construction     ... off

Total number of grid points                  ...    49799
Total number of batches                      ...      786
Average number of points per batch           ...       63
Average number of grid points per atom       ...     2929
UseSFitting                                  ... on

Time for X-Grid setup             =    1.069 sec


--------------------
CPCM SOLVATION MODEL
--------------------
CPCM parameters:
  Epsilon                                         ...      78.4000
  Refrac                                          ...       1.3300
  Rsolv                                           ...       1.3000
  Surface type                                    ... GAUSSIAN VDW
  Epsilon function type                           ...         CPCM
Radii:
 Radius for C  used is    3.8550 Bohr (=   2.0400 Ang.)
 Radius for H  used is    2.4944 Bohr (=   1.3200 Ang.)
 Radius for N  used is    3.5149 Bohr (=   1.8600 Ang.)
 Radius for O  used is    3.4469 Bohr (=   1.8240 Ang.)
Calculating surface                               ...        done! (  0.0s)
GEPOL surface points                              ...         1058
GEPOL Volume                                      ...    1135.3016
GEPOL Surface-area                                ...     724.4921
Calculating surface distance matrix               ...        done! (  0.2s)
Performing Cholesky decomposition & store         ...        done! (  0.4s)
Overall time for CPCM initialization              ...                 0.6s
--------------
SCF ITERATIONS
--------------
ITER       Energy         Delta-E        Max-DP      RMS-DP      [F,P]     Damp
               ***  Starting incremental Fock matrix formation  ***
                      *** Initiating the SOSCF procedure ***
                      *** Re-Reading the Fockian *** 
                      *** Removing any level shift *** 
ITER      Energy       Delta-E        Grad      Rot      Max-DP    RMS-DP
  0   -550.04365775 -550.0436577451  0.000002  0.000002  0.000004  0.000000
               *** Restarting incremental Fock matrix formation ***
                  ***Gradient check signals convergence***
              ***Rediagonalizing the Fockian in SOSCF/NRSCF***

               *****************************************************
               *                     SUCCESS                       *
               *           SCF CONVERGED AFTER   1 CYCLES          *
               *****************************************************

Old exchange energy                            =    -13.236143329 Eh
New exchange energy                            =    -13.236149057 Eh
Exchange energy change after final integration =     -0.000005728 Eh
Total energy after final integration           =   -550.043663473 Eh
Final COS-X integration done in                =     0.649 sec

----------------
TOTAL SCF ENERGY
----------------

Total Energy       :         -550.04366347 Eh          -14967.44901 eV

Components:
Nuclear Repulsion  :          456.33007230 Eh           12417.37255 eV
Electronic Energy  :        -1006.37373577 Eh          -27384.82157 eV
One Electron Energy:        -1672.31395327 Eh          -45505.97615 eV
Two Electron Energy:          665.94021750 Eh           18121.15458 eV
Max COSX asymmetry :            0.00000146 Eh               0.00004 eV
CPCM Dielectric    :           -0.09882751 Eh              -2.68923 eV

Virial components:
Potential Energy   :        -1097.88316421 Eh          -29874.91971 eV
Kinetic Energy     :          547.83950074 Eh           14907.47070 eV
Virial Ratio       :            2.00402337


DFT components:
N(Alpha)           :       37.000062743931 electrons
N(Beta)            :       37.000062743931 electrons
N(Total)           :       74.000125487861 electrons
E(X)               :      -52.795381045104 Eh       
E(C)               :       -3.034367112140 Eh       
E(XC)              :      -55.829748157244 Eh       
DFET-embed. en.    :        0.000000000000 Eh       
CPCM Solvation Model Properties:
Surface-charge          :            0.97566821
Charge-correction       :           -0.00334543 Eh              -0.09103 eV
Free-energy (cav+disp)  :  This term is not implemented in the current solvation scheme

---------------
SCF CONVERGENCE
---------------

  Last Energy change         ...    4.8544e-11  Tolerance :   1.0000e-08
  Last MAX-Density change    ...    1.1978e-15  Tolerance :   1.0000e-07
  Last RMS-Density change    ...    1.7485e-17  Tolerance :   5.0000e-09
  Last Orbital Gradient      ...    1.9283e-06  Tolerance :   1.0000e-05
  Last Orbital Rotation      ...    5.9519e-06  Tolerance :   1.0000e-05

             **** THE GBW FILE WAS UPDATED (neb.gbw) ****
             **** DENSITY neb.scfp WAS UPDATED ****
             **** ENERGY FILE WAS UPDATED (neb.en.tmp) ****
             **** THE GBW FILE WAS UPDATED (neb.gbw) ****
             **** DENSITY neb.scfp WAS UPDATED ****
----------------
ORBITAL ENERGIES
----------------

  NO   OCC          E(Eh)            E(eV) 
   0   2.0000     -19.134062      -520.6643 
   1   2.0000     -19.125512      -520.4316 
   2   2.0000     -19.125323      -520.4265 
   3   2.0000     -19.098824      -519.7054 
   4   2.0000     -19.075563      -519.0725 
   5   2.0000     -14.517435      -395.0395 
   6   2.0000     -10.291353      -280.0419 
   7   2.0000     -10.167100      -276.6609 
   8   2.0000     -10.164530      -276.5909 
   9   2.0000      -1.189224       -32.3604 
  10   2.0000      -1.079665       -29.3792 
  11   2.0000      -1.012029       -27.5387 
  12   2.0000      -0.992604       -27.0101 
  13   2.0000      -0.933887       -25.4123 
  14   2.0000      -0.786994       -21.4152 
  15   2.0000      -0.737067       -20.0566 
  16   2.0000      -0.588969       -16.0267 
  17   2.0000      -0.580745       -15.8029 
  18   2.0000      -0.516126       -14.0445 
  19   2.0000      -0.499705       -13.5977 
  20   2.0000      -0.498890       -13.5755 
  21   2.0000      -0.482792       -13.1374 
  22   2.0000      -0.461928       -12.5697 
  23   2.0000      -0.454851       -12.3771 
  24   2.0000      -0.442128       -12.0309 
  25   2.0000      -0.404338       -11.0026 
  26   2.0000      -0.399865       -10.8809 
  27   2.0000      -0.387246       -10.5375 
  28   2.0000      -0.376955       -10.2575 
  29   2.0000      -0.345081        -9.3901 
  30   2.0000      -0.306627        -8.3437 
  31   2.0000      -0.297543        -8.0966 
  32   2.0000      -0.294837        -8.0229 
  33   2.0000      -0.277842        -7.5605 
  34   2.0000      -0.268742        -7.3128 
  35   2.0000      -0.266958        -7.2643 
  36   2.0000      -0.226672        -6.1681 
  37   0.0000      -0.046244        -1.2584 
  38   0.0000       0.017349         0.4721 
  39   0.0000       0.049157         1.3376 
  40   0.0000       0.067847         1.8462 
  41   0.0000       0.098183         2.6717 
  42   0.0000       0.120154         3.2696 
  43   0.0000       0.124661         3.3922 
  44   0.0000       0.127241         3.4624 
  45   0.0000       0.133923         3.6442 
  46   0.0000       0.144570         3.9340 
  47   0.0000       0.158935         4.3248 
  48   0.0000       0.173090         4.7100 
  49   0.0000       0.183296         4.9877 
  50   0.0000       0.202892         5.5210 
  51   0.0000       0.219395         5.9700 
  52   0.0000       0.225339         6.1318 
  53   0.0000       0.231405         6.2969 
  54   0.0000       0.242327         6.5940 
  55   0.0000       0.258036         7.0215 
  56   0.0000       0.274028         7.4567 
  57   0.0000       0.291646         7.9361 
  58   0.0000       0.306693         8.3455 
  59   0.0000       0.329377         8.9628 
  60   0.0000       0.341752         9.2995 
  61   0.0000       0.374968        10.2034 
  62   0.0000       0.377597        10.2749 
  63   0.0000       0.389425        10.5968 
  64   0.0000       0.401128        10.9152 
  65   0.0000       0.407248        11.0818 
  66   0.0000       0.412344        11.2205 
  67   0.0000       0.419721        11.4212 
  68   0.0000       0.427929        11.6445 
  69   0.0000       0.435534        11.8515 
  70   0.0000       0.448542        12.2055 
  71   0.0000       0.454466        12.3667 
  72   0.0000       0.459999        12.5172 
  73   0.0000       0.464021        12.6267 
  74   0.0000       0.472474        12.8567 
  75   0.0000       0.479112        13.0373 
  76   0.0000       0.494860        13.4658 
  77   0.0000       0.508340        13.8326 
  78   0.0000       0.521513        14.1911 
  79   0.0000       0.530131        14.4256 
  80   0.0000       0.535658        14.5760 
  81   0.0000       0.546707        14.8767 
  82   0.0000       0.555977        15.1289 
  83   0.0000       0.574003        15.6194 
  84   0.0000       0.587438        15.9850 
  85   0.0000       0.599211        16.3054 
  86   0.0000       0.612211        16.6591 
  87   0.0000       0.621987        16.9251 
  88   0.0000       0.648066        17.6348 
  89   0.0000       0.657947        17.9036 
  90   0.0000       0.671589        18.2749 
  91   0.0000       0.706761        19.2319 
  92   0.0000       0.766359        20.8537 
  93   0.0000       0.782680        21.2978 
  94   0.0000       0.800786        21.7905 
  95   0.0000       0.820125        22.3167 
  96   0.0000       0.837201        22.7814 
  97   0.0000       0.862887        23.4804 
  98   0.0000       0.873104        23.7584 
  99   0.0000       0.879921        23.9439 
 100   0.0000       0.897359        24.4184 
 101   0.0000       0.906271        24.6609 
 102   0.0000       0.943869        25.6840 
 103   0.0000       0.962222        26.1834 
 104   0.0000       0.982158        26.7259 
 105   0.0000       1.017378        27.6843 
 106   0.0000       1.021896        27.8072 
 107   0.0000       1.045824        28.4583 
 108   0.0000       1.075093        29.2548 
 109   0.0000       1.095812        29.8186 
 110   0.0000       1.178862        32.0785 
 111   0.0000       1.194138        32.4942 
 112   0.0000       1.229242        33.4494 
 113   0.0000       1.244145        33.8549 
 114   0.0000       1.297818        35.3154 
 115   0.0000       1.337877        36.4055 
 116   0.0000       1.361020        37.0352 
 117   0.0000       1.370503        37.2933 
 118   0.0000       1.397216        38.0202 
 119   0.0000       1.415374        38.5143 
 120   0.0000       1.428251        38.8647 
 121   0.0000       1.439873        39.1809 
 122   0.0000       1.497985        40.7622 
 123   0.0000       1.498474        40.7755 
 124   0.0000       1.508850        41.0579 
 125   0.0000       1.512480        41.1567 
 126   0.0000       1.524606        41.4866 
 127   0.0000       1.537012        41.8242 
 128   0.0000       1.539735        41.8983 
 129   0.0000       1.570868        42.7455 
 130   0.0000       1.585996        43.1571 
 131   0.0000       1.601584        43.5813 
 132   0.0000       1.607124        43.7321 
 133   0.0000       1.618089        44.0304 
 134   0.0000       1.638078        44.5744 
 135   0.0000       1.645862        44.7862 
 136   0.0000       1.663902        45.2771 
 137   0.0000       1.674215        45.5577 
 138   0.0000       1.688393        45.9435 
 139   0.0000       1.766083        48.0576 
 140   0.0000       1.779079        48.4112 
 141   0.0000       1.794748        48.8376 
 142   0.0000       1.817694        49.4620 
 143   0.0000       1.844868        50.2014 
 144   0.0000       1.901773        51.7499 
 145   0.0000       1.911030        52.0018 
 146   0.0000       1.937012        52.7088 
 147   0.0000       1.949927        53.0602 
 148   0.0000       1.962838        53.4115 
 149   0.0000       1.973751        53.7085 
 150   0.0000       1.980871        53.9022 
 151   0.0000       2.002947        54.5030 
 152   0.0000       2.044781        55.6413 
 153   0.0000       2.053971        55.8914 
 154   0.0000       2.071390        56.3654 
 155   0.0000       2.088417        56.8287 
 156   0.0000       2.106415        57.3185 
 157   0.0000       2.127807        57.9006 
 158   0.0000       2.148163        58.4545 
 159   0.0000       2.155898        58.6650 
 160   0.0000       2.159597        58.7656 
 161   0.0000       2.188747        59.5588 
 162   0.0000       2.202827        59.9420 
 163   0.0000       2.215287        60.2810 
 164   0.0000       2.237066        60.8737 
 165   0.0000       2.272075        61.8263 
 166   0.0000       2.300621        62.6031 
 167   0.0000       2.319121        63.1065 
 168   0.0000       2.337545        63.6078 
 169   0.0000       2.358188        64.1695 
 170   0.0000       2.370226        64.4971 
 171   0.0000       2.389761        65.0287 
 172   0.0000       2.401975        65.3611 
 173   0.0000       2.419266        65.8316 
 174   0.0000       2.444286        66.5124 
 175   0.0000       2.469554        67.2000 
 176   0.0000       2.498707        67.9933 
 177   0.0000       2.514147        68.4134 
 178   0.0000       2.531227        68.8782 
 179   0.0000       2.571752        69.9809 
 180   0.0000       2.597185        70.6730 
 181   0.0000       2.605028        70.8864 
 182   0.0000       2.621211        71.3268 
 183   0.0000       2.637762        71.7772 
 184   0.0000       2.689563        73.1867 
 185   0.0000       2.695702        73.3538 
 186   0.0000       2.709556        73.7308 
 187   0.0000       2.731018        74.3148 
 188   0.0000       2.735731        74.4430 
 189   0.0000       2.750847        74.8543 
 190   0.0000       2.763331        75.1940 
 191   0.0000       2.790772        75.9408 
 192   0.0000       2.813268        76.5529 
 193   0.0000       2.868650        78.0599 
 194   0.0000       2.902385        78.9779 
 195   0.0000       2.917365        79.3855 
 196   0.0000       2.921239        79.4909 
 197   0.0000       2.936006        79.8928 
 198   0.0000       2.948471        80.2320 
 199   0.0000       2.986467        81.2659 
 200   0.0000       2.998115        81.5828 
 201   0.0000       3.020353        82.1880 
 202   0.0000       3.045963        82.8849 
 203   0.0000       3.081427        83.8499 
 204   0.0000       3.098925        84.3260 
 205   0.0000       3.110456        84.6398 
 206   0.0000       3.148105        85.6643 
 207   0.0000       3.159882        85.9848 
 208   0.0000       3.187447        86.7348 
 209   0.0000       3.212193        87.4082 
 210   0.0000       3.238279        88.1180 
 211   0.0000       3.250271        88.4444 
 212   0.0000       3.267716        88.9191 
 213   0.0000       3.279494        89.2396 
 214   0.0000       3.291187        89.5577 
 215   0.0000       3.319655        90.3324 
 216   0.0000       3.325281        90.4855 
 217   0.0000       3.362456        91.4971 
 218   0.0000       3.407124        92.7126 
 219   0.0000       3.434892        93.4682 
 220   0.0000       3.474104        94.5352 
 221   0.0000       3.503373        95.3316 
 222   0.0000       3.507892        95.4546 
 223   0.0000       3.548423        96.5575 
 224   0.0000       3.604425        98.0814 
 225   0.0000       3.649012        99.2947 
 226   0.0000       3.686288       100.3090 
 227   0.0000       3.748560       102.0035 
 228   0.0000       3.764222       102.4297 
 229   0.0000       3.804390       103.5227 
 230   0.0000       3.814770       103.8052 
 231   0.0000       3.830629       104.2367 
 232   0.0000       3.887942       105.7963 
 233   0.0000       3.925731       106.8246 
 234   0.0000       3.954884       107.6179 
 235   0.0000       4.019145       109.3665 
 236   0.0000       4.044012       110.0431 
 237   0.0000       4.107343       111.7665 
 238   0.0000       4.124125       112.2231 
 239   0.0000       4.136547       112.5612 
 240   0.0000       4.305593       117.1612 
 241   0.0000       4.327020       117.7442 
 242   0.0000       4.373966       119.0217 
 243   0.0000       4.393071       119.5415 
 244   0.0000       4.409496       119.9885 
 245   0.0000       4.477668       121.8435 
 246   0.0000       4.527908       123.2106 
 247   0.0000       4.598286       125.1257 
 248   0.0000       4.627024       125.9077 
 249   0.0000       4.678745       127.3151 
 250   0.0000       4.722944       128.5178 
 251   0.0000       4.728318       128.6641 
 252   0.0000       4.744626       129.1078 
 253   0.0000       4.897798       133.2759 
 254   0.0000       4.939679       134.4155 
 255   0.0000       5.129459       139.5797 
 256   0.0000       5.131784       139.6429 
 257   0.0000       5.151144       140.1697 
 258   0.0000       5.153657       140.2381 
 259   0.0000       5.165362       140.5567 
 260   0.0000       5.174861       140.8151 
 261   0.0000       5.184806       141.0857 
 262   0.0000       5.185795       141.1127 
 263   0.0000       5.212706       141.8450 
 264   0.0000       5.243962       142.6955 
 265   0.0000       5.285584       143.8281 
 266   0.0000       5.300468       144.2331 
 267   0.0000       5.343452       145.4027 
 268   0.0000       5.376140       146.2922 
 269   0.0000       5.400630       146.9586 
 270   0.0000       5.419197       147.4638 
 271   0.0000       5.444600       148.1551 
 272   0.0000       5.476850       149.0327 
 273   0.0000       5.520363       150.2167 
 274   0.0000       5.584323       151.9572 
 275   0.0000       5.616177       152.8239 
 276   0.0000       5.633303       153.2900 
 277   0.0000       5.694985       154.9684 
 278   0.0000       5.763914       156.8441 
 279   0.0000       5.862555       159.5282 
 280   0.0000       5.923962       161.1992 
 281   0.0000       5.931838       161.4135 
 282   0.0000       5.944425       161.7560 
 283   0.0000       6.139774       167.0718 
 284   0.0000       6.164853       167.7542 
 285   0.0000       6.254985       170.2068 
 286   0.0000       6.271484       170.6558 
 287   0.0000       6.278468       170.8458 
 288   0.0000       6.312840       171.7811 
 289   0.0000       6.316482       171.8802 
 290   0.0000       6.343982       172.6285 
 291   0.0000       6.353698       172.8929 
 292   0.0000       6.367649       173.2725 
 293   0.0000       6.373488       173.4314 
 294   0.0000       6.413993       174.5336 
 295   0.0000       6.440489       175.2546 
 296   0.0000       6.459361       175.7681 
 297   0.0000       6.484096       176.4412 
 298   0.0000       6.610723       179.8869 
 299   0.0000       6.657962       181.1724 
 300   0.0000       6.736188       183.3010 
 301   0.0000       6.754914       183.8105 
 302   0.0000       6.818198       185.5326 
 303   0.0000       6.847053       186.3178 
 304   0.0000       6.858152       186.6198 
 305   0.0000       6.859772       186.6639 
 306   0.0000       6.896826       187.6722 
 307   0.0000       6.939537       188.8344 
 308   0.0000       6.954786       189.2493 
 309   0.0000       7.077551       192.5899 
 310   0.0000       7.091293       192.9639 
 311   0.0000       7.094723       193.0572 
 312   0.0000       7.144499       194.4117 
 313   0.0000       7.200471       195.9348 
 314   0.0000       7.230838       196.7611 
 315   0.0000       7.351029       200.0317 
 316   0.0000       7.373597       200.6458 
 317   0.0000       7.455127       202.8643 
 318   0.0000      22.302414       606.8795 
 319   0.0000      22.394138       609.3755 
 320   0.0000      23.266259       633.1071 
 321   0.0000      32.230586       877.0388 
 322   0.0000      43.573825      1185.7041 
 323   0.0000      43.780173      1191.3191 
 324   0.0000      43.838733      1192.9126 
 325   0.0000      43.885444      1194.1836 
 326   0.0000      43.961363      1196.2495 
-------
TIMINGS
-------

Total SCF time: 0 days 0 hours 0 min 8 sec 

Total time                  ....       8.089 sec
Sum of individual times     ....       6.316 sec  ( 78.1%)

Fock matrix formation       ....       3.801 sec  ( 47.0%)
  Split-RI-J                ....       0.981 sec  ( 25.8% of F)
  Chain of spheres X        ....       1.476 sec  ( 38.8% of F)
  XC integration            ....       0.421 sec  ( 11.1% of F)
    Basis function eval.    ....       0.023 sec  (  5.5% of XC)
    Density eval.           ....       0.043 sec  ( 10.1% of XC)
    XC-Functional eval.     ....       0.002 sec  (  0.5% of XC)
    XC-Potential eval.      ....       0.026 sec  (  6.1% of XC)
Diagonalization             ....       0.111 sec  (  1.4%)
Density matrix formation    ....       0.063 sec  (  0.8%)
Population analysis         ....       0.000 sec  (  0.0%)
Initial guess               ....       0.203 sec  (  2.5%)
Orbital Transformation      ....       0.000 sec  (  0.0%)
Orbital Orthonormalization  ....       0.154 sec  (  1.9%)
DIIS solution               ....       0.069 sec  (  0.8%)
SOSCF solution              ....       0.141 sec  (  1.7%)
Grid generation             ....       1.928 sec  ( 23.8%)

Maximum memory used throughout the entire SCF-calculation: 78.3 MB


-------------------------------------------------------------------------------
                          DFT DISPERSION CORRECTION                            
                                                                               
                              DFTD3 V3.1  Rev 1                                
                          USING Becke-Johnson damping                          
-------------------------------------------------------------------------------
The B3LYP functional is recognized
Active option DFTDOPT                   ...         4   

molecular C6(AA) [au] = 2373.280277 


            DFT-D V3
 parameters
 s6 scaling factor         :     1.0000 
 a1 scaling factor         :     0.3981 
 s8 scaling factor         :     1.9889 
 a2 scaling factor         :     4.4211 
 ad hoc parameters k1-k3   :    16.0000     1.3333    -4.0000 

 Edisp/kcal,au: -11.282411460209  -0.017979665205 
 E6   /kcal   :  -5.706698870 
 E8   /kcal   :  -5.575712590 
 % E8         :  49.419511156 

-------------------------   ----------------
Dispersion correction           -0.017979665
-------------------------   ----------------


-------------------------   --------------------
FINAL SINGLE POINT ENERGY      -550.061643138082
-------------------------   --------------------



           ************************************************************
           *        Program running with 102 parallel MPI-processes   *
           *              working on a common directory               *
           ************************************************************
------------------------------------------------------------------------------
                         ORCA SCF GRADIENT CALCULATION
------------------------------------------------------------------------------

 ... reading COSX grid (gridx3)
Gradient of the Kohn-Sham DFT energy:
Kohn-Sham wavefunction type      ... RKS
Hartree-Fock exchange scaling    ...    0.200
Number of operators              ...    1
Number of atoms                  ...   17
Basis set dimensions             ...  327
Integral neglect threshold       ... 2.5e-11
Integral primitive cutoff        ... 2.5e-12
SHARK Integral package           ... ON

Nuc. rep. gradient       (SHARK) ... done (  0.0 sec)
HCore & Overlap gradient (SHARK) ... done (  0.1 sec)
RI-J gradient            (SHARK) ... done (  0.3 sec)
COSX-gradient                    ... done (  0.8 sec)
Exchange-correlation gradient    ... done
Dispersion correction            ... done

------------------
CARTESIAN GRADIENT
------------------

   1   C   :    0.001141298    0.000288089   -0.000334097
   2   H   :    0.000233343   -0.001994301    0.001372897
   3   H   :   -0.000545126    0.000098333    0.001215801
   4   H   :   -0.001239175   -0.001444516    0.001875684
   5   N   :    0.001241953   -0.001544250   -0.000033025
   6   O   :   -0.001282669    0.000883069    0.001209906
   7   O   :    0.000788506    0.000925800   -0.001620182
   8   C   :    0.000211266    0.000660253    0.000006369
   9   O   :    0.000590232    0.000465598   -0.000543889
  10   O   :   -0.000172578    0.000434249   -0.000679719
  11   C   :   -0.000358400    0.000348408   -0.000275782
  12   H   :   -0.000618585    0.000301035   -0.000442398
  13   H   :   -0.000728913    0.000738148   -0.000506652
  14   H   :   -0.000558668    0.000298442   -0.000273672
  15   H   :    0.000439339    0.000938505   -0.000884755
  16   O   :    0.000585799   -0.001002515   -0.000165097
  17   H   :    0.000448481   -0.000146132   -0.000157254

Difference to translation invariance:
           :    0.0001761036    0.0002482172   -0.0002358629

Difference to rotation invariance:
           :    0.0007390941   -0.0001801793    0.0008128705

Norm of the cartesian gradient     ...    0.0060469119
RMS gradient                       ...    0.0008467370
MAX gradient                       ...    0.0019943007

-------
TIMINGS
-------

Total SCF gradient time            ...        4.058 sec

One electron gradient       ....       0.145 sec  (  3.6%)
RI-J Coulomb gradient       ....       0.329 sec  (  8.1%)
COSX gradient               ....       0.773 sec  ( 19.1%)
XC gradient                 ....       0.706 sec  ( 17.4%)
CPCM gradient               ....       0.180 sec  (  4.4%)
   A-Matrix (El+Nuc)        ....       0.094 sec  (  2.3%)
   Potential                ....       0.086 sec  (  2.1%)

Maximum memory used throughout the entire SCFGRAD-calculation: 51.1 MB
------------------------------------------------------------------------------
                         ORCA GEOMETRY RELAXATION STEP
------------------------------------------------------------------------------

Reading the OPT-File                    .... done
Getting information on internals        .... done
Copying old internal coords+grads       .... done
Making the new internal coordinates     .... (new redundants).... done
Validating the new internal coordinates .... (new redundants).... done
Calculating the B-matrix                .... done
Calculating the G,G- and P matrices     .... done
Transforming gradient to internals      .... done
Projecting the internal gradient        .... done
Number of atoms                         ....  17
Number of internal coordinates          ....  64
Current Energy                          ....  -550.061643138 Eh
Current gradient norm                   ....     0.006046912 Eh/bohr
Maximum allowed component of the step   ....  0.300
Current trust radius                    ....  0.100
Evaluating the initial hessian          ....  (read) 
(Reading Exact Hessian)...  
InHessName: neb.appr.hess	The file <neb.appr.hess> is opened as a .hess file
done
done
Diagonalizing the Hessian               .... done
Dimension of the hessian                .... 64
Lowest eigenvalues of the non projected Hessian:
 -0.011453847 -0.000000000 -0.000000000 -0.000000000 -0.000000000
done
Projecting the Hessian                  .... done
Diagonalizing the Hessian               .... done
Dimension of the hessian                ....  64
Lowest eigenvalues of the Hessian:
 -0.011453847  0.004971265  0.011756239  0.011924683  0.019005361
Hessian has   1 negative eigenvalues
Taking P-RFO step
Searching for lambda that maximizes along the lowest mode
TS mode is mode number   0 with eigenvalue  -0.01145385 and components:
   1.    0.62514762
   2.   -0.01114330
   3.   -0.02060249
   4.   -0.11498176
   5.    0.03515550
   6.   -0.05910748
   7.    0.04100184
   8.   -0.04299968
   9.    0.03229910
  10.   -0.01720537
  11.   -0.01028473
  12.   -0.00146467
  13.   -0.00097613
  14.   -0.00043286
  15.   -0.17851130
  16.   -0.53968704
  17.    0.37362616
  18.    0.00498110
  19.    0.06760041
  20.    0.08094309
  21.    0.07860097
  22.   -0.05982248
  23.   -0.12347848
  24.   -0.06286334
  25.    0.01970290
  26.    0.01003464
  27.   -0.02987410
  28.    0.01863230
  29.    0.02378653
  30.   -0.01279318
  31.   -0.01110905
  32.   -0.02275802
  33.    0.00190816
  34.    0.00246196
  35.   -0.00619922
  36.    0.00099648
  37.    0.00101831
  38.    0.00000189
  39.   -0.01013469
  40.   -0.04810977
  41.   -0.04624019
  42.    0.06396993
  43.    0.05187220
  44.    0.03305796
  45.    0.06774105
  46.    0.15246340
  47.   -0.06204226
  48.   -0.00174258
  49.    0.01311848
  50.   -0.07690333
  51.    0.13760234
  52.   -0.00972180
  53.   -0.00177232
  54.    0.00576137
  55.   -0.00263279
  56.   -0.00246171
  57.    0.00559029
  58.   -0.00517131
  59.    0.00305177
  60.    0.03971549
  61.    0.02842756
  62.    0.01962254
  63.   -0.07943358
  64.   -0.03615679

Lambda that maximizes along the TS mode:       0.00001853
Searching for lambda that minimizes along all other modes
In cycle   1: lambdaN =  -0.00128280   step =   0.00128280
In cycle   2: lambdaN =  -0.00128763   step =   0.00000483
In cycle   3: lambdaN =  -0.00128763   step =   0.00000000
Lambda that minimizes along all other modes:  -0.00128763
Calculated stepsize too large (   0.1809 >    0.1000). Scaled with    0.5529.
The final length of the internal step   ....       0.1000
Converting the step to cartesian space:
 Initial RMS(Int)=    0.0125000000
Transforming coordinates:
 Iter   0:  RMS(Cart)=    0.0427464064 RMS(Int)=    0.0126812912
 Iter   1:  RMS(Cart)=    0.0006725352 RMS(Int)=    0.0006236902
 Iter   2:  RMS(Cart)=    0.0000204088 RMS(Int)=    0.0000252503
 Iter   3:  RMS(Cart)=    0.0000007057 RMS(Int)=    0.0000008294
 Iter   4:  RMS(Cart)=    0.0000000314 RMS(Int)=    0.0000000200
done
Storing new coordinates                 .... done

                                .--------------------.
          ----------------------|Geometry convergence|-------------------------
          Item                value                   Tolerance       Converged
          ---------------------------------------------------------------------
          RMS gradient        0.0017157766            0.0001000000      NO
          MAX gradient        0.0052746959            0.0003000000      NO
          RMS step            0.0125000000            0.0020000000      NO
          MAX step            0.0442422199            0.0040000000      NO
          ........................................................
          Max(Bonds)      0.0227      Max(Angles)    0.71
          Max(Dihed)        2.53      Max(Improp)    0.00
          ---------------------------------------------------------------------

The optimization has not yet converged - more geometry cycles are needed


    ---------------------------------------------------------------------------
                         Redundant Internal Coordinates
                            (Angstroem and degrees)

        Definition                    Value    dE/dq     Step     New-Value  comp.(TS mode)
    ----------------------------------------------------------------------------
     1. B(H   1,C   0)                1.3768  0.002037 -0.0095    1.3673          0.63
     2. B(H   2,C   0)                1.0857  0.001058 -0.0004    1.0852   
     3. B(H   3,C   0)                1.0869  0.001094 -0.0005    1.0864   
     4. B(N   4,C   0)                1.4123 -0.000715  0.0017    1.4139   
     5. B(O   5,N   4)                1.2472  0.001366 -0.0010    1.2462   
     6. B(O   5,C   0)                2.3016  0.000524  0.0003    2.3019   
     7. B(O   6,N   4)                1.2457  0.000747 -0.0007    1.2450   
     8. B(O   6,C   0)                2.2921 -0.000235  0.0012    2.2934   
     9. B(O   8,C   7)                1.3208  0.002654 -0.0015    1.3193   
    10. B(O   9,C   7)                1.2218  0.000037  0.0002    1.2220   
    11. B(C  10,C   7)                1.5109  0.002915 -0.0020    1.5089   
    12. B(H  11,C  10)                1.0881  0.000594 -0.0005    1.0876   
    13. B(H  12,C  10)                1.0910  0.000195 -0.0002    1.0908   
    14. B(H  13,C  10)                1.0929  0.000281 -0.0002    1.0927   
    15. B(H  14,O   8)                1.0486  0.004178 -0.0009    1.0477   
    16. B(O  15,H   1)                1.2635  0.004039 -0.0012    1.2624          0.54
    17. B(O  15,H  14)                1.5155  0.005275 -0.0227    1.4929          0.37
    18. B(H  16,O  15)                0.9656  0.000346 -0.0001    0.9655   
    19. A(H   2,C   0,N   4)          110.25  0.000293   -0.07    110.19   
    20. A(H   2,C   0,H   3)          114.59 -0.000769   -0.03    114.56   
    21. A(H   3,C   0,N   4)          110.20 -0.000125   -0.01    110.19   
    22. A(H   1,C   0,N   4)          100.51 -0.003785    0.44    100.95   
    23. A(H   1,C   0,H   3)          108.11  0.001924   -0.09    108.02   
    24. A(H   1,C   0,H   2)          112.26  0.002135   -0.19    112.07   
    25. A(C   0,H   1,O  15)          174.33 -0.002706    0.19    174.52   
    26. A(C   0,N   4,O   5)          119.74 -0.000001   -0.03    119.71   
    27. A(O   5,N   4,O   6)          120.96  0.000116    0.06    121.01   
    28. A(C   0,N   4,O   6)          119.03 -0.000185    0.03    119.06   
    29. A(O   9,C   7,C  10)          122.75 -0.002018    0.13    122.88   
    30. A(O   8,C   7,C  10)          113.63  0.002311   -0.15    113.48   
    31. A(O   8,C   7,O   9)          123.61 -0.000298    0.03    123.64   
    32. A(C   7,O   8,H  14)          113.56  0.005082   -0.45    113.12   
    33. A(H  11,C  10,H  12)          109.85 -0.000838    0.08    109.93   
    34. A(C   7,C  10,H  12)          111.12  0.001501   -0.17    110.96   
    35. A(C   7,C  10,H  11)          110.26  0.000229   -0.00    110.26   
    36. A(H  12,C  10,H  13)          107.35 -0.000643    0.03    107.38   
    37. A(H  11,C  10,H  13)          108.99 -0.000732    0.11    109.10   
    38. A(C   7,C  10,H  13)          109.19  0.000428   -0.04    109.15   
    39. A(O   8,H  14,O  15)          170.00 -0.002816    0.39    170.39   
    40. A(H  14,O  15,H  16)          110.02 -0.000268    0.03    110.05   
    41. A(H   1,O  15,H  14)          119.55  0.002764   -0.71    118.84   
[...]
  34   2.0000      -0.268358        -7.3024 
  35   2.0000      -0.262903        -7.1540 
  36   2.0000      -0.227947        -6.2028 
  37   0.0000      -0.045774        -1.2456 
  38   0.0000       0.021581         0.5872 
  39   0.0000       0.050177         1.3654 
  40   0.0000       0.069670         1.8958 
  41   0.0000       0.098725         2.6865 
  42   0.0000       0.120608         3.2819 
  43   0.0000       0.125832         3.4241 
  44   0.0000       0.127122         3.4592 
  45   0.0000       0.134682         3.6649 
  46   0.0000       0.147574         4.0157 
  47   0.0000       0.162524         4.4225 
  48   0.0000       0.171769         4.6741 
  49   0.0000       0.183069         4.9816 
  50   0.0000       0.204725         5.5709 
  51   0.0000       0.224132         6.0989 
  52   0.0000       0.231674         6.3042 
  53   0.0000       0.234193         6.3727 
  54   0.0000       0.245313         6.6753 
  55   0.0000       0.260361         7.0848 
  56   0.0000       0.279164         7.5964 
  57   0.0000       0.300657         8.1813 
  58   0.0000       0.314758         8.5650 
  59   0.0000       0.336836         9.1658 
  60   0.0000       0.355100         9.6628 
  61   0.0000       0.371441        10.1074 
  62   0.0000       0.381826        10.3900 
  63   0.0000       0.395689        10.7672 
  64   0.0000       0.405433        11.0324 
  65   0.0000       0.405921        11.0457 
  66   0.0000       0.411854        11.2071 
  67   0.0000       0.418783        11.3957 
  68   0.0000       0.430231        11.7072 
  69   0.0000       0.439327        11.9547 
  70   0.0000       0.443692        12.0735 
  71   0.0000       0.451254        12.2792 
  72   0.0000       0.462330        12.5806 
  73   0.0000       0.470372        12.7995 
  74   0.0000       0.472907        12.8685 
  75   0.0000       0.486884        13.2488 
  76   0.0000       0.498280        13.5589 
  77   0.0000       0.508778        13.8446 
  78   0.0000       0.528945        14.3933 
  79   0.0000       0.535226        14.5642 
  80   0.0000       0.543257        14.7828 
  81   0.0000       0.560788        15.2598 
  82   0.0000       0.569703        15.5024 
  83   0.0000       0.588241        16.0068 
  84   0.0000       0.591186        16.0870 
  85   0.0000       0.606111        16.4931 
  86   0.0000       0.628990        17.1157 
  87   0.0000       0.636223        17.3125 
  88   0.0000       0.660127        17.9630 
  89   0.0000       0.665557        18.1107 
  90   0.0000       0.688981        18.7481 
  91   0.0000       0.729023        19.8377 
  92   0.0000       0.769765        20.9464 
  93   0.0000       0.795697        21.6520 
  94   0.0000       0.805766        21.9260 
  95   0.0000       0.834337        22.7035 
  96   0.0000       0.845166        22.9981 
  97   0.0000       0.866543        23.5798 
  98   0.0000       0.881594        23.9894 
  99   0.0000       0.888682        24.1823 
 100   0.0000       0.915311        24.9069 
 101   0.0000       0.944370        25.6976 
 102   0.0000       0.953513        25.9464 
 103   0.0000       0.988984        26.9116 
 104   0.0000       0.995170        27.0799 
 105   0.0000       1.003161        27.2974 
 106   0.0000       1.020693        27.7745 
 107   0.0000       1.046600        28.4794 
 108   0.0000       1.081491        29.4289 
 109   0.0000       1.093924        29.7672 
 110   0.0000       1.183264        32.1982 
 111   0.0000       1.189045        32.3556 
 112   0.0000       1.223242        33.2861 
 113   0.0000       1.242536        33.8111 
 114   0.0000       1.293959        35.2104 
 115   0.0000       1.343888        36.5691 
 116   0.0000       1.371556        37.3219 
 117   0.0000       1.384743        37.6808 
 118   0.0000       1.404187        38.2099 
 119   0.0000       1.410513        38.3820 
 120   0.0000       1.438208        39.1356 
 121   0.0000       1.463519        39.8244 
 122   0.0000       1.480920        40.2979 
 123   0.0000       1.508715        41.0542 
 124   0.0000       1.512680        41.1621 
 125   0.0000       1.519547        41.3490 
 126   0.0000       1.522002        41.4158 
 127   0.0000       1.538989        41.8780 
 128   0.0000       1.540287        41.9133 
 129   0.0000       1.585640        43.1475 
 130   0.0000       1.588869        43.2353 
 131   0.0000       1.593302        43.3559 
 132   0.0000       1.613384        43.9024 
 133   0.0000       1.619583        44.0711 
 134   0.0000       1.636657        44.5357 
 135   0.0000       1.660743        45.1911 
 136   0.0000       1.674453        45.5642 
 137   0.0000       1.683524        45.8110 
 138   0.0000       1.704511        46.3821 
 139   0.0000       1.771166        48.1959 
 140   0.0000       1.780871        48.4600 
 141   0.0000       1.800671        48.9988 
 142   0.0000       1.827137        49.7189 
 143   0.0000       1.845956        50.2310 
 144   0.0000       1.900940        51.7272 
 145   0.0000       1.920092        52.2484 
 146   0.0000       1.930945        52.5437 
 147   0.0000       1.953236        53.1502 
 148   0.0000       1.972984        53.6876 
 149   0.0000       1.976539        53.7844 
 150   0.0000       1.981111        53.9088 
 151   0.0000       1.996617        54.3307 
 152   0.0000       2.044461        55.6326 
 153   0.0000       2.049430        55.7678 
 154   0.0000       2.073392        56.4199 
 155   0.0000       2.100768        57.1648 
 156   0.0000       2.119928        57.6862 
 157   0.0000       2.137393        58.1614 
 158   0.0000       2.147436        58.4347 
 159   0.0000       2.160692        58.7954 
 160   0.0000       2.169135        59.0252 
 161   0.0000       2.203393        59.9574 
 162   0.0000       2.225021        60.5459 
 163   0.0000       2.243947        61.0609 
 164   0.0000       2.245897        61.1140 
 165   0.0000       2.295251        62.4570 
 166   0.0000       2.320324        63.1392 
 167   0.0000       2.337428        63.6046 
 168   0.0000       2.354165        64.0601 
 169   0.0000       2.362868        64.2969 
 170   0.0000       2.394701        65.1631 
 171   0.0000       2.398771        65.2739 
 172   0.0000       2.423209        65.9389 
 173   0.0000       2.444896        66.5290 
 174   0.0000       2.454301        66.7849 
 175   0.0000       2.481506        67.5252 
 176   0.0000       2.501827        68.0782 
 177   0.0000       2.529060        68.8192 
 178   0.0000       2.550898        69.4135 
 179   0.0000       2.574673        70.0604 
 180   0.0000       2.601302        70.7850 
 181   0.0000       2.603488        70.8445 
 182   0.0000       2.624065        71.4044 
 183   0.0000       2.639787        71.8323 
 184   0.0000       2.696418        73.3733 
 185   0.0000       2.707102        73.6640 
 186   0.0000       2.729540        74.2746 
 187   0.0000       2.745638        74.7126 
 188   0.0000       2.761821        75.1530 
 189   0.0000       2.766017        75.2671 
 190   0.0000       2.775880        75.5355 
 191   0.0000       2.804965        76.3270 
 192   0.0000       2.815288        76.6079 
 193   0.0000       2.906296        79.0843 
 194   0.0000       2.916024        79.3490 
 195   0.0000       2.920712        79.4766 
 196   0.0000       2.945459        80.1500 
 197   0.0000       2.946919        80.1897 
 198   0.0000       2.962428        80.6118 
 199   0.0000       2.985824        81.2484 
 200   0.0000       3.016650        82.0872 
 201   0.0000       3.035848        82.6096 
 202   0.0000       3.064987        83.4025 
 203   0.0000       3.086003        83.9744 
 204   0.0000       3.115221        84.7695 
 205   0.0000       3.121414        84.9380 
 206   0.0000       3.160829        86.0105 
 207   0.0000       3.178044        86.4790 
 208   0.0000       3.204293        87.1933 
 209   0.0000       3.206930        87.2650 
 210   0.0000       3.249002        88.4098 
 211   0.0000       3.256720        88.6199 
 212   0.0000       3.278122        89.2022 
 213   0.0000       3.281517        89.2946 
 214   0.0000       3.301829        89.8473 
 215   0.0000       3.329687        90.6054 
 216   0.0000       3.358845        91.3988 
 217   0.0000       3.386772        92.1587 
 218   0.0000       3.425511        93.2129 
 219   0.0000       3.444242        93.7226 
 220   0.0000       3.479022        94.6690 
 221   0.0000       3.502023        95.2949 
 222   0.0000       3.516258        95.6822 
 223   0.0000       3.559687        96.8640 
 224   0.0000       3.627077        98.6978 
 225   0.0000       3.640589        99.0655 
 226   0.0000       3.693011       100.4919 
 227   0.0000       3.762955       102.3952 
 228   0.0000       3.772529       102.6557 
 229   0.0000       3.797209       103.3273 
 230   0.0000       3.836363       104.3927 
 231   0.0000       3.846243       104.6616 
 232   0.0000       3.893289       105.9418 
 233   0.0000       3.944126       107.3251 
 234   0.0000       3.981480       108.3416 
 235   0.0000       4.031821       109.7114 
 236   0.0000       4.041175       109.9660 
 237   0.0000       4.110322       111.8476 
 238   0.0000       4.115808       111.9968 
 239   0.0000       4.183324       113.8340 
 240   0.0000       4.308603       117.2431 
 241   0.0000       4.334539       117.9488 
 242   0.0000       4.382057       119.2418 
 243   0.0000       4.398046       119.6769 
 244   0.0000       4.422554       120.3438 
 245   0.0000       4.483578       122.0044 
 246   0.0000       4.535372       123.4137 
 247   0.0000       4.603596       125.2702 
 248   0.0000       4.619870       125.7131 
 249   0.0000       4.704603       128.0188 
 250   0.0000       4.719207       128.4162 
 251   0.0000       4.732991       128.7912 
 252   0.0000       4.745683       129.1366 
 253   0.0000       4.901926       133.3882 
 254   0.0000       4.942334       134.4877 
 255   0.0000       5.129344       139.5765 
 256   0.0000       5.133162       139.6804 
 257   0.0000       5.148202       140.0897 
 258   0.0000       5.153597       140.2365 
 259   0.0000       5.164169       140.5242 
 260   0.0000       5.166547       140.5889 
 261   0.0000       5.184678       141.0823 
 262   0.0000       5.189347       141.2093 
 263   0.0000       5.220815       142.0656 
 264   0.0000       5.256375       143.0332 
 265   0.0000       5.287406       143.8776 
 266   0.0000       5.301983       144.2743 
 267   0.0000       5.345915       145.4697 
 268   0.0000       5.374095       146.2366 
 269   0.0000       5.392157       146.7281 
 270   0.0000       5.435674       147.9122 
 271   0.0000       5.463469       148.6685 
 272   0.0000       5.506463       149.8385 
 273   0.0000       5.526799       150.3918 
 274   0.0000       5.587023       152.0306 
 275   0.0000       5.621779       152.9764 
 276   0.0000       5.635445       153.3482 
 277   0.0000       5.699756       155.0982 
 278   0.0000       5.788661       157.5175 
 279   0.0000       5.881555       160.0453 
 280   0.0000       5.930236       161.3699 
 281   0.0000       5.951480       161.9480 
 282   0.0000       5.957733       162.1182 
 283   0.0000       6.156721       167.5329 
 284   0.0000       6.171246       167.9281 
 285   0.0000       6.255487       170.2205 
 286   0.0000       6.275664       170.7695 
 287   0.0000       6.308229       171.6556 
 288   0.0000       6.313598       171.8017 
 289   0.0000       6.323133       172.0612 
 290   0.0000       6.353763       172.8947 
 291   0.0000       6.368524       173.2964 
 292   0.0000       6.372550       173.4059 
 293   0.0000       6.377386       173.5375 
 294   0.0000       6.420818       174.7193 
 295   0.0000       6.448430       175.4707 
 296   0.0000       6.480139       176.3335 
 297   0.0000       6.505863       177.0335 
 298   0.0000       6.605539       179.7459 
 299   0.0000       6.661743       181.2752 
 300   0.0000       6.722273       182.9223 
 301   0.0000       6.750811       183.6989 
 302   0.0000       6.837923       186.0693 
 303   0.0000       6.851333       186.4343 
 304   0.0000       6.865615       186.8229 
 305   0.0000       6.868064       186.8895 
 306   0.0000       6.896926       187.6749 
 307   0.0000       6.951605       189.1628 
 308   0.0000       7.047104       191.7615 
 309   0.0000       7.092127       192.9866 
 310   0.0000       7.099387       193.1841 
 311   0.0000       7.119159       193.7222 
 312   0.0000       7.160606       194.8500 
 313   0.0000       7.203846       196.0266 
 314   0.0000       7.233227       196.8261 
 315   0.0000       7.369629       200.5378 
 316   0.0000       7.425694       202.0634 
 317   0.0000       7.464455       203.1182 
 318   0.0000      22.310467       607.0987 
 319   0.0000      22.424021       610.1886 
 320   0.0000      23.303225       634.1130 
 321   0.0000      32.239116       877.2709 
 322   0.0000      43.632805      1187.3090 
 323   0.0000      43.794975      1191.7218 
 324   0.0000      43.867498      1193.6953 
 325   0.0000      43.901578      1194.6227 
 326   0.0000      43.973409      1196.5773 
-------
TIMINGS
-------

Total SCF time: 0 days 0 hours 0 min 7 sec 

Total time                  ....       7.843 sec
Sum of individual times     ....       6.761 sec  ( 86.2%)

Fock matrix formation       ....       4.800 sec  ( 61.2%)
  Split-RI-J                ....       0.953 sec  ( 19.8% of F)
  Chain of spheres X        ....       2.052 sec  ( 42.8% of F)
  XC integration            ....       0.537 sec  ( 11.2% of F)
    Basis function eval.    ....       0.029 sec  (  5.3% of XC)
    Density eval.           ....       0.062 sec  ( 11.5% of XC)
    XC-Functional eval.     ....       0.004 sec  (  0.7% of XC)
    XC-Potential eval.      ....       0.033 sec  (  6.2% of XC)
Diagonalization             ....       0.065 sec  (  0.8%)
Density matrix formation    ....       0.058 sec  (  0.7%)
Population analysis         ....       0.000 sec  (  0.0%)
Initial guess               ....       0.124 sec  (  1.6%)
Orbital Transformation      ....       0.000 sec  (  0.0%)
Orbital Orthonormalization  ....       0.097 sec  (  1.2%)
DIIS solution               ....       0.041 sec  (  0.5%)
SOSCF solution              ....       0.367 sec  (  4.7%)
Grid generation             ....       1.306 sec  ( 16.6%)

Maximum memory used throughout the entire SCF-calculation: 78.8 MB


-------------------------------------------------------------------------------
                          DFT DISPERSION CORRECTION                            
                                                                               
                              DFTD3 V3.1  Rev 1                                
                          USING Becke-Johnson damping                          
-------------------------------------------------------------------------------
The B3LYP functional is recognized
Active option DFTDOPT                   ...         4   

molecular C6(AA) [au] = 2364.737803 


            DFT-D V3
 parameters
 s6 scaling factor         :     1.0000 
 a1 scaling factor         :     0.3981 
 s8 scaling factor         :     1.9889 
 a2 scaling factor         :     4.4211 
 ad hoc parameters k1-k3   :    16.0000     1.3333    -4.0000 

 Edisp/kcal,au: -11.947747326820  -0.019039945286 
 E6   /kcal   :  -6.043572027 
 E8   /kcal   :  -5.904175300 
 % E8         :  49.416640130 

-------------------------   ----------------
Dispersion correction           -0.019039945
-------------------------   ----------------


-------------------------   --------------------
FINAL SINGLE POINT ENERGY      -550.064163663657
-------------------------   --------------------

                                *** OPTIMIZATION RUN DONE ***


                    ***********************HURRAY************************
                    ***        THE TS OPTIMIZATION HAS CONVERGED      ***
                    *****************************************************



---------------------------------------------------------------
                      PATH SUMMARY FOR NEB-TS             
---------------------------------------------------------------
All forces in Eh/Bohr. Global forces for TS.

Image     E(Eh)   dE(kcal/mol)  max(|Fp|)  RMS(Fp)
  0    -550.09002     0.00       0.00044   0.00021
  1    -550.08974     0.17       0.00520   0.00109
  2    -550.08885     0.73       0.00843   0.00166
  3    -550.08796     1.29       0.00900   0.00222
  4    -550.07140    11.68       0.01093   0.00242
  5    -550.06164    17.80       0.00184   0.00084 <= CI
 TS    -550.06416    16.22       0.00049   0.00012 <= TS
  6    -550.07213    11.22       0.00309   0.00121
  7    -550.07444     9.78       0.00116   0.00038
----------
STATISTICS
----------

For the individual parts of the NEB, NEB-CI or NEB-TS run:

Number of iterations:
     NEB                               ... 32  39.5%
     TS optimization                   ... 49  60.5%
Number of SCF / gradient calculations:
     NEB                               ... 266  84.4%
     TS optimization                   ... 49  15.6%

----------
 TIMINGS
----------

For the individual parts of the NEB, NEB-CI or NEB-TS run:

Total                                  ...     3912.029 sec
NEB                                    ...     2102.018 sec  53.7%
TS Optimization                        ...     1810.011 sec  46.3%


                            ***************************************
                            *     ORCA property calculations      *
                            ***************************************

                                    ---------------------
                                    Active property flags
                                    ---------------------
   (+) Dipole Moment


------------------------------------------------------------------------------
                       ORCA ELECTRIC PROPERTIES CALCULATION
------------------------------------------------------------------------------

Dipole Moment Calculation                       ... on
Quadrupole Moment Calculation                   ... off
Polarizability Calculation                      ... off
GBWName                                         ... neb.gbw
Electron density                                ... neb.scfp
The origin for moment calculation is the CENTER OF MASS  = (-0.366603, -0.332565  0.138456)

-------------
DIPOLE MOMENT
-------------
                                X             Y             Z
Electronic contribution:     -3.00208      -2.02830       0.74421
Nuclear contribution   :      3.43106       2.60863      -1.00186
                        -----------------------------------------
Total Dipole Moment    :      0.42898       0.58033      -0.25765
                        -----------------------------------------
Magnitude (a.u.)       :      0.76628
Magnitude (Debye)      :      1.94773



--------------------
Rotational spectrum 
--------------------
 
Rotational constants in cm-1:     0.066251     0.028227     0.024561 
Rotational constants in MHz :  1986.141992   846.235406   736.311137 

 Dipole components along the rotational axes: 
x,y,z [a.u.] :    -0.617774    -0.346696    -0.292135 
x,y,z [Debye]:    -1.570257    -0.881231    -0.742548 

 

Timings for individual modules:

Sum of individual times         ...     3789.971 sec (=  63.166 min)
GTO integral calculation        ...      231.541 sec (=   3.859 min)   6.1 %
SCF iterations                  ...     1068.809 sec (=  17.813 min)  28.2 %
SCF Gradient evaluation         ...      386.689 sec (=   6.445 min)  10.2 %
Geometry relaxation             ...        0.914 sec (=   0.015 min)   0.0 %
NEB Iterations                  ...     2102.018 sec (=  35.034 min)  55.5 %
                             ****ORCA TERMINATED NORMALLY****
TOTAL RUN TIME: 0 days 1 hours 5 minutes 19 seconds 687 msec
