
                                 *****************
                                 * O   R   C   A *
                                 *****************

                                            #,                                       
                                            ###                                      
                                            ####                                     
                                            #####                                    
                                            ######                                   
                                           ########,                                 
                                     ,,################,,,,,                         
                               ,,#################################,,                 
                          ,,##########################################,,             
                       ,#########################################, ''#####,          
                    ,#############################################,,   '####,        
                  ,##################################################,,,,####,       
                ,###########''''           ''''###############################       
              ,#####''   ,,,,##########,,,,          '''####'''          '####       
            ,##' ,,,,###########################,,,                        '##       
           ' ,,###''''                  '''############,,,                           
         ,,##''                                '''############,,,,        ,,,,,,###''
      ,#''                                            '''#######################'''  
     '                                                          ''''####''''         
             ,#######,   #######,   ,#######,      ##                                
            ,#'     '#,  ##    ##  ,#'     '#,    #''#        ######   ,####,        
            ##       ##  ##   ,#'  ##            #'  '#       #        #'  '#        
            ##       ##  #######   ##           ,######,      #####,   #    #        
            '#,     ,#'  ##    ##  '#,     ,#' ,#      #,         ##   #,  ,#        
             '#######'   ##     ##  '#######'  #'      '#     #####' # '####'        



                  #######################################################
                  #                        -***-                        #
                  #          Department of theory and spectroscopy      #
                  #    Directorship and core code : Frank Neese         #
                  #        Max Planck Institute fuer Kohlenforschung    #
                  #                Kaiser Wilhelm Platz 1               #
                  #                 D-45470 Muelheim/Ruhr               #
                  #                      Germany                        #
                  #                                                     #
                  #                  All rights reserved                #
                  #                        -***-                        #
                  #######################################################


                         Program Version 5.0.4 -  RELEASE  -


 With contributions from (in alphabetic order):
   Daniel Aravena         : Magnetic Suceptibility
   Michael Atanasov       : Ab Initio Ligand Field Theory (pilot matlab implementation)
   Alexander A. Auer      : GIAO ZORA, VPT2 properties, NMR spectrum
   Ute Becker             : Parallelization
   Giovanni Bistoni       : ED, misc. LED, open-shell LED, HFLD
   Martin Brehm           : Molecular dynamics
   Dmytro Bykov           : SCF Hessian
   Vijay G. Chilkuri      : MRCI spin determinant printing, contributions to CSF-ICE
   Dipayan Datta          : RHF DLPNO-CCSD density
   Achintya Kumar Dutta   : EOM-CC, STEOM-CC
   Dmitry Ganyushin       : Spin-Orbit,Spin-Spin,Magnetic field MRCI
   Miquel Garcia          : C-PCM and meta-GGA Hessian, CC/C-PCM, Gaussian charge scheme
   Yang Guo               : DLPNO-NEVPT2, F12-NEVPT2, CIM, IAO-localization
   Andreas Hansen         : Spin unrestricted coupled pair/coupled cluster methods
   Benjamin Helmich-Paris : MC-RPA, TRAH-SCF, COSX integrals
   Lee Huntington         : MR-EOM, pCC
   Robert Izsak           : Overlap fitted RIJCOSX, COSX-SCS-MP3, EOM
   Marcus Kettner         : VPT2
   Christian Kollmar      : KDIIS, OOCD, Brueckner-CCSD(T), CCSD density, CASPT2, CASPT2-K
   Simone Kossmann        : Meta GGA functionals, TD-DFT gradient, OOMP2, MP2 Hessian
   Martin Krupicka        : Initial AUTO-CI
   Lucas Lang             : DCDCAS
   Marvin Lechner         : AUTO-CI (C++ implementation), FIC-MRCC
   Dagmar Lenk            : GEPOL surface, SMD
   Dimitrios Liakos       : Extrapolation schemes; Compound Job, initial MDCI parallelization
   Dimitrios Manganas     : Further ROCIS development; embedding schemes
   Dimitrios Pantazis     : SARC Basis sets
   Anastasios Papadopoulos: AUTO-CI, single reference methods and gradients
   Taras Petrenko         : DFT Hessian,TD-DFT gradient, ASA, ECA, R-Raman, ABS, FL, XAS/XES, NRVS
   Peter Pinski           : DLPNO-MP2, DLPNO-MP2 Gradient
   Christoph Reimann      : Effective Core Potentials
   Marius Retegan         : Local ZFS, SOC
   Christoph Riplinger    : Optimizer, TS searches, QM/MM, DLPNO-CCSD(T), (RO)-DLPNO pert. Triples
   Tobias Risthaus        : Range-separated hybrids, TD-DFT gradient, RPA, STAB
   Michael Roemelt        : Original ROCIS implementation
   Masaaki Saitow         : Open-shell DLPNO-CCSD energy and density
   Barbara Sandhoefer     : DKH picture change effects
   Avijit Sen             : IP-ROCIS
   Kantharuban Sivalingam : CASSCF convergence, NEVPT2, FIC-MRCI
   Bernardo de Souza      : ESD, SOC TD-DFT
   Georgi Stoychev        : AutoAux, RI-MP2 NMR, DLPNO-MP2 response
   Willem Van den Heuvel  : Paramagnetic NMR
   Boris Wezisla          : Elementary symmetry handling
   Frank Wennmohs         : Technical directorship


 We gratefully acknowledge several colleagues who have allowed us to
 interface, adapt or use parts of their codes:
   Stefan Grimme, W. Hujo, H. Kruse, P. Pracht,  : VdW corrections, initial TS optimization,
                  C. Bannwarth, S. Ehlert          DFT functionals, gCP, sTDA/sTD-DF
   Ed Valeev, F. Pavosevic, A. Kumar             : LibInt (2-el integral package), F12 methods
   Garnet Chan, S. Sharma, J. Yang, R. Olivares  : DMRG
   Ulf Ekstrom                                   : XCFun DFT Library
   Mihaly Kallay                                 : mrcc  (arbitrary order and MRCC methods)
   Jiri Pittner, Ondrej Demel                    : Mk-CCSD
   Frank Weinhold                                : gennbo (NPA and NBO analysis)
   Christopher J. Cramer and Donald G. Truhlar   : smd solvation model
   Lars Goerigk                                  : TD-DFT with DH, B97 family of functionals
   V. Asgeirsson, H. Jonsson                     : NEB implementation
   FAccTs GmbH                                   : IRC, NEB, NEB-TS, DLPNO-Multilevel, CI-OPT
                                                   MM, QMMM, 2- and 3-layer-ONIOM, Crystal-QMMM,
                                                   LR-CPCM, SF, NACMEs, symmetry and pop. for TD-DFT,
                                                   nearIR, NL-DFT gradient (VV10), updates on ESD,
                                                   ML-optimized integration grids
   S Lehtola, MJT Oliveira, MAL Marques          : LibXC Library
   Liviu Ungur et al                             : ANISO software


 Your calculation uses the libint2 library for the computation of 2-el integrals
 For citations please refer to: http://libint.valeyev.net

 Your ORCA version has been built with support for libXC version: 5.1.0
 For citations please refer to: https://tddft.org/programs/libxc/

 This ORCA versions uses:
   CBLAS   interface :  Fast vector & matrix operations
   LAPACKE interface :  Fast linear algebra routines
   SCALAPACK package :  Parallel linear algebra routines
   Shared memory     :  Shared parallel matrices
   BLAS/LAPACK       :  OpenBLAS 0.3.15  USE64BITINT DYNAMIC_ARCH NO_AFFINITY Prescott SINGLE_THREADED
        Core in use  :  Prescott
   Copyright (c) 2011-2014, The OpenBLAS Project


Your calculation utilizes the atom-pairwise dispersion correction
with the Becke-Johnson damping scheme (D3BJ)
Cite in your paper:
S.Grimme, S.Ehrlich, L.Goerigk, J Comput Chem, (2011), 32, 1456–1465 
S.Grimme, J.Antony, S.Ehrlich and H.Krieg, J.Chem.Phys., 132, (2010), 154104 
   

================================================================================

----- Orbital basis set information -----
Your calculation utilizes the basis: def2-TZVP
   F. Weigend and R. Ahlrichs, Phys. Chem. Chem. Phys. 7, 3297 (2005).

----- AuxJ basis set information -----
Your calculation utilizes the auxiliary basis: def2/J
   F. Weigend, Phys. Chem. Chem. Phys. 8, 1057 (2006).

================================================================================
                                        WARNINGS
                       Please study these warnings very carefully!
================================================================================


WARNING: Geometry Optimization
  ===> : Switching off AutoStart
         For restart on a previous wavefunction, please use MOREAD

INFO   : the flag for use of the SHARK integral package has been found!

================================================================================
                                       INPUT FILE
================================================================================
NAME = /home/rudenko/mop_saddle_orca_4_serv/for_orca/ch3no2_ch3coo_new/orca/orca_start/start.inp
|  1> !  opt B3LYP def2-TZVP CPCM D3 
|  2> %pal nprocs 102 end
|  3> %cpcm epsilon 78.4 end 
|  4> *xyz -1 1 
|  5> C   0.46770767 -1.16442653 0.81931018
|  6> H   0.95251561 -1.09062455 -0.18045472
|  7> H   0.96404287 -0.43312479 1.49425321
|  8> H   0.63976533 -2.17724574 1.23357969
|  9> N   -0.95492685 -0.87660791 0.70247574
| 10> O   -1.75932263 -1.66547625 1.17844061
| 11> O   -1.30898785 0.13799844 0.12179536
| 12> C   0.66868277 2.71152924 -3.76935093
| 13> O   1.49603957 3.29175587 -3.03373886
| 14> O   1.00305308 1.92141414 -4.6759545
| 15> C   -0.8000074 3.00789427 -3.57727442
| 16> H   -1.43323006 2.29064491 -4.11255742
| 17> H   -1.04087474 4.01194409 -3.94798742
| 18> H   -1.07306222 2.9741753 -2.51589806
| 19> H   1.79814 1.46521055 -1.85549354
| 20> O   1.23245422 0.80007416 -1.44101307
| 21> H   0.63875194 1.3026667 -0.87558125
| 22> *
| 23> 
| 24>                          ****END OF INPUT****
================================================================================

                       *****************************
                       * Geometry Optimization Run *
                       *****************************

Geometry optimization settings:
Update method            Update   .... BFGS
Choice of coordinates    CoordSys .... Z-matrix Internals
Initial Hessian          InHess   .... Almoef's Model

Convergence Tolerances:
Energy Change            TolE     ....  5.0000e-06 Eh
Max. Gradient            TolMAXG  ....  3.0000e-04 Eh/bohr
RMS Gradient             TolRMSG  ....  1.0000e-04 Eh/bohr
Max. Displacement        TolMAXD  ....  4.0000e-03 bohr
RMS Displacement         TolRMSD  ....  2.0000e-03 bohr
Strict Convergence                ....  False
------------------------------------------------------------------------------
                        ORCA OPTIMIZATION COORDINATE SETUP
------------------------------------------------------------------------------

The optimization will be done in new redundant internal coordinates
Making redundant internal coordinates   ...  (new redundants) done
Evaluating the initial hessian          ...  (Almloef) done
Evaluating the coordinates              ...  done
Calculating the B-matrix                .... done
Calculating the G-matrix                .... done
Diagonalizing the G-matrix              .... done
Small eigenvalue found = 1.493e-02
The first mode is                       ....   71
The number of degrees of freedom        ....   45

    -----------------------------------------------------------------
                    Redundant Internal Coordinates


    -----------------------------------------------------------------
         Definition                    Initial Value    Approx d2E/dq
    -----------------------------------------------------------------
      1. B(H   1,C   0)                  1.1136         0.330244   
      2. B(H   2,C   0)                  1.1121         0.332057   
      3. B(H   3,C   0)                  1.1077         0.337415   
      4. B(N   4,C   0)                  1.4562         0.438868   
      5. B(O   5,N   4)                  1.2231         0.925408   
      6. B(O   6,N   4)                  1.2215         0.930894   
      7. B(O   8,C   7)                  1.2499         0.936180   
      8. B(O   9,C   7)                  1.2482         0.942108   
      9. B(C  10,C   7)                  1.5106         0.401237   
     10. B(H  11,C  10)                  1.0963         0.351819   
     11. B(H  12,C  10)                  1.0971         0.350868   
     12. B(H  13,C  10)                  1.0965         0.351660   
     13. B(H  14,O   8)                  2.1945         0.005577   
     14. B(H  14,C   7)                  2.5479         0.001700   
     15. B(O  15,H   1)                  2.2896         0.003933   
     16. B(O  15,H  14)                  0.9665         0.507612   
     17. B(H  16,O  15)                  0.9617         0.516790   
     18. B(H  16,O   6)                  2.4789         0.001962   
     19. B(H  16,H   2)                  2.9555         0.000073   
     20. B(H  16,H   1)                  2.5119         0.000372   
     21. A(H   1,C   0,H   3)          109.1925         0.284030   
     22. A(H   1,C   0,H   2)          107.8790         0.283325   
     23. A(H   3,C   0,N   4)          111.2528         0.327510   
     24. A(H   2,C   0,H   3)          107.7560         0.284272   
     25. A(H   1,C   0,N   4)          109.8897         0.326353   
     26. A(H   2,C   0,N   4)          110.7787         0.326647   
     27. A(O  15,H   1,H  16)           22.4977         0.101102   
     28. A(C   0,H   1,H  16)          104.9052         0.122376   
     29. A(C   0,H   1,O  15)          127.0323         0.159372   
     30. A(C   0,H   2,H  16)           81.3984         0.112109   
     31. A(C   0,N   4,O   6)          119.0466         0.430234   
     32. A(O   5,N   4,O   6)          122.0136         0.489613   
     33. A(C   0,N   4,O   5)          118.9362         0.429777   
     34. A(N   4,O   6,H  16)          110.7190         0.175436   
     35. A(O   9,C   7,C  10)          118.4900         0.429930   
     36. A(C  10,C   7,H  14)          115.5602         0.160157   
     37. A(O   9,C   7,H  14)           96.7303         0.174612   
     38. A(O   8,C   7,O   9)          122.9556         0.498600   
     39. A(O   8,C   7,H  14)           59.4411         0.174489   
     40. A(O   8,C   7,C  10)          118.5333         0.429444   
     41. A(C   7,O   8,H  14)           91.1879         0.199563   
     42. A(H  11,C  10,H  12)          107.8760         0.288603   
     43. A(C   7,C  10,H  12)          110.4912         0.326753   
     44. A(C   7,C  10,H  11)          111.7856         0.326898   
     45. A(H  12,C  10,H  13)          107.4918         0.288582   
     46. A(H  11,C  10,H  13)          107.9792         0.288705   
     47. A(C   7,C  10,H  13)          111.0502         0.326874   
     48. A(C   7,H  14,O   8)           29.3710         0.112109   
     49. A(O   8,H  14,O  15)          136.2573         0.171966   
     50. A(C   7,H  14,O  15)          113.5337         0.153151   
     51. A(H   1,O  15,H  16)           91.8555         0.165972   
     52. A(H   1,O  15,H  14)          151.1557         0.165660   
     53. A(H  14,O  15,H  16)          104.7033         0.320251   
     54. A(H   1,H  16,O   6)           62.5579         0.099339   
     55. A(O   6,H  16,O  15)          118.4315         0.154760   
     56. A(H   1,H  16,H   2)           37.3227         0.092969   
     57. A(H   2,H  16,O  15)           95.5415         0.114244   
     58. A(H   1,H  16,O  15)           65.6468         0.125505   
     59. A(H   2,H  16,O   6)           59.1976         0.096150   
     60. D(O  15,H   1,C   0,H   3)   -170.6781         0.107420   
     61. D(H  16,H   1,C   0,H   3)   -175.2514         0.107420   
     62. D(O  15,H   1,C   0,H   2)    -53.8326         0.107420   
     63. D(H  16,H   1,C   0,H   2)    -58.4059         0.107420   
     64. D(O  15,H   1,C   0,N   4)     67.0391         0.107420   
     65. D(H  16,H   1,C   0,N   4)     62.4658         0.107420   
     66. D(H  16,H   2,C   0,N   4)    -75.2802         0.099817   
     67. D(H  16,H   2,C   0,H   1)     45.0342         0.099817   
     68. D(H  16,H   2,C   0,H   3)    162.8092         0.099817   
     69. D(O   5,N   4,C   0,H   1)    128.6390         0.016423   
     70. D(O   6,N   4,C   0,H   2)     68.4236         0.016423   
     71. D(O   5,N   4,C   0,H   3)      7.5867         0.016423   
     72. D(O   5,N   4,C   0,H   2)   -112.2519         0.016423   
     73. D(O   6,N   4,C   0,H   3)   -171.7378         0.016423   
     74. D(O   6,N   4,C   0,H   1)    -50.6855         0.016423   
     75. D(H  16,O   6,N   4,O   5)   -174.0605         0.082688   
     76. D(H  16,O   6,N   4,C   0)      5.2423         0.082688   
     77. D(H  14,O   8,C   7,C  10)    104.4361         0.077947   
     78. D(H  14,O   8,C   7,O   9)    -77.2567         0.077947   
     79. D(H  13,C  10,C   7,H  14)     20.8607         0.012770   
     80. D(H  12,C  10,C   7,H  14)    140.0467         0.012770   
     81. D(H  12,C  10,C   7,O   9)   -105.9130         0.012770   
     82. D(H  12,C  10,C   7,O   8)     72.4708         0.012770   
     83. D(H  11,C  10,C   7,H  14)    -99.8036         0.012770   
     84. D(H  13,C  10,C   7,O   9)    134.9010         0.012770   
     85. D(H  11,C  10,C   7,O   9)     14.2367         0.012770   
     86. D(H  11,C  10,C   7,O   8)   -167.3794         0.012770   
     87. D(H  13,C  10,C   7,O   8)    -46.7152         0.012770   
     88. D(O  15,H  14,C   7,C  10)     36.9668         0.001502   
     89. D(O  15,H  14,C   7,O   9)    -89.1095         0.001502   
     90. D(O  15,H  14,C   7,O   8)    146.3881         0.001502   
     91. D(O  15,H  14,O   8,C   7)    -47.2251         0.001516   
     92. D(O   8,H  14,C   7,C  10)   -109.4213         0.001502   
     93. D(O   8,H  14,C   7,O   9)    124.5024         0.001502   
     94. D(H   1,O  15,H  14,O   8)   -177.6545         0.360405   
     95. D(H   1,O  15,H  14,C   7)    159.2246         0.360405   
     96. D(H  16,O  15,H  14,O   8)    -54.5729         0.360405   
     97. D(H  16,O  15,H  14,C   7)    -77.6938         0.360405   
     98. D(H  16,O  15,H   1,C   0)    -11.6168         0.001509   
     99. D(H  14,O  15,H   1,H  16)    125.8179         0.001509   
    100. D(H  14,O  15,H   1,C   0)    114.2012         0.001509   
    101. D(O   6,H  16,O  15,H   1)    -34.8846         0.412024   
    102. D(O   6,H  16,O  15,H  14)    168.9713         0.412024   
    103. D(H   2,H  16,O  15,H  14)   -133.2046         0.412024   
    104. D(H   1,H  16,O  15,H  14)   -156.1441         0.412024   
    105. D(H   2,H  16,O   6,N   4)    -26.3718         0.001502   
    106. D(H   1,H  16,O   6,N   4)     16.4362         0.001502   
    107. D(O  15,H  16,O   6,N   4)     52.3876         0.001502   
    108. D(O   6,H  16,H   2,C   0)     54.5940         0.001500   
    109. D(H   1,H  16,H   2,C   0)    -29.4952         0.001500   
    110. D(O  15,H  16,H   2,C   0)    -65.3438         0.001500   
    111. D(O   6,H  16,H   1,O  15)    145.4788         0.001502   
    112. D(O   6,H  16,H   1,C   0)    -44.0967         0.001502   
    113. D(H   2,H  16,O  15,H   1)     22.9395         0.412024   
    114. D(H   2,H  16,H   1,O  15)   -140.2200         0.001502   
    115. D(H   2,H  16,H   1,C   0)     30.2045         0.001502   
    116. D(O  15,H  16,H   1,C   0)    170.4246         0.001502   
    -----------------------------------------------------------------

Number of atoms                         .... 17
Number of degrees of freedom            .... 116

         *************************************************************
         *                GEOMETRY OPTIMIZATION CYCLE   1            *
         *************************************************************
---------------------------------
CARTESIAN COORDINATES (ANGSTROEM)
---------------------------------
  C      0.467708   -1.164427    0.819310
  H      0.952516   -1.090625   -0.180455
  H      0.964043   -0.433125    1.494253
  H      0.639765   -2.177246    1.233580
  N     -0.954927   -0.876608    0.702476
  O     -1.759323   -1.665476    1.178441
  O     -1.308988    0.137998    0.121795
  C      0.668683    2.711529   -3.769351
  O      1.496040    3.291756   -3.033739
  O      1.003053    1.921414   -4.675954
  C     -0.800007    3.007894   -3.577274
  H     -1.433230    2.290645   -4.112557
  H     -1.040875    4.011944   -3.947987
  H     -1.073062    2.974175   -2.515898
  H      1.798140    1.465211   -1.855494
  O      1.232454    0.800074   -1.441013
  H      0.638752    1.302667   -0.875581

----------------------------
CARTESIAN COORDINATES (A.U.)
----------------------------
  NO LB      ZA    FRAG     MASS         X           Y           Z
   0 C     6.0000    0    12.011    0.883839   -2.200447    1.548272
   1 H     1.0000    0     1.008    1.799994   -2.060982   -0.341010
   2 H     1.0000    0     1.008    1.821777   -0.818487    2.823729
   3 H     1.0000    0     1.008    1.208981   -4.114398    2.331128
   4 N     7.0000    0    14.007   -1.804550   -1.656549    1.327487
   5 O     8.0000    0    15.999   -3.324638   -3.147294    2.226930
   6 O     8.0000    0    15.999   -2.473629    0.260779    0.230160
   7 C     6.0000    0    12.011    1.263627    5.124048   -7.123041
   8 O     8.0000    0    15.999    2.827105    6.220517   -5.732936
   9 O     8.0000    0    15.999    1.895496    3.630947   -8.836273
  10 C     6.0000    0    12.011   -1.511795    5.684096   -6.760069
  11 H     1.0000    0     1.008   -2.708412    4.328692   -7.771607
  12 H     1.0000    0     1.008   -1.966968    7.581476   -7.460615
  13 H     1.0000    0     1.008   -2.027794    5.620377   -4.754358
  14 H     1.0000    0     1.008    3.397992    2.768847   -3.506375
  15 O     8.0000    0    15.999    2.329001    1.511921   -2.723120
  16 H     1.0000    0     1.008    1.207066    2.461683   -1.654609

--------------------------------
INTERNAL COORDINATES (ANGSTROEM)
--------------------------------
 C      0   0   0     0.000000000000     0.00000000     0.00000000
 H      1   0   0     1.113559754217     0.00000000     0.00000000
 H      1   2   0     1.112069673821   107.87902932     0.00000000
 H      1   2   3     1.107711974037   109.19248008   243.15453287
 N      1   2   3     1.456152060014   109.88971570   120.87169321
 O      5   1   2     1.223073336399   118.93618372   128.63899193
 O      5   1   2     1.221464260999   119.04659459   309.31451047
 C      7   5   1     5.067076209210   132.36226815    32.22460243
 O      8   7   5     1.249922931303    92.41700987   278.92051775
 O      8   7   5     1.248204874447   109.92698415    45.39403840
 C      8   7   5     1.510555007987    67.82224401   158.98098286
 H     11   8   7     1.096332737652   111.78559923   272.84437908
 H     11   8   7     1.097069389278   110.49119830   152.69466654
 H     11   8   7     1.096455964109   111.05024837    33.50865082
 H      9   8   7     2.194491856882    91.18792738    38.45906029
 O     15   9   8     0.966540676334   136.25727151   312.77488921
 H     16  15   9     0.961662519603   104.70333646   305.42712744

---------------------------
INTERNAL COORDINATES (A.U.)
---------------------------
 C      0   0   0     0.000000000000     0.00000000     0.00000000
 H      1   0   0     2.104322969226     0.00000000     0.00000000
 H      1   2   0     2.101507125360   107.87902932     0.00000000
 H      1   2   3     2.093272266196   109.19248008   243.15453287
 N      1   2   3     2.751728602773   109.88971570   120.87169321
 O      5   1   2     2.311273647496   118.93618372   128.63899193
 O      5   1   2     2.308232935661   119.04659459   309.31451047
 C      7   5   1     9.575386335115   132.36226815    32.22460243
 O      8   7   5     2.362012028671    92.41700987   278.92051775
 O      8   7   5     2.358765371731   109.92698415    45.39403840
 C      8   7   5     2.854535275319    67.82224401   158.98098286
 H     11   8   7     2.071768625814   111.78559923   272.84437908
 H     11   8   7     2.073160695643   110.49119830   152.69466654
 H     11   8   7     2.072001490070   111.05024837    33.50865082
 H      9   8   7     4.146988612628    91.18792738    38.45906029
 O     15   9   8     1.826497175566   136.25727151   312.77488921
 H     16  15   9     1.817278795307   104.70333646   305.42712744

---------------------
BASIS SET INFORMATION
---------------------
There are 4 groups of distinct atoms

 Group   1 Type C   : 11s6p2d1f contracted to 5s3p2d1f pattern {62111/411/11/1}
 Group   2 Type H   : 5s1p contracted to 3s1p pattern {311/1}
 Group   3 Type N   : 11s6p2d1f contracted to 5s3p2d1f pattern {62111/411/11/1}
 Group   4 Type O   : 11s6p2d1f contracted to 5s3p2d1f pattern {62111/411/11/1}

Atom   0C    basis set group =>   1
Atom   1H    basis set group =>   2
Atom   2H    basis set group =>   2
Atom   3H    basis set group =>   2
Atom   4N    basis set group =>   3
Atom   5O    basis set group =>   4
Atom   6O    basis set group =>   4
Atom   7C    basis set group =>   1
Atom   8O    basis set group =>   4
Atom   9O    basis set group =>   4
Atom  10C    basis set group =>   1
Atom  11H    basis set group =>   2
Atom  12H    basis set group =>   2
Atom  13H    basis set group =>   2
Atom  14H    basis set group =>   2
Atom  15O    basis set group =>   4
Atom  16H    basis set group =>   2
---------------------------------
AUXILIARY/J BASIS SET INFORMATION
---------------------------------
There are 4 groups of distinct atoms

 Group   1 Type C   : 12s5p4d2f1g contracted to 6s4p3d1f1g pattern {711111/2111/211/2/1}
 Group   2 Type H   : 5s2p1d contracted to 3s1p1d pattern {311/2/1}
 Group   3 Type N   : 12s5p4d2f1g contracted to 6s4p3d1f1g pattern {711111/2111/211/2/1}
 Group   4 Type O   : 12s5p4d2f1g contracted to 6s4p3d1f1g pattern {711111/2111/211/2/1}

Atom   0C    basis set group =>   1
Atom   1H    basis set group =>   2
Atom   2H    basis set group =>   2
Atom   3H    basis set group =>   2
Atom   4N    basis set group =>   3
Atom   5O    basis set group =>   4
Atom   6O    basis set group =>   4
Atom   7C    basis set group =>   1
Atom   8O    basis set group =>   4
Atom   9O    basis set group =>   4
Atom  10C    basis set group =>   1
Atom  11H    basis set group =>   2
Atom  12H    basis set group =>   2
Atom  13H    basis set group =>   2
Atom  14H    basis set group =>   2
Atom  15O    basis set group =>   4
Atom  16H    basis set group =>   2


           ************************************************************
           *        Program running with 102 parallel MPI-processes   *
           *              working on a common directory               *
           ************************************************************
------------------------------------------------------------------------------
                           ORCA GTO INTEGRAL CALCULATION
                           -- RI-GTO INTEGRALS CHOSEN --
------------------------------------------------------------------------------
------------------------------------------------------------------------------
                   ___                                                        
                  /   \      - P O W E R E D   B Y -                         
                 /     \                                                     
                 |  |  |   _    _      __       _____    __    __             
                 |  |  |  | |  | |    /  \     |  _  \  |  |  /  |          
                  \  \/   | |  | |   /    \    | | | |  |  | /  /          
                 / \  \   | |__| |  /  /\  \   | |_| |  |  |/  /          
                |  |  |   |  __  | /  /__\  \  |    /   |      \           
                |  |  |   | |  | | |   __   |  |    \   |  |\   \          
                \     /   | |  | | |  |  |  |  | |\  \  |  | \   \       
                 \___/    |_|  |_| |__|  |__|  |_| \__\ |__|  \__/        
                                                                              
                      - O R C A' S   B I G   F R I E N D -                    
                                      &                                       
                       - I N T E G R A L  F E E D E R -                       
                                                                              
 v1 FN, 2020, v2 2021                                                         
------------------------------------------------------------------------------


Reading SHARK input file /home/rudenko/mop_saddle_orca_4_serv/for_orca/ch3no2_ch3coo_new/orca/orca_start/start.SHARKINP.tmp ... ok
----------------------
SHARK INTEGRAL PACKAGE
----------------------

Number of atoms                             ...     17
Number of basis functions                   ...    327
Number of shells                            ...    131
Maximum angular momentum                    ...      3
Integral batch strategy                     ... SHARK/LIBINT Hybrid
RI-J (if used) integral strategy            ... SPLIT-RIJ (Revised 2003 algorithm where possible)
Printlevel                                  ...      1
Contraction scheme used                     ... SEGMENTED contraction
Coulomb Range Separation                    ... NOT USED
Exchange Range Separation                   ... NOT USED
Finite Nucleus Model                        ... NOT USED
Auxiliary Coulomb fitting basis             ... AVAILABLE
   # of basis functions in Aux-J            ...    529
   # of shells in Aux-J                     ...    175
   Maximum angular momentum in Aux-J        ...      4
Auxiliary J/K fitting basis                 ... NOT available
Auxiliary Correlation fitting basis         ... NOT available
Auxiliary 'external' fitting basis          ... NOT available
Integral threshold                          ...     2.500000e-11
Primitive cut-off                           ...     2.500000e-12
Primitive pair pre-selection threshold      ...     2.500000e-12

Calculating pre-screening integrals         ... done (  0.1 sec) Dimension = 131
Organizing shell pair data                  ... done (  0.2 sec)
Shell pair information
Total number of shell pairs                 ...      8646
Shell pairs after pre-screening             ...      6501
Total number of primitive shell pairs       ...     26328
Primitive shell pairs kept                  ...     14091
          la=0 lb=0:   1811 shell pairs
          la=1 lb=0:   1910 shell pairs
          la=1 lb=1:    519 shell pairs
          la=2 lb=0:    888 shell pairs
          la=2 lb=1:    471 shell pairs
          la=2 lb=2:    114 shell pairs
          la=3 lb=0:    424 shell pairs
          la=3 lb=1:    233 shell pairs
          la=3 lb=2:    103 shell pairs
          la=3 lb=3:     28 shell pairs

Calculating one electron integrals          ... done (  0.0 sec)
Calculating RI/J V-Matrix + Cholesky decomp.... done (  0.0 sec)
Calculating Nuclear repulsion               ... done (  0.0 sec) ENN=    433.403469447822 Eh

SHARK setup successfully completed in   0.5 seconds

Maximum memory used throughout the entire GTOINT-calculation: 19.8 MB


           ************************************************************
           *        Program running with 102 parallel MPI-processes   *
           *              working on a common directory               *
           ************************************************************
-------------------------------------------------------------------------------
                                 ORCA SCF
-------------------------------------------------------------------------------

------------
SCF SETTINGS
------------
Hamiltonian:
 Density Functional     Method          .... DFT(GTOs)
 Exchange Functional    Exchange        .... B88
   X-Alpha parameter    XAlpha          ....  0.666667
   Becke's b parameter  XBeta           ....  0.004200
 Correlation Functional Correlation     .... LYP
 LDA part of GGA corr.  LDAOpt          .... VWN-5
 Gradients option       PostSCFGGA      .... off
 Hybrid DFT is turned on
   Fraction HF Exchange ScalHFX         ....  0.200000
   Scaling of DF-GGA-X  ScalDFX         ....  0.720000
   Scaling of DF-GGA-C  ScalDFC         ....  0.810000
   Scaling of DF-LDA-C  ScalLDAC        ....  1.000000
   Perturbative correction              ....  0.000000
   Density functional embedding theory  .... OFF
   NL short-range parameter             ....  4.800000
 RI-approximation to the Coulomb term is turned on
   Number of AuxJ basis functions       .... 529
   RIJ-COSX (HFX calculated with COS-X)).... on


General Settings:
 Integral files         IntName         .... /home/rudenko/mop_saddle_orca_4_serv/for_orca/ch3no2_ch3coo_new/orca/orca_start/start
 Hartree-Fock type      HFTyp           .... RHF
 Total Charge           Charge          ....   -1
 Multiplicity           Mult            ....    1
 Number of Electrons    NEL             ....   74
 Basis Dimension        Dim             ....  327
 Nuclear Repulsion      ENuc            ....    433.4034694478 Eh

Convergence Acceleration:
 DIIS                   CNVDIIS         .... on
   Start iteration      DIISMaxIt       ....    12
   Startup error        DIISStart       ....  0.200000
   # of expansion vecs  DIISMaxEq       ....     5
   Bias factor          DIISBfac        ....   1.050
   Max. coefficient     DIISMaxC        ....  10.000
 Trust-Rad. Augm. Hess. CNVTRAH         .... auto
   Auto Start mean grad. ratio tolernc. ....  1.125000
   Auto Start start iteration           ....    20
   Auto Start num. interpolation iter.  ....    10
   Max. Number of Micro iterations      ....    16
   Max. Number of Macro iterations      .... Maxiter - #DIIS iter
   Number of Davidson start vectors     ....     2
   Converg. threshold I  (grad. norm)   ....   1.000e-05
   Converg. threshold II (energy diff.) ....   1.000e-08
   Grad. Scal. Fac. for Micro threshold ....   0.100
   Minimum threshold for Micro iter.    ....   0.010
   NR start threshold (gradient norm)   ....   0.001
   Initial trust radius                 ....   0.400
   Minimum AH scaling param. (alpha)    ....   1.000
   Maximum AH scaling param. (alpha)    .... 1000.000
   Orbital update algorithm             .... Taylor
   White noise on init. David. guess    .... on
   Maximum white noise                  ....   0.010
   Quad. conv. algorithm                .... NR
 SOSCF                  CNVSOSCF        .... on
   Start iteration      SOSCFMaxIt      ....   150
   Startup grad/error   SOSCFStart      ....  0.003300
 Level Shifting         CNVShift        .... on
   Level shift para.    LevelShift      ....    0.2500
   Turn off err/grad.   ShiftErr        ....    0.0010
 Zerner damping         CNVZerner       .... off
 Static damping         CNVDamp         .... on
   Fraction old density DampFac         ....    0.7000
   Max. Damping (<1)    DampMax         ....    0.9800
   Min. Damping (>=0)   DampMin         ....    0.0000
   Turn off err/grad.   DampErr         ....    0.1000
 Fernandez-Rico         CNVRico         .... off

SCF Procedure:
 Maximum # iterations   MaxIter         ....   125
 SCF integral mode      SCFMode         .... Direct
   Integral package                     .... SHARK and LIBINT hybrid scheme
 Reset frequency        DirectResetFreq ....    20
 Integral Threshold     Thresh          ....  2.500e-11 Eh
 Primitive CutOff       TCut            ....  2.500e-12 Eh

Convergence Tolerance:
 Convergence Check Mode ConvCheckMode   .... Total+1el-Energy
 Convergence forced     ConvForced      .... 0
 Energy Change          TolE            ....  1.000e-08 Eh
 1-El. energy change                    ....  1.000e-05 Eh
 Orbital Gradient       TolG            ....  1.000e-05
 Orbital Rotation angle TolX            ....  1.000e-05
 DIIS Error             TolErr          ....  5.000e-07


Diagonalization of the overlap matrix:
Smallest eigenvalue                        ... 4.727e-04
Time for diagonalization                   ...    0.042 sec
Threshold for overlap eigenvalues          ... 1.000e-08
Number of eigenvalues below threshold      ... 0
Time for construction of square roots      ...    0.055 sec
Total time needed                          ...    0.100 sec

Time for model grid setup =    0.124 sec

------------------------------
INITIAL GUESS: MODEL POTENTIAL
------------------------------
Loading Hartree-Fock densities                     ... done
Calculating cut-offs                               ... done
Initializing the effective Hamiltonian             ... done
Setting up the integral package (SHARK)            ... done
Starting the Coulomb interaction                   ... done (   0.0 sec)
Reading the grid                                   ... done
Mapping shells                                     ... done
Starting the XC term evaluation                    ... done (   0.0 sec)
  promolecular density results
     # of electrons  =     72.994348886
     EX              =    -65.275681439
     EC              =     -2.532800598
     EX+EC           =    -67.808482036
Transforming the Hamiltonian                       ... done (   0.0 sec)
Diagonalizing the Hamiltonian                      ... done (   0.0 sec)
Back transforming the eigenvectors                 ... done (   0.0 sec)
Now organizing SCF variables                       ... done
                      ------------------
                      INITIAL GUESS DONE (   0.3 sec)
                      ------------------
-------------------
DFT GRID GENERATION
-------------------

General Integration Accuracy     IntAcc      ... 4.388
Radial Grid Type                 RadialGrid  ... OptM3 with GC (2021)
Angular Grid (max. ang.)         AngularGrid ... 4 (Lebedev-302)
Angular grid pruning method      GridPruning ... 4 (adaptive)
Weight generation scheme         WeightScheme... Becke
Basis function cutoff            BFCut       ... 1.0000e-11
Integration weight cutoff        WCut        ... 1.0000e-14
Angular grids for H and He will be reduced by one unit
Partially contracted basis set               ... off
Rotationally invariant grid construction     ... off

Total number of grid points                  ...    80739
Total number of batches                      ...     1271
Average number of points per batch           ...       63
Average number of grid points per atom       ...     4749
Time for grid setup =    0.660 sec

--------------------
COSX GRID GENERATION
--------------------

GRIDX 1
-------
General Integration Accuracy     IntAcc      ... 3.816
Radial Grid Type                 RadialGrid  ... OptM3 with GC (2021)
Angular Grid (max. ang.)         AngularGrid ... 1 (Lebedev-50)
Angular grid pruning method      GridPruning ... 4 (adaptive)
Weight generation scheme         WeightScheme... Becke
Basis function cutoff            BFCut       ... 1.0000e-11
Integration weight cutoff        WCut        ... 1.0000e-14
Angular grids for H and He will be reduced by one unit
Partially contracted basis set               ... on
Rotationally invariant grid construction     ... off

Total number of grid points                  ...    10301
Total number of batches                      ...      170
Average number of points per batch           ...       60
Average number of grid points per atom       ...      606
UseSFitting                                  ... on

GRIDX 2
-------
General Integration Accuracy     IntAcc      ... 4.020
Radial Grid Type                 RadialGrid  ... OptM3 with GC (2021)
Angular Grid (max. ang.)         AngularGrid ... 2 (Lebedev-110)
Angular grid pruning method      GridPruning ... 4 (adaptive)
Weight generation scheme         WeightScheme... Becke
Basis function cutoff            BFCut       ... 1.0000e-11
Integration weight cutoff        WCut        ... 1.0000e-14
Angular grids for H and He will be reduced by one unit
Partially contracted basis set               ... on
Rotationally invariant grid construction     ... off

Total number of grid points                  ...    22652
Total number of batches                      ...      364
Average number of points per batch           ...       62
Average number of grid points per atom       ...     1332
UseSFitting                                  ... on

GRIDX 3
-------
General Integration Accuracy     IntAcc      ... 4.338
Radial Grid Type                 RadialGrid  ... OptM3 with GC (2021)
Angular Grid (max. ang.)         AngularGrid ... 3 (Lebedev-194)
Angular grid pruning method      GridPruning ... 4 (adaptive)
Weight generation scheme         WeightScheme... Becke
Basis function cutoff            BFCut       ... 1.0000e-11
Integration weight cutoff        WCut        ... 1.0000e-14
Angular grids for H and He will be reduced by one unit
Partially contracted basis set               ... on
Rotationally invariant grid construction     ... off

Total number of grid points                  ...    49889
Total number of batches                      ...      789
Average number of points per batch           ...       63
Average number of grid points per atom       ...     2935
UseSFitting                                  ... on

Time for X-Grid setup             =    0.799 sec


--------------------
CPCM SOLVATION MODEL
--------------------
CPCM parameters:
  Epsilon                                         ...      78.4000
  Refrac                                          ...       1.3300
  Rsolv                                           ...       1.3000
  Surface type                                    ... GAUSSIAN VDW
  Epsilon function type                           ...         CPCM
Radii:
 Radius for C  used is    3.8550 Bohr (=   2.0400 Ang.)
 Radius for H  used is    2.4944 Bohr (=   1.3200 Ang.)
 Radius for N  used is    3.5149 Bohr (=   1.8600 Ang.)
 Radius for O  used is    3.4469 Bohr (=   1.8240 Ang.)
Calculating surface                               ...        done! (  0.0s)
GEPOL surface points                              ...         1095
GEPOL Volume                                      ...    1163.1804
GEPOL Surface-area                                ...     732.4886
Calculating surface distance matrix               ...        done! (  0.0s)
Performing Cholesky decomposition & store         ...        done! (  0.3s)
Overall time for CPCM initialization              ...                 0.3s
--------------
SCF ITERATIONS
--------------
ITER       Energy         Delta-E        Max-DP      RMS-DP      [F,P]     Damp
               ***  Starting incremental Fock matrix formation  ***
  0   -549.5403503647   0.000000000000 0.20558826  0.00174744  0.3323674 0.7000
  1   -549.7956461352  -0.255295770541 0.23002123  0.00149616  0.1354784 0.7000
                               ***Turning on DIIS***
  2   -549.8796378708  -0.083991735589 0.32775644  0.00223226  0.0457220 0.0000
  3   -550.0288247528  -0.149186881972 0.20572024  0.00116940  0.0807592 0.0000
  4   -550.0560917346  -0.027266981787 0.08749742  0.00048307  0.0218107 0.0000
                      *** Initiating the SOSCF procedure ***
                           *** Shutting down DIIS ***
                      *** Re-Reading the Fockian *** 
                      *** Removing any level shift *** 
ITER      Energy       Delta-E        Grad      Rot      Max-DP    RMS-DP
  5   -550.05792842  -0.0018366843  0.000986  0.000986  0.032413  0.000176
               *** Restarting incremental Fock matrix formation ***
  6   -550.05798749  -0.0000590726  0.000676  0.001432  0.024376  0.000132
  7   -550.05797565   0.0000118394  0.001626  0.001274  0.000899  0.000015
  8   -550.05800046  -0.0000248075  0.000141  0.000407  0.002095  0.000012
  9   -550.05799980   0.0000006641  0.000271  0.000370  0.000768  0.000005
 10   -550.05800075  -0.0000009497  0.000072  0.000191  0.000643  0.000004
 11   -550.05800062   0.0000001284  0.000106  0.000117  0.000386  0.000002
 12   -550.05800079  -0.0000001763  0.000007  0.000015  0.000073  0.000001
 13   -550.05800079   0.0000000040  0.000011  0.000013  0.000036  0.000000
 14   -550.05800079  -0.0000000027  0.000003  0.000007  0.000021  0.000000
 15   -550.05800080  -0.0000000038  0.000004  0.000004  0.000010  0.000000
                  ***Gradient check signals convergence***
              ***Rediagonalizing the Fockian in SOSCF/NRSCF***

               *****************************************************
               *                     SUCCESS                       *
               *           SCF CONVERGED AFTER  16 CYCLES          *
               *****************************************************

Old exchange energy                            =    -13.248262585 Eh
New exchange energy                            =    -13.248260685 Eh
Exchange energy change after final integration =      0.000001901 Eh
Total energy after final integration           =   -550.057998895 Eh
Final COS-X integration done in                =     0.481 sec

----------------
TOTAL SCF ENERGY
----------------

Total Energy       :         -550.05799890 Eh          -14967.83910 eV

Components:
Nuclear Repulsion  :          433.40346945 Eh           11793.50797 eV
Electronic Energy  :         -983.46146834 Eh          -26761.34707 eV
One Electron Energy:        -1625.24750628 Eh          -44225.23301 eV
Two Electron Energy:          641.78603794 Eh           17463.88594 eV
Max COSX asymmetry :            0.00000100 Eh               0.00003 eV
CPCM Dielectric    :           -0.11982547 Eh              -3.26062 eV

Virial components:
Potential Energy   :        -1098.02182991 Eh          -29878.69300 eV
Kinetic Energy     :          547.96383101 Eh           14910.85389 eV
Virial Ratio       :            2.00382173


DFT components:
N(Alpha)           :       37.000024246111 electrons
N(Beta)            :       37.000024246111 electrons
N(Total)           :       74.000048492222 electrons
E(X)               :      -52.816131607176 Eh       
E(C)               :       -3.028024225237 Eh       
E(XC)              :      -55.844155832413 Eh       
DFET-embed. en.    :        0.000000000000 Eh       
CPCM Solvation Model Properties:
Surface-charge          :            0.97489323
Charge-correction       :           -0.00328525 Eh              -0.08940 eV
Free-energy (cav+disp)  :  This term is not implemented in the current solvation scheme

---------------
SCF CONVERGENCE
---------------

  Last Energy change         ...   -4.2724e-10  Tolerance :   1.0000e-08
  Last MAX-Density change    ...    2.1094e-15  Tolerance :   1.0000e-07
  Last RMS-Density change    ...    2.1113e-17  Tolerance :   5.0000e-09
  Last Orbital Gradient      ...    1.4787e-07  Tolerance :   1.0000e-05
  Last Orbital Rotation      ...    3.4833e-07  Tolerance :   1.0000e-05

             **** THE GBW FILE WAS UPDATED (/home/rudenko/mop_saddle_orca_4_serv/for_orca/ch3no2_ch3coo_new/orca/orca_start/start.gbw) ****
             **** DENSITY /home/rudenko/mop_saddle_orca_4_serv/for_orca/ch3no2_ch3coo_new/orca/orca_start/start.scfp WAS UPDATED ****
             **** ENERGY FILE WAS UPDATED (/home/rudenko/mop_saddle_orca_4_serv/for_orca/ch3no2_ch3coo_new/orca/orca_start/start.en.tmp) ****
             **** THE GBW FILE WAS UPDATED (/home/rudenko/mop_saddle_orca_4_serv/for_orca/ch3no2_ch3coo_new/orca/orca_start/start.gbw) ****
             **** DENSITY /home/rudenko/mop_saddle_orca_4_serv/for_orca/ch3no2_ch3coo_new/orca/orca_start/start.scfp WAS UPDATED ****
----------------
ORBITAL ENERGIES
----------------

  NO   OCC          E(Eh)            E(eV) 
   0   2.0000     -19.168852      -521.6110 
   1   2.0000     -19.168773      -521.6088 
   2   2.0000     -19.110282      -520.0172 
   3   2.0000     -19.044633      -518.2308 
   4   2.0000     -19.043642      -518.2039 
   5   2.0000     -14.560006      -396.1979 
   6   2.0000     -10.234187      -278.4864 
   7   2.0000     -10.220416      -278.1117 
   8   2.0000     -10.143194      -276.0103 
   9   2.0000      -1.244361       -33.8608 
  10   2.0000      -1.064900       -28.9774 
  11   2.0000      -1.014623       -27.6093 
  12   2.0000      -0.996042       -27.1037 
  13   2.0000      -0.917105       -24.9557 
  14   2.0000      -0.819168       -22.2907 
  15   2.0000      -0.702063       -19.1041 
  16   2.0000      -0.622232       -16.9318 
  17   2.0000      -0.555854       -15.1256 
  18   2.0000      -0.547178       -14.8895 
  19   2.0000      -0.533417       -14.5150 
  20   2.0000      -0.516588       -14.0571 
  21   2.0000      -0.484654       -13.1881 
  22   2.0000      -0.426622       -11.6090 
  23   2.0000      -0.422218       -11.4891 
  24   2.0000      -0.415409       -11.3039 
  25   2.0000      -0.412187       -11.2162 
  26   2.0000      -0.411817       -11.2061 
  27   2.0000      -0.378930       -10.3112 
  28   2.0000      -0.362240        -9.8571 
  29   2.0000      -0.343137        -9.3372 
  30   2.0000      -0.329899        -8.9770 
  31   2.0000      -0.329090        -8.9550 
  32   2.0000      -0.307724        -8.3736 
  33   2.0000      -0.300516        -8.1774 
  34   2.0000      -0.241150        -6.5620 
  35   2.0000      -0.234610        -6.3840 
  36   2.0000      -0.215656        -5.8683 
  37   0.0000      -0.083505        -2.2723 
  38   0.0000       0.037895         1.0312 
  39   0.0000       0.063350         1.7238 
  40   0.0000       0.068977         1.8769 
  41   0.0000       0.096228         2.6185 
  42   0.0000       0.102563         2.7909 
  43   0.0000       0.111234         3.0268 
  44   0.0000       0.114543         3.1169 
  45   0.0000       0.132712         3.6113 
  46   0.0000       0.136657         3.7186 
  47   0.0000       0.163027         4.4362 
  48   0.0000       0.170522         4.6401 
  49   0.0000       0.176110         4.7922 
  50   0.0000       0.197213         5.3664 
  51   0.0000       0.203276         5.5314 
  52   0.0000       0.211218         5.7475 
  53   0.0000       0.224765         6.1162 
  54   0.0000       0.244035         6.6405 
  55   0.0000       0.256197         6.9715 
  56   0.0000       0.285928         7.7805 
  57   0.0000       0.312113         8.4930 
  58   0.0000       0.316829         8.6213 
  59   0.0000       0.322738         8.7822 
  60   0.0000       0.343962         9.3597 
  61   0.0000       0.351168         9.5558 
  62   0.0000       0.367010         9.9868 
  63   0.0000       0.370629        10.0853 
  64   0.0000       0.387293        10.5388 
  65   0.0000       0.403626        10.9832 
  66   0.0000       0.411445        11.1960 
  67   0.0000       0.420990        11.4557 
  68   0.0000       0.422119        11.4864 
  69   0.0000       0.435466        11.8496 
  70   0.0000       0.440414        11.9843 
  71   0.0000       0.452290        12.3074 
  72   0.0000       0.461286        12.5522 
  73   0.0000       0.464364        12.6360 
  74   0.0000       0.478492        13.0204 
  75   0.0000       0.486922        13.2498 
  76   0.0000       0.494741        13.4626 
  77   0.0000       0.509173        13.8553 
  78   0.0000       0.518710        14.1148 
  79   0.0000       0.536606        14.6018 
  80   0.0000       0.547262        14.8918 
  81   0.0000       0.556086        15.1319 
  82   0.0000       0.563474        15.3329 
  83   0.0000       0.574496        15.6328 
  84   0.0000       0.577027        15.7017 
  85   0.0000       0.596064        16.2197 
  86   0.0000       0.609266        16.5790 
  87   0.0000       0.611250        16.6330 
  88   0.0000       0.641959        17.4686 
  89   0.0000       0.652674        17.7602 
  90   0.0000       0.661764        18.0075 
  91   0.0000       0.711305        19.3556 
  92   0.0000       0.716890        19.5076 
  93   0.0000       0.742864        20.2144 
  94   0.0000       0.757674        20.6174 
  95   0.0000       0.798085        21.7170 
  96   0.0000       0.837928        22.8012 
  97   0.0000       0.840968        22.8839 
  98   0.0000       0.844810        22.9885 
  99   0.0000       0.876161        23.8416 
 100   0.0000       0.896583        24.3973 
 101   0.0000       0.935209        25.4483 
 102   0.0000       0.950599        25.8671 
 103   0.0000       0.979041        26.6411 
 104   0.0000       0.989090        26.9145 
 105   0.0000       1.007233        27.4082 
 106   0.0000       1.063758        28.9463 
 107   0.0000       1.066709        29.0266 
 108   0.0000       1.099015        29.9057 
 109   0.0000       1.119964        30.4758 
 110   0.0000       1.133768        30.8514 
 111   0.0000       1.160949        31.5910 
 112   0.0000       1.227913        33.4132 
 113   0.0000       1.269238        34.5377 
 114   0.0000       1.277813        34.7711 
 115   0.0000       1.306080        35.5402 
 116   0.0000       1.329114        36.1670 
 117   0.0000       1.367421        37.2094 
 118   0.0000       1.385349        37.6973 
 119   0.0000       1.396828        38.0096 
 120   0.0000       1.431706        38.9587 
 121   0.0000       1.464189        39.8426 
 122   0.0000       1.475947        40.1626 
 123   0.0000       1.483156        40.3587 
 124   0.0000       1.505303        40.9614 
 125   0.0000       1.530154        41.6376 
 126   0.0000       1.541689        41.9515 
 127   0.0000       1.544631        42.0315 
 128   0.0000       1.549719        42.1700 
 129   0.0000       1.553425        42.2708 
 130   0.0000       1.578164        42.9440 
 131   0.0000       1.587656        43.2023 
 132   0.0000       1.594751        43.3954 
 133   0.0000       1.607291        43.7366 
 134   0.0000       1.628658        44.3180 
 135   0.0000       1.647447        44.8293 
 136   0.0000       1.666814        45.3563 
 137   0.0000       1.673775        45.5457 
 138   0.0000       1.704215        46.3740 
 139   0.0000       1.747607        47.5548 
 140   0.0000       1.761207        47.9249 
 141   0.0000       1.779210        48.4148 
 142   0.0000       1.794590        48.8333 
 143   0.0000       1.832618        49.8681 
 144   0.0000       1.883977        51.2656 
 145   0.0000       1.895894        51.5899 
 146   0.0000       1.907959        51.9182 
 147   0.0000       1.917899        52.1887 
 148   0.0000       1.937722        52.7281 
 149   0.0000       1.956364        53.2354 
 150   0.0000       1.981247        53.9125 
 151   0.0000       1.984918        54.0124 
 152   0.0000       2.016937        54.8836 
 153   0.0000       2.032833        55.3162 
 154   0.0000       2.074748        56.4568 
 155   0.0000       2.079513        56.5864 
 156   0.0000       2.082305        56.6624 
 157   0.0000       2.111108        57.4462 
 158   0.0000       2.123109        57.7727 
 159   0.0000       2.140037        58.2334 
 160   0.0000       2.165116        58.9158 
 161   0.0000       2.175018        59.1852 
 162   0.0000       2.196724        59.7759 
 163   0.0000       2.214016        60.2464 
 164   0.0000       2.223703        60.5100 
 165   0.0000       2.254701        61.3535 
 166   0.0000       2.267527        61.7026 
 167   0.0000       2.299001        62.5590 
 168   0.0000       2.308945        62.8296 
 169   0.0000       2.332323        63.4657 
 170   0.0000       2.356019        64.1105 
 171   0.0000       2.367030        64.4102 
 172   0.0000       2.374253        64.6067 
 173   0.0000       2.388179        64.9857 
 174   0.0000       2.408981        65.5517 
 175   0.0000       2.464360        67.0586 
 176   0.0000       2.473373        67.3039 
 177   0.0000       2.510681        68.3191 
 178   0.0000       2.526645        68.7535 
 179   0.0000       2.558925        69.6319 
 180   0.0000       2.564331        69.7790 
 181   0.0000       2.572413        69.9989 
 182   0.0000       2.593384        70.5696 
 183   0.0000       2.605641        70.9031 
 184   0.0000       2.648696        72.0747 
 185   0.0000       2.668016        72.6004 
 186   0.0000       2.686854        73.1130 
 187   0.0000       2.692426        73.2646 
 188   0.0000       2.722071        74.0713 
 189   0.0000       2.756173        74.9993 
 190   0.0000       2.763923        75.2102 
 191   0.0000       2.774859        75.5078 
 192   0.0000       2.790996        75.9469 
 193   0.0000       2.833050        77.0912 
 194   0.0000       2.859172        77.8020 
 195   0.0000       2.879727        78.3614 
 196   0.0000       2.919492        79.4434 
 197   0.0000       2.945920        80.1625 
 198   0.0000       2.961120        80.5762 
 199   0.0000       2.972487        80.8855 
 200   0.0000       2.993964        81.4699 
 201   0.0000       3.011570        81.9490 
 202   0.0000       3.022293        82.2408 
 203   0.0000       3.041130        82.7533 
 204   0.0000       3.045917        82.8836 
 205   0.0000       3.097622        84.2906 
 206   0.0000       3.153572        85.8131 
 207   0.0000       3.169114        86.2360 
 208   0.0000       3.172435        86.3263 
 209   0.0000       3.191996        86.8586 
 210   0.0000       3.218554        87.5813 
 211   0.0000       3.224220        87.7355 
 212   0.0000       3.230654        87.9106 
 213   0.0000       3.263160        88.7951 
 214   0.0000       3.293599        89.6234 
 215   0.0000       3.322344        90.4056 
 216   0.0000       3.370075        91.7044 
 217   0.0000       3.379606        91.9638 
 218   0.0000       3.418791        93.0300 
 219   0.0000       3.468649        94.3867 
 220   0.0000       3.483539        94.7919 
 221   0.0000       3.491324        95.0038 
 222   0.0000       3.499063        95.2144 
 223   0.0000       3.542224        96.3888 
 224   0.0000       3.594876        97.8215 
 225   0.0000       3.617210        98.4293 
 226   0.0000       3.680112       100.1409 
 227   0.0000       3.686465       100.3138 
 228   0.0000       3.709463       100.9396 
 229   0.0000       3.770003       102.5870 
 230   0.0000       3.784135       102.9716 
 231   0.0000       3.850019       104.7643 
 232   0.0000       3.929077       106.9156 
 233   0.0000       3.960166       107.7616 
 234   0.0000       3.968359       107.9845 
 235   0.0000       3.993254       108.6620 
 236   0.0000       4.045321       110.0788 
 237   0.0000       4.079025       110.9959 
 238   0.0000       4.086609       111.2023 
 239   0.0000       4.131699       112.4293 
 240   0.0000       4.273596       116.2905 
 241   0.0000       4.297335       116.9364 
 242   0.0000       4.307424       117.2110 
 243   0.0000       4.335258       117.9684 
 244   0.0000       4.382764       119.2611 
 245   0.0000       4.472069       121.6912 
 246   0.0000       4.534522       123.3906 
 247   0.0000       4.542372       123.6042 
 248   0.0000       4.572435       124.4223 
 249   0.0000       4.616821       125.6301 
 250   0.0000       4.690382       127.6318 
 251   0.0000       4.729450       128.6949 
 252   0.0000       4.742082       129.0386 
 253   0.0000       4.797019       130.5335 
 254   0.0000       4.898409       133.2925 
 255   0.0000       5.079997       138.2337 
 256   0.0000       5.086976       138.4236 
 257   0.0000       5.110383       139.0606 
 258   0.0000       5.117711       139.2600 
 259   0.0000       5.130814       139.6166 
 260   0.0000       5.134326       139.7121 
 261   0.0000       5.204062       141.6097 
 262   0.0000       5.217100       141.9645 
 263   0.0000       5.224471       142.1651 
 264   0.0000       5.233804       142.4191 
 265   0.0000       5.240986       142.6145 
 266   0.0000       5.264564       143.2561 
 267   0.0000       5.275409       143.5512 
 268   0.0000       5.335659       145.1906 
 269   0.0000       5.369224       146.1040 
 270   0.0000       5.396219       146.8386 
 271   0.0000       5.445984       148.1928 
 272   0.0000       5.482286       149.1806 
 273   0.0000       5.563898       151.4014 
 274   0.0000       5.577456       151.7703 
 275   0.0000       5.628803       153.1675 
 276   0.0000       5.632870       153.2782 
 277   0.0000       5.688355       154.7880 
 278   0.0000       5.693436       154.9263 
 279   0.0000       5.864359       159.5773 
 280   0.0000       5.932439       161.4299 
 281   0.0000       6.043882       164.4624 
 282   0.0000       6.082975       165.5262 
 283   0.0000       6.114304       166.3787 
 284   0.0000       6.203945       168.8179 
 285   0.0000       6.224118       169.3669 
 286   0.0000       6.234477       169.6488 
 287   0.0000       6.260565       170.3586 
 288   0.0000       6.322392       172.0410 
 289   0.0000       6.332363       172.3124 
 290   0.0000       6.348947       172.7636 
 291   0.0000       6.355372       172.9385 
 292   0.0000       6.362854       173.1421 
 293   0.0000       6.375475       173.4855 
 294   0.0000       6.407180       174.3482 
 295   0.0000       6.421637       174.7416 
 296   0.0000       6.444211       175.3559 
 297   0.0000       6.475309       176.2021 
 298   0.0000       6.484828       176.4611 
 299   0.0000       6.510063       177.1478 
 300   0.0000       6.651525       180.9972 
 301   0.0000       6.773957       184.3287 
 302   0.0000       6.831530       185.8954 
 303   0.0000       6.834818       185.9849 
 304   0.0000       6.852607       186.4689 
 305   0.0000       6.897952       187.7028 
 306   0.0000       6.913131       188.1159 
 307   0.0000       6.939804       188.8417 
 308   0.0000       6.985705       190.0907 
 309   0.0000       7.063172       192.1987 
 310   0.0000       7.089803       192.9233 
 311   0.0000       7.154200       194.6757 
 312   0.0000       7.174468       195.2272 
 313   0.0000       7.208319       196.1483 
 314   0.0000       7.212916       196.2734 
 315   0.0000       7.249458       197.2678 
 316   0.0000       7.282868       198.1769 
 317   0.0000       7.385289       200.9639 
 318   0.0000      22.283454       606.3636 
 319   0.0000      22.301764       606.8619 
 320   0.0000      23.510729       639.7595 
 321   0.0000      32.292454       878.7223 
 322   0.0000      43.371595      1180.2011 
 323   0.0000      43.810347      1192.1401 
 324   0.0000      43.877858      1193.9772 
 325   0.0000      43.899818      1194.5748 
 326   0.0000      43.938633      1195.6310 

                    ********************************
                    * MULLIKEN POPULATION ANALYSIS *
                    ********************************

-----------------------
MULLIKEN ATOMIC CHARGES
-----------------------
   0 C :   -0.297472
   1 H :    0.192278
   2 H :    0.184389
   3 H :    0.169645
   4 N :    0.439140
   5 O :   -0.351526
   6 O :   -0.350499
   7 C :    0.245230
   8 O :   -0.601388
   9 O :   -0.582055
  10 C :   -0.365105
  11 H :    0.091698
  12 H :    0.115165
  13 H :    0.105553
  14 H :    0.338962
  15 O :   -0.680190
  16 H :    0.346175
Sum of atomic charges:   -1.0000000

--------------------------------
MULLIKEN REDUCED ORBITAL CHARGES
--------------------------------
  0 C s       :     3.302974  s :     3.302974
      pz      :     1.112050  p :     2.937895
      px      :     0.728664
      py      :     1.097180
      dz2     :     0.007356  d :     0.051057
      dxz     :     0.012137
      dyz     :     0.006296
      dx2y2   :     0.014289
      dxy     :     0.010979
      f0      :     0.000728  f :     0.005547
      f+1     :     0.000989
      f-1     :     0.000179
      f+2     :     0.000965
      f-2     :     0.000152
      f+3     :     0.001270
      f-3     :     0.001264
  1 H s       :     0.785245  s :     0.785245
      pz      :     0.012445  p :     0.022477
      px      :     0.005640
      py      :     0.004392
  2 H s       :     0.794379  s :     0.794379
      pz      :     0.007824  p :     0.021232
      px      :     0.005655
      py      :     0.007753
  3 H s       :     0.809349  s :     0.809349
      pz      :     0.005558  p :     0.021006
      px      :     0.003260
      py      :     0.012188
  4 N s       :     3.309185  s :     3.309185
      pz      :     1.030000  p :     2.998361
      px      :     1.045613
      py      :     0.922747
      dz2     :     0.038420  d :     0.238719
      dxz     :     0.033165
      dyz     :     0.037210
      dx2y2   :     0.073792
      dxy     :     0.056133
      f0      :     0.000951  f :     0.014595
      f+1     :     0.001368
      f-1     :     0.001959
      f+2     :     0.002101
      f-2     :     0.002224
      f+3     :     0.002758
      f-3     :     0.003235
  5 O s       :     3.877415  s :     3.877415
      pz      :     1.418864  p :     4.429920
      px      :     1.553742
      py      :     1.457315
      dz2     :     0.005970  d :     0.040921
      dxz     :     0.008083
      dyz     :     0.006782
      dx2y2   :     0.007438
      dxy     :     0.012647
      f0      :     0.000257  f :     0.003270
      f+1     :     0.000356
      f-1     :     0.000311
      f+2     :     0.000254
      f-2     :     0.000782
      f+3     :     0.000683
      f-3     :     0.000627
  6 O s       :     3.884818  s :     3.884818
      pz      :     1.370918  p :     4.421600
      px      :     1.804377
      py      :     1.246304
      dz2     :     0.006879  d :     0.040814
      dxz     :     0.003668
      dyz     :     0.012256
      dx2y2   :     0.009686
      dxy     :     0.008324
      f0      :     0.000252  f :     0.003267
      f+1     :     0.000100
      f-1     :     0.000659
      f+2     :     0.000624
      f-2     :     0.000529
      f+3     :     0.000579
      f-3     :     0.000524
  7 C s       :     3.042585  s :     3.042585
      pz      :     0.765931  p :     2.473543
      px      :     0.937595
      py      :     0.770017
      dz2     :     0.060541  d :     0.212337
      dxz     :     0.044074
      dyz     :     0.029941
      dx2y2   :     0.038717
      dxy     :     0.039064
      f0      :     0.002829  f :     0.026305
      f+1     :     0.004009
      f-1     :     0.003411
      f+2     :     0.005270
      f-2     :     0.004189
      f+3     :     0.003425
      f-3     :     0.003173
  8 O s       :     3.769537  s :     3.769537
      pz      :     1.574268  p :     4.804470
      px      :     1.622231
      py      :     1.607971
      dz2     :     0.005191  d :     0.025735
      dxz     :     0.006211
      dyz     :     0.004289
      dx2y2   :     0.004539
      dxy     :     0.005506
      f0      :     0.000153  f :     0.001646
      f+1     :     0.000341
      f-1     :     0.000149
      f+2     :     0.000284
      f-2     :     0.000333
      f+3     :     0.000207
      f-3     :     0.000178
  9 O s       :     3.758144  s :     3.758144
      pz      :     1.492040  p :     4.796137
      px      :     1.802580
      py      :     1.501517
      dz2     :     0.007153  d :     0.026094
      dxz     :     0.004447
      dyz     :     0.007115
      dx2y2   :     0.003895
      dxy     :     0.003484
      f0      :     0.000267  f :     0.001680
      f+1     :     0.000176
      f-1     :     0.000368
      f+2     :     0.000311
      f-2     :     0.000307
      f+3     :     0.000126
      f-3     :     0.000124
 10 C s       :     3.240863  s :     3.240863
      pz      :     1.046143  p :     3.078690
      px      :     0.981251
      py      :     1.051296
      dz2     :     0.006893  d :     0.041763
      dxz     :     0.012851
      dyz     :     0.002634
      dx2y2   :     0.007340
      dxy     :     0.012045
      f0      :     0.001008  f :     0.003790
      f+1     :     0.000449
      f-1     :     0.000061
      f+2     :     0.000428
      f-2     :     0.000208
      f+3     :     0.000839
      f-3     :     0.000797
 11 H s       :     0.887012  s :     0.887012
      pz      :     0.006224  p :     0.021290
      px      :     0.007405
      py      :     0.007660
 12 H s       :     0.863422  s :     0.863422
      pz      :     0.005326  p :     0.021414
      px      :     0.005038
      py      :     0.011049
 13 H s       :     0.873170  s :     0.873170
      pz      :     0.011850  p :     0.021276
      px      :     0.005027
      py      :     0.004399
 14 H s       :     0.613008  s :     0.613008
      pz      :     0.014926  p :     0.048030
      px      :     0.016051
      py      :     0.017052
 15 O s       :     3.797709  s :     3.797709
      pz      :     1.681909  p :     4.862560
      px      :     1.573674
      py      :     1.606977
      dz2     :     0.001207  d :     0.018652
      dxz     :     0.002070
      dyz     :     0.006067
      dx2y2   :     0.001618
      dxy     :     0.007690
      f0      :     0.000267  f :     0.001269
      f+1     :     0.000176
      f-1     :     0.000016
      f+2     :     0.000062
      f-2     :     0.000599
      f+3     :     0.000099
      f-3     :     0.000049
 16 H s       :     0.606684  s :     0.606684
      pz      :     0.017738  p :     0.047141
      px      :     0.015788
      py      :     0.013615


                     *******************************
                     * LOEWDIN POPULATION ANALYSIS *
                     *******************************

----------------------
LOEWDIN ATOMIC CHARGES
----------------------
   0 C :   -0.265127
   1 H :    0.144624
   2 H :    0.150528
   3 H :    0.137968
   4 N :   -0.066367
   5 O :   -0.059213
   6 O :   -0.054708
   7 C :   -0.747882
   8 O :   -0.147021
   9 O :   -0.142069
  10 C :   -0.312775
  11 H :    0.115999
  12 H :    0.127475
  13 H :    0.120556
  14 H :    0.152420
  15 O :   -0.310860
  16 H :    0.156453

-------------------------------
LOEWDIN REDUCED ORBITAL CHARGES
-------------------------------
  0 C s       :     2.871267  s :     2.871267
      pz      :     1.116765  p :     3.097596
      px      :     0.872652
      py      :     1.108180
      dz2     :     0.037997  d :     0.260815
      dxz     :     0.059737
      dyz     :     0.030569
      dx2y2   :     0.078908
      dxy     :     0.053604
      f0      :     0.004078  f :     0.035450
      f+1     :     0.006566
      f-1     :     0.001301
      f+2     :     0.004460
      f-2     :     0.003010
      f+3     :     0.008161
      f-3     :     0.007874
  1 H s       :     0.790950  s :     0.790950
      pz      :     0.036564  p :     0.064426
      px      :     0.014907
      py      :     0.012955
  2 H s       :     0.788248  s :     0.788248
      pz      :     0.022620  p :     0.061224
      px      :     0.014983
      py      :     0.023620
  3 H s       :     0.801231  s :     0.801231
      pz      :     0.016654  p :     0.060802
      px      :     0.008740
      py      :     0.035408
  4 N s       :     2.942662  s :     2.942662
      pz      :     1.030561  p :     3.293376
      px      :     1.179103
      py      :     1.083711
      dz2     :     0.106629  d :     0.755838
      dxz     :     0.101858
      dyz     :     0.134830
      dx2y2   :     0.221132
      dxy     :     0.191389
      f0      :     0.005569  f :     0.074491
      f+1     :     0.007088
      f-1     :     0.005282
      f+2     :     0.011408
      f-2     :     0.011927
      f+3     :     0.015193
      f-3     :     0.018024
  5 O s       :     3.504921  s :     3.504921
      pz      :     1.400556  p :     4.445334
      px      :     1.563349
      py      :     1.481429
      dz2     :     0.012887  d :     0.097985
      dxz     :     0.017283
      dyz     :     0.016890
      dx2y2   :     0.019425
      dxy     :     0.031499
      f0      :     0.001034  f :     0.010973
      f+1     :     0.000995
      f-1     :     0.000994
      f+2     :     0.000935
      f-2     :     0.002643
      f+3     :     0.002158
      f-3     :     0.002213
  6 O s       :     3.502219  s :     3.502219
      pz      :     1.375338  p :     4.443035
      px      :     1.713811
      py      :     1.353885
      dz2     :     0.013392  d :     0.098391
      dxz     :     0.008463
      dyz     :     0.030782
      dx2y2   :     0.023513
      dxy     :     0.022240
      f0      :     0.001029  f :     0.011064
      f+1     :     0.000228
      f-1     :     0.001934
      f+2     :     0.002289
      f-2     :     0.001934
      f+3     :     0.001926
      f-3     :     0.001724
  7 C s       :     2.781873  s :     2.781873
      pz      :     0.890211  p :     2.764978
      px      :     1.023306
      py      :     0.851461
      dz2     :     0.239930  d :     1.032255
      dxz     :     0.218049
      dyz     :     0.172974
      dx2y2   :     0.216600
      dxy     :     0.184702
      f0      :     0.019019  f :     0.168776
      f+1     :     0.027862
      f-1     :     0.020161
      f+2     :     0.030597
      f-2     :     0.026916
      f+3     :     0.022462
      f-3     :     0.021760
  8 O s       :     3.423233  s :     3.423233
      pz      :     1.538149  p :     4.657407
      px      :     1.591151
      py      :     1.528107
      dz2     :     0.010392  d :     0.060961
      dxz     :     0.015440
      dyz     :     0.011558
      dx2y2   :     0.011971
      dxy     :     0.011600
      f0      :     0.000557  f :     0.005420
      f+1     :     0.000835
      f-1     :     0.000552
      f+2     :     0.000963
      f-2     :     0.001284
      f+3     :     0.000590
      f-3     :     0.000639
  9 O s       :     3.425066  s :     3.425066
      pz      :     1.494518  p :     4.651018
      px      :     1.673943
      py      :     1.482557
      dz2     :     0.012264  d :     0.060547
      dxz     :     0.011703
      dyz     :     0.019683
      dx2y2   :     0.007654
      dxy     :     0.009243
      f0      :     0.000625  f :     0.005438
      f+1     :     0.000445
      f-1     :     0.001374
      f+2     :     0.001083
      f-2     :     0.001221
      f+3     :     0.000336
      f-3     :     0.000354
 10 C s       :     2.848231  s :     2.848231
      pz      :     1.072271  p :     3.207496
      px      :     1.060715
      py      :     1.074510
      dz2     :     0.046806  d :     0.232877
      dxz     :     0.054283
      dyz     :     0.019716
      dx2y2   :     0.054011
      dxy     :     0.058061
      f0      :     0.004161  f :     0.024171
      f+1     :     0.003157
      f-1     :     0.000575
      f+2     :     0.003673
      f-2     :     0.003819
      f+3     :     0.004457
      f-3     :     0.004329
 11 H s       :     0.824178  s :     0.824178
      pz      :     0.018285  p :     0.059823
      px      :     0.019168
      py      :     0.022370
 12 H s       :     0.811703  s :     0.811703
      pz      :     0.015803  p :     0.060822
      px      :     0.013899
      py      :     0.031120
 13 H s       :     0.818980  s :     0.818980
      pz      :     0.033440  p :     0.060464
      px      :     0.013633
      py      :     0.013391
 14 H s       :     0.682047  s :     0.682047
      pz      :     0.047381  p :     0.165533
      px      :     0.052498
      py      :     0.065655
 15 O s       :     3.448796  s :     3.448796
      pz      :     1.646856  p :     4.830778
      px      :     1.560362
      py      :     1.623560
      dz2     :     0.001138  d :     0.028950
      dxz     :     0.005246
      dyz     :     0.009021
      dx2y2   :     0.000950
      dxy     :     0.012596
      f0      :     0.000506  f :     0.002335
      f+1     :     0.000101
      f-1     :     0.000071
      f+2     :     0.000029
      f-2     :     0.001013
      f+3     :     0.000404
      f-3     :     0.000211
 16 H s       :     0.680218  s :     0.680218
      pz      :     0.057004  p :     0.163329
      px      :     0.055290
      py      :     0.051034


                      *****************************
                      * MAYER POPULATION ANALYSIS *
                      *****************************

  NA   - Mulliken gross atomic population
  ZA   - Total nuclear charge
  QA   - Mulliken gross atomic charge
  VA   - Mayer's total valence
  BVA  - Mayer's bonded valence
  FA   - Mayer's free valence

  ATOM       NA         ZA         QA         VA         BVA        FA
  0 C      6.2975     6.0000    -0.2975     3.7742     3.7742     0.0000
  1 H      0.8077     1.0000     0.1923     0.9708     0.9708     0.0000
  2 H      0.8156     1.0000     0.1844     0.9594     0.9594    -0.0000
  3 H      0.8304     1.0000     0.1696     0.9656     0.9656     0.0000
  4 N      6.5609     7.0000     0.4391     4.1145     4.1145     0.0000
  5 O      8.3515     8.0000    -0.3515     1.8899     1.8899     0.0000
  6 O      8.3505     8.0000    -0.3505     1.8770     1.8770     0.0000
  7 C      5.7548     6.0000     0.2452     4.5907     4.5907    -0.0000
  8 O      8.6014     8.0000    -0.6014     1.7553     1.7553    -0.0000
  9 O      8.5821     8.0000    -0.5821     1.8059     1.8059    -0.0000
 10 C      6.3651     6.0000    -0.3651     3.6595     3.6595    -0.0000
 11 H      0.9083     1.0000     0.0917     0.9956     0.9956    -0.0000
 12 H      0.8848     1.0000     0.1152     0.9755     0.9755     0.0000
 13 H      0.8944     1.0000     0.1056     0.9857     0.9857    -0.0000
 14 H      0.6610     1.0000     0.3390     0.9322     0.9322     0.0000
 15 O      8.6802     8.0000    -0.6802     1.8142     1.8142    -0.0000
 16 H      0.6538     1.0000     0.3462     0.9048     0.9048     0.0000

  Mayer bond orders larger than 0.100000
B(  0-C ,  1-H ) :   0.9286 B(  0-C ,  2-H ) :   0.9343 B(  0-C ,  3-H ) :   0.9501 
B(  0-C ,  4-N ) :   0.8957 B(  4-N ,  5-O ) :   1.6132 B(  4-N ,  6-O ) :   1.5993 
B(  5-O ,  6-O ) :   0.2055 B(  7-C ,  8-O ) :   1.7489 B(  7-C ,  9-O ) :   1.8478 
B(  7-C , 10-C ) :   0.9324 B( 10-C , 11-H ) :   0.9669 B( 10-C , 12-H ) :   0.9493 
B( 10-C , 13-H ) :   0.9585 B( 14-H , 15-O ) :   0.8622 B( 15-O , 16-H ) :   0.8774 


-------
TIMINGS
-------

Total SCF time: 0 days 0 hours 0 min 17 sec 

Total time                  ....      17.761 sec
Sum of individual times     ....      16.582 sec  ( 93.4%)

Fock matrix formation       ....      12.642 sec  ( 71.2%)
  Split-RI-J                ....       2.103 sec  ( 16.6% of F)
  Chain of spheres X        ....       4.511 sec  ( 35.7% of F)
  XC integration            ....       1.723 sec  ( 13.6% of F)
    Basis function eval.    ....       0.121 sec  (  7.0% of XC)
    Density eval.           ....       0.217 sec  ( 12.6% of XC)
    XC-Functional eval.     ....       0.016 sec  (  0.9% of XC)
    XC-Potential eval.      ....       0.112 sec  (  6.5% of XC)
Diagonalization             ....       0.529 sec  (  3.0%)
Density matrix formation    ....       0.140 sec  (  0.8%)
Population analysis         ....       0.099 sec  (  0.6%)
Initial guess               ....       0.144 sec  (  0.8%)
[...]

Total number of grid points                  ...    50201
Total number of batches                      ...      793
Average number of points per batch           ...       63
Average number of grid points per atom       ...     2953
UseSFitting                                  ... on

Time for X-Grid setup             =    0.669 sec


--------------------
CPCM SOLVATION MODEL
--------------------
CPCM parameters:
  Epsilon                                         ...      78.4000
  Refrac                                          ...       1.3300
  Rsolv                                           ...       1.3000
  Surface type                                    ... GAUSSIAN VDW
  Epsilon function type                           ...         CPCM
Radii:
 Radius for C  used is    3.8550 Bohr (=   2.0400 Ang.)
 Radius for H  used is    2.4944 Bohr (=   1.3200 Ang.)
 Radius for N  used is    3.5149 Bohr (=   1.8600 Ang.)
 Radius for O  used is    3.4469 Bohr (=   1.8240 Ang.)
Calculating surface                               ...        done! (  0.0s)
GEPOL surface points                              ...         1090
GEPOL Volume                                      ...    1160.6713
GEPOL Surface-area                                ...     751.3948
Calculating surface distance matrix               ...        done! (  0.1s)
Performing Cholesky decomposition & store         ...        done! (  0.4s)
Overall time for CPCM initialization              ...                 0.5s
--------------
SCF ITERATIONS
--------------
ITER       Energy         Delta-E        Max-DP      RMS-DP      [F,P]     Damp
               ***  Starting incremental Fock matrix formation  ***
                      *** Initiating the SOSCF procedure ***
                      *** Re-Reading the Fockian *** 
                      *** Removing any level shift *** 
ITER      Energy       Delta-E        Grad      Rot      Max-DP    RMS-DP
  0   -550.07371320 -550.0737131964  0.000597  0.000597  0.001038  0.000024
               *** Restarting incremental Fock matrix formation ***
  1   -550.07374973  -0.0000365370  0.000235  0.000965  0.000519  0.000011
  2   -550.07375378  -0.0000040439  0.000131  0.000516  0.000322  0.000005
  3   -550.07375311   0.0000006680  0.000379  0.000436  0.000222  0.000003
  4   -550.07375402  -0.0000009154  0.000041  0.000094  0.000092  0.000002
  5   -550.07375397   0.0000000500  0.000047  0.000052  0.000057  0.000001
  6   -550.07375405  -0.0000000763  0.000008  0.000024  0.000021  0.000000
  7   -550.07375405   0.0000000012  0.000016  0.000016  0.000017  0.000000
                  ***Gradient check signals convergence***
              ***Rediagonalizing the Fockian in SOSCF/NRSCF***

               *****************************************************
               *                     SUCCESS                       *
               *           SCF CONVERGED AFTER   8 CYCLES          *
               *****************************************************

Old exchange energy                            =    -13.246215568 Eh
New exchange energy                            =    -13.246233175 Eh
Exchange energy change after final integration =     -0.000017606 Eh
Total energy after final integration           =   -550.073771660 Eh
Final COS-X integration done in                =     0.477 sec
Total Energy       :         -550.07377166 Eh          -14968.26830 eV
  Last Energy change         ...   -3.5275e-09  Tolerance :   1.0000e-08
  Last MAX-Density change    ...    1.6653e-15  Tolerance :   1.0000e-07
             **** THE GBW FILE WAS UPDATED (/home/rudenko/mop_saddle_orca_4_serv/for_orca/ch3no2_ch3coo_new/orca/orca_start/start.gbw) ****
             **** DENSITY /home/rudenko/mop_saddle_orca_4_serv/for_orca/ch3no2_ch3coo_new/orca/orca_start/start.scfp WAS UPDATED ****
             **** ENERGY FILE WAS UPDATED (/home/rudenko/mop_saddle_orca_4_serv/for_orca/ch3no2_ch3coo_new/orca/orca_start/start.en.tmp) ****
             **** THE GBW FILE WAS UPDATED (/home/rudenko/mop_saddle_orca_4_serv/for_orca/ch3no2_ch3coo_new/orca/orca_start/start.gbw) ****
             **** DENSITY /home/rudenko/mop_saddle_orca_4_serv/for_orca/ch3no2_ch3coo_new/orca/orca_start/start.scfp WAS UPDATED ****
Total SCF time: 0 days 0 hours 0 min 11 sec 

Maximum memory used throughout the entire SCF-calculation: 77.0 MB


-------------------------------------------------------------------------------
                          DFT DISPERSION CORRECTION                            
                                                                               
                              DFTD3 V3.1  Rev 1                                
                          USING Becke-Johnson damping                          
-------------------------------------------------------------------------------
-------------------------   ----------------
Dispersion correction           -0.016214850
-------------------------   ----------------


-------------------------   --------------------
FINAL SINGLE POINT ENERGY      -550.089986509664
-------------------------   --------------------



           ************************************************************
           *        Program running with 102 parallel MPI-processes   *
           *              working on a common directory               *
           ************************************************************
------------------------------------------------------------------------------
                         ORCA SCF GRADIENT CALCULATION
------------------------------------------------------------------------------

 ... reading COSX grid (gridx3)
Gradient of the Kohn-Sham DFT energy:
Kohn-Sham wavefunction type      ... RKS
Hartree-Fock exchange scaling    ...    0.200
Number of operators              ...    1
Number of atoms                  ...   17
Basis set dimensions             ...  327
Integral neglect threshold       ... 2.5e-11
Integral primitive cutoff        ... 2.5e-12
SHARK Integral package           ... ON

Nuc. rep. gradient       (SHARK) ... done (  0.0 sec)
HCore & Overlap gradient (SHARK) ... done (  0.1 sec)
RI-J gradient            (SHARK) ... done (  0.2 sec)
COSX-gradient                    ... done (  0.6 sec)
Exchange-correlation gradient    ... done
Dispersion correction            ... done

------------------
CARTESIAN GRADIENT
------------------

   1   C   :    0.000293806    0.000261260   -0.000263573
   2   H   :   -0.000122605    0.000008101    0.000258508
   3   H   :   -0.000103241   -0.000155101   -0.000047306
   4   H   :   -0.000026744   -0.000198938   -0.000053245
   5   N   :    0.000113492    0.000181411    0.000189339
   6   O   :   -0.000142302   -0.000113867    0.000101413
   7   O   :    0.000018683   -0.000052259   -0.000045999
   8   C   :   -0.000109067    0.000051037    0.000425273
   9   O   :    0.000030101   -0.000104526   -0.000755155
  10   O   :    0.000146950   -0.000012455    0.000149292
  11   C   :    0.000094294    0.000061584    0.000412511
  12   H   :    0.000014745    0.000078652   -0.000202136
  13   H   :    0.000062485   -0.000142023   -0.000121818
  14   H   :   -0.000182613   -0.000004285   -0.000000377
  15   H   :    0.000091663    0.000262284   -0.000169806
  16   O   :   -0.000092922   -0.000527358    0.000015391
  17   H   :    0.000029103    0.000156321    0.000122456

Difference to translation invariance:
           :    0.0001158279   -0.0002501635    0.0000147683

Difference to rotation invariance:
           :   -0.0010078524   -0.0000762562   -0.0011297199

Norm of the cartesian gradient     ...    0.0014399838
RMS gradient                       ...    0.0002016381
MAX gradient                       ...    0.0007551553

-------
TIMINGS
-------

Total SCF gradient time            ...        2.454 sec

One electron gradient       ....       0.082 sec  (  3.3%)
RI-J Coulomb gradient       ....       0.229 sec  (  9.3%)
COSX gradient               ....       0.616 sec  ( 25.1%)
XC gradient                 ....       0.308 sec  ( 12.6%)
CPCM gradient               ....       0.179 sec  (  7.3%)
   A-Matrix (El+Nuc)        ....       0.093 sec  (  3.8%)
   Potential                ....       0.087 sec  (  3.5%)

Maximum memory used throughout the entire SCFGRAD-calculation: 50.1 MB
------------------------------------------------------------------------------
                         ORCA GEOMETRY RELAXATION STEP
------------------------------------------------------------------------------

Reading the OPT-File                    .... done
Getting information on internals        .... done
Copying old internal coords+grads       .... done
Making the new internal coordinates     .... (new redundants).... done
Validating the new internal coordinates .... (new redundants).... done
Calculating the B-matrix                .... done
Calculating the G,G- and P matrices     .... done
Transforming gradient to internals      .... done
Projecting the internal gradient        .... done
Number of atoms                         ....  17
Number of internal coordinates          ....  68
Current Energy                          ....  -550.089986510 Eh
Current gradient norm                   ....     0.001439984 Eh/bohr
Maximum allowed component of the step   ....  0.300
Current trust radius                    ....  0.300
Updating the Hessian (BFGS)             .... done
Forming the augmented Hessian           .... done
Diagonalizing the augmented Hessian     .... done
Last element of RFO vector              ....  0.990039493
Lowest eigenvalues of augmented Hessian:
 -0.000023555  0.000173234  0.001642696  0.004482472  0.013015221
Length of the computed step             ....  0.142206372
The final length of the internal step   ....  0.142206372
Converting the step to cartesian space:
 Initial RMS(Int)=    0.0172450557
Transforming coordinates:
 Iter   0:  RMS(Cart)=    0.0215488851 RMS(Int)=    0.0195169501
 Iter   1:  RMS(Cart)=    0.0014502045 RMS(Int)=    0.0028490359
 Iter   2:  RMS(Cart)=    0.0001798780 RMS(Int)=    0.0004103544
 Iter   3:  RMS(Cart)=    0.0000241785 RMS(Int)=    0.0000533364
 Iter   4:  RMS(Cart)=    0.0000032032 RMS(Int)=    0.0000068858
 Iter   5:  RMS(Cart)=    0.0000004107 RMS(Int)=    0.0000008824
 Iter   6:  RMS(Cart)=    0.0000000524 RMS(Int)=    0.0000001127
done
Storing new coordinates                 .... done

                                .--------------------.
          ----------------------|Geometry convergence|-------------------------
          Item                value                   Tolerance       Converged
          ---------------------------------------------------------------------
          Energy change      -0.0000106816            0.0000050000      NO
          RMS gradient        0.0001599642            0.0001000000      NO
          MAX gradient        0.0006134697            0.0003000000      NO
          RMS step            0.0172450557            0.0020000000      NO
          MAX step            0.0904297862            0.0040000000      NO
          ........................................................
          Max(Bonds)      0.0043      Max(Angles)    1.30
          Max(Dihed)        5.18      Max(Improp)    0.00
          ---------------------------------------------------------------------

The optimization has not yet converged - more geometry cycles are needed


    ---------------------------------------------------------------------------
                         Redundant Internal Coordinates
                            (Angstroem and degrees)

        Definition                    Value    dE/dq     Step     New-Value
    ----------------------------------------------------------------------------
     1. B(H   1,C   0)                1.0844 -0.000278  0.0009    1.0852   
     2. B(H   2,C   0)                1.0891 -0.000160  0.0004    1.0895   
     3. B(H   3,C   0)                1.0842  0.000112  0.0005    1.0847   
     4. B(N   4,C   0)                1.4922 -0.000051 -0.0001    1.4921   
     5. B(O   5,N   4)                1.2180  0.000201  0.0004    1.2183   
     6. B(O   6,N   4)                1.2245  0.000079 -0.0004    1.2241   
     7. B(O   8,C   7)                1.2688 -0.000613  0.0007    1.2695   
     8. B(O   9,C   7)                1.2516 -0.000068  0.0001    1.2518   
     9. B(C  10,C   7)                1.5307  0.000056 -0.0005    1.5303   
    10. B(H  11,C  10)                1.0895  0.000217 -0.0008    1.0887   
    11. B(H  12,C  10)                1.0917 -0.000148  0.0002    1.0919   
    12. B(H  13,C  10)                1.0930  0.000186  0.0003    1.0932   
    13. B(H  14,O   8)                1.6984  0.000065 -0.0004    1.6979   
    14. B(O  15,H  14)                0.9956  0.000352 -0.0000    0.9955   
    15. B(H  16,H   1)                2.5323  0.000029  0.0043    2.5366   
    16. B(H  16,O  15)                0.9666  0.000074  0.0001    0.9667   
    17. B(H  16,O   6)                2.0851  0.000072  0.0001    2.0852   
    18. A(H   2,C   0,H   3)          111.06  0.000065   -0.08    110.99   
    19. A(H   1,C   0,H   3)          112.82 -0.000060   -0.03    112.79   
    20. A(H   1,C   0,H   2)          110.50  0.000091    0.01    110.51   
    21. A(H   1,C   0,N   4)          108.07  0.000038    0.01    108.09   
    22. A(H   3,C   0,N   4)          107.99 -0.000067    0.03    108.01   
    23. A(H   2,C   0,N   4)          106.09 -0.000073    0.06    106.15   
    24. A(C   0,H   1,H  16)          114.02  0.000087    0.05    114.07   
    25. A(C   0,N   4,O   5)          118.28  0.000048   -0.02    118.26   
    26. A(O   5,N   4,O   6)          123.82  0.000026   -0.02    123.80   
    27. A(C   0,N   4,O   6)          117.88 -0.000072    0.04    117.92   
    28. A(N   4,O   6,H  16)          124.11  0.000018    0.18    124.29   
    29. A(O   8,C   7,C  10)          115.78 -0.000027   -0.08    115.70   
    30. A(O   8,C   7,O   9)          125.52 -0.000180    0.06    125.58   
    31. A(O   9,C   7,C  10)          118.69  0.000207    0.02    118.72   
    32. A(C   7,O   8,H  14)          118.71  0.000523   -0.31    118.40   
    33. A(H  11,C  10,H  12)          109.42 -0.000041    0.02    109.44   
    34. A(C   7,C  10,H  12)          109.87 -0.000082   -0.06    109.81   
    35. A(C   7,C  10,H  11)          111.66  0.000029    0.05    111.71   
    36. A(H  12,C  10,H  13)          107.25  0.000053   -0.02    107.24   
    37. A(H  11,C  10,H  13)          109.08 -0.000052    0.03    109.11   
    38. A(C   7,C  10,H  13)          109.46  0.000095   -0.03    109.43   
    39. A(O   8,H  14,O  15)          174.52 -0.000350    0.87    175.40   
    40. A(H  14,O  15,H  16)          104.76  0.000079    0.23    104.99   
    41. A(H   1,H  16,O   6)           64.23 -0.000062   -0.09     64.14   
    42. A(H   1,H  16,O  15)          116.64 -0.000134    1.30    117.93   
    43. D(H  16,H   1,C   0,N   4)     36.16  0.000019   -0.30     35.86   
    44. D(H  16,H   1,C   0,H   3)    155.48 -0.000076   -0.27    155.20   
    45. D(H  16,H   1,C   0,H   2)    -79.52  0.000035   -0.38    -79.91   
    46. D(O   5,N   4,C   0,H   3)     24.37  0.000019    0.28     24.65   
    47. D(O   5,N   4,C   0,H   2)    -94.77  0.000017    0.33    -94.44   
    48. D(O   6,N   4,C   0,H   1)    -34.84  0.000021    0.24    -34.60   
    49. D(O   6,N   4,C   0,H   3)   -157.17  0.000110    0.25   -156.92   
    50. D(O   5,N   4,C   0,H   1)    146.70 -0.000070    0.27    146.98   
    51. D(O   6,N   4,C   0,H   2)     83.69  0.000108    0.29     83.98   
    52. D(H  16,O   6,N   4,O   5)   -169.62  0.000089   -0.05   -169.67   
    53. D(H  16,O   6,N   4,C   0)     12.02 -0.000007   -0.02     12.00   
    54. D(H  14,O   8,C   7,C  10)    169.03 -0.000116    1.36    170.38   
    55. D(H  14,O   8,C   7,O   9)    -10.77 -0.000201    1.33     -9.43   
    56. D(H  11,C  10,C   7,O   9)     -4.59 -0.000007   -0.28     -4.88   
    57. D(H  11,C  10,C   7,O   8)    175.60 -0.000085   -0.31    175.29   
    58. D(H  13,C  10,C   7,O   9)    116.29  0.000010   -0.23    116.06   
    59. D(H  13,C  10,C   7,O   8)    -63.51 -0.000068   -0.25    -63.77   
    60. D(H  12,C  10,C   7,O   9)   -126.18  0.000083   -0.30   -126.48   
    61. D(H  12,C  10,C   7,O   8)     54.01  0.000005   -0.33     53.69   
    62. D(O  15,H  14,O   8,C   7)   -136.48 -0.000331   -5.16   -141.64   
    63. D(H  16,O  15,H  14,O   8)     11.28 -0.000327    5.18     16.46   
    64. D(H  14,O  15,O   6,N   4)   -145.06  0.000015    0.97   -144.09   
    65. D(H   1,H  16,O  15,H  14)   -148.75  0.000003    1.35   -147.40   
    66. D(H   1,H  16,O   6,N   4)      3.95 -0.000030   -0.07      3.88   
    67. D(O   6,H  16,H   1,C   0)    -25.95 -0.000001    0.23    -25.72   
    68. D(O  15,H  16,H   1,C   0)    152.40  0.000212   -1.53    150.87   
    ----------------------------------------------------------------------------




    ----------------------------------------------------------------------------
                                  WARNING !!!
       The optimization did not converge but reached the maximum number of
       optimization cycles.
       Please check your results very carefully.
    ----------------------------------------------------------------------------



                            ***************************************
                            *     ORCA property calculations      *
                            ***************************************

                                    ---------------------
                                    Active property flags
                                    ---------------------
   (+) Dipole Moment


------------------------------------------------------------------------------
                       ORCA ELECTRIC PROPERTIES CALCULATION
------------------------------------------------------------------------------

Dipole Moment Calculation                       ... on
Quadrupole Moment Calculation                   ... off
Polarizability Calculation                      ... off
GBWName                                         ... /home/rudenko/mop_saddle_orca_4_serv/for_orca/ch3no2_ch3coo_new/orca/orca_start/start.gbw
Electron density                                ... /home/rudenko/mop_saddle_orca_4_serv/for_orca/ch3no2_ch3coo_new/orca/orca_start/start.scfp
The origin for moment calculation is the CENTER OF MASS  = (-0.102468,  1.327238 -2.686355)

-------------
DIPOLE MOMENT
-------------
                                X             Y             Z
Electronic contribution:     -3.43991      -6.34250       4.56176
Nuclear contribution   :      2.39548       3.95642       0.00420
                        -----------------------------------------
Total Dipole Moment    :     -1.04442      -2.38608       4.56597
                        -----------------------------------------
Magnitude (a.u.)       :      5.25664
Magnitude (Debye)      :     13.36131



--------------------
Rotational spectrum 
--------------------
 
Rotational constants in cm-1:     0.113108     0.011916     0.011301 
Rotational constants in MHz :  3390.890038   357.237408   338.791558 

 Dipole components along the rotational axes: 
x,y,z [a.u.] :     5.128171     0.927571    -0.688272 
x,y,z [Debye]:    13.034776     2.357698    -1.749448 

 

Timings for individual modules:

Sum of individual times         ...     1427.202 sec (=  23.787 min)
GTO integral calculation        ...      215.785 sec (=   3.596 min)  15.1 %
SCF iterations                  ...      883.151 sec (=  14.719 min)  61.9 %
SCF Gradient evaluation         ...      327.182 sec (=   5.453 min)  22.9 %
Geometry relaxation             ...        1.085 sec (=   0.018 min)   0.1 %
                             ****ORCA TERMINATED NORMALLY****
TOTAL RUN TIME: 0 days 0 hours 27 minutes 2 seconds 667 msec
