
                                 *****************
                                 * O   R   C   A *
                                 *****************

                                            #,                                       
                                            ###                                      
                                            ####                                     
                                            #####                                    
                                            ######                                   
                                           ########,                                 
                                     ,,################,,,,,                         
                               ,,#################################,,                 
                          ,,##########################################,,             
                       ,#########################################, ''#####,          
                    ,#############################################,,   '####,        
                  ,##################################################,,,,####,       
                ,###########''''           ''''###############################       
              ,#####''   ,,,,##########,,,,          '''####'''          '####       
            ,##' ,,,,###########################,,,                        '##       
           ' ,,###''''                  '''############,,,                           
         ,,##''                                '''############,,,,        ,,,,,,###''
      ,#''                                            '''#######################'''  
     '                                                          ''''####''''         
             ,#######,   #######,   ,#######,      ##                                
            ,#'     '#,  ##    ##  ,#'     '#,    #''#        ######   ,####,        
            ##       ##  ##   ,#'  ##            #'  '#       #        #'  '#        
            ##       ##  #######   ##           ,######,      #####,   #    #        
            '#,     ,#'  ##    ##  '#,     ,#' ,#      #,         ##   #,  ,#        
             '#######'   ##     ##  '#######'  #'      '#     #####' # '####'        



                  #######################################################
                  #                        -***-                        #
                  #          Department of theory and spectroscopy      #
                  #    Directorship and core code : Frank Neese         #
                  #        Max Planck Institute fuer Kohlenforschung    #
                  #                Kaiser Wilhelm Platz 1               #
                  #                 D-45470 Muelheim/Ruhr               #
                  #                      Germany                        #
                  #                                                     #
                  #                  All rights reserved                #
                  #                        -***-                        #
                  #######################################################


                         Program Version 5.0.4 -  RELEASE  -


 With contributions from (in alphabetic order):
   Daniel Aravena         : Magnetic Suceptibility
   Michael Atanasov       : Ab Initio Ligand Field Theory (pilot matlab implementation)
   Alexander A. Auer      : GIAO ZORA, VPT2 properties, NMR spectrum
   Ute Becker             : Parallelization
   Giovanni Bistoni       : ED, misc. LED, open-shell LED, HFLD
   Martin Brehm           : Molecular dynamics
   Dmytro Bykov           : SCF Hessian
   Vijay G. Chilkuri      : MRCI spin determinant printing, contributions to CSF-ICE
   Dipayan Datta          : RHF DLPNO-CCSD density
   Achintya Kumar Dutta   : EOM-CC, STEOM-CC
   Dmitry Ganyushin       : Spin-Orbit,Spin-Spin,Magnetic field MRCI
   Miquel Garcia          : C-PCM and meta-GGA Hessian, CC/C-PCM, Gaussian charge scheme
   Yang Guo               : DLPNO-NEVPT2, F12-NEVPT2, CIM, IAO-localization
   Andreas Hansen         : Spin unrestricted coupled pair/coupled cluster methods
   Benjamin Helmich-Paris : MC-RPA, TRAH-SCF, COSX integrals
   Lee Huntington         : MR-EOM, pCC
   Robert Izsak           : Overlap fitted RIJCOSX, COSX-SCS-MP3, EOM
   Marcus Kettner         : VPT2
   Christian Kollmar      : KDIIS, OOCD, Brueckner-CCSD(T), CCSD density, CASPT2, CASPT2-K
   Simone Kossmann        : Meta GGA functionals, TD-DFT gradient, OOMP2, MP2 Hessian
   Martin Krupicka        : Initial AUTO-CI
   Lucas Lang             : DCDCAS
   Marvin Lechner         : AUTO-CI (C++ implementation), FIC-MRCC
   Dagmar Lenk            : GEPOL surface, SMD
   Dimitrios Liakos       : Extrapolation schemes; Compound Job, initial MDCI parallelization
   Dimitrios Manganas     : Further ROCIS development; embedding schemes
   Dimitrios Pantazis     : SARC Basis sets
   Anastasios Papadopoulos: AUTO-CI, single reference methods and gradients
   Taras Petrenko         : DFT Hessian,TD-DFT gradient, ASA, ECA, R-Raman, ABS, FL, XAS/XES, NRVS
   Peter Pinski           : DLPNO-MP2, DLPNO-MP2 Gradient
   Christoph Reimann      : Effective Core Potentials
   Marius Retegan         : Local ZFS, SOC
   Christoph Riplinger    : Optimizer, TS searches, QM/MM, DLPNO-CCSD(T), (RO)-DLPNO pert. Triples
   Tobias Risthaus        : Range-separated hybrids, TD-DFT gradient, RPA, STAB
   Michael Roemelt        : Original ROCIS implementation
   Masaaki Saitow         : Open-shell DLPNO-CCSD energy and density
   Barbara Sandhoefer     : DKH picture change effects
   Avijit Sen             : IP-ROCIS
   Kantharuban Sivalingam : CASSCF convergence, NEVPT2, FIC-MRCI
   Bernardo de Souza      : ESD, SOC TD-DFT
   Georgi Stoychev        : AutoAux, RI-MP2 NMR, DLPNO-MP2 response
   Willem Van den Heuvel  : Paramagnetic NMR
   Boris Wezisla          : Elementary symmetry handling
   Frank Wennmohs         : Technical directorship


 We gratefully acknowledge several colleagues who have allowed us to
 interface, adapt or use parts of their codes:
   Stefan Grimme, W. Hujo, H. Kruse, P. Pracht,  : VdW corrections, initial TS optimization,
                  C. Bannwarth, S. Ehlert          DFT functionals, gCP, sTDA/sTD-DF
   Ed Valeev, F. Pavosevic, A. Kumar             : LibInt (2-el integral package), F12 methods
   Garnet Chan, S. Sharma, J. Yang, R. Olivares  : DMRG
   Ulf Ekstrom                                   : XCFun DFT Library
   Mihaly Kallay                                 : mrcc  (arbitrary order and MRCC methods)
   Jiri Pittner, Ondrej Demel                    : Mk-CCSD
   Frank Weinhold                                : gennbo (NPA and NBO analysis)
   Christopher J. Cramer and Donald G. Truhlar   : smd solvation model
   Lars Goerigk                                  : TD-DFT with DH, B97 family of functionals
   V. Asgeirsson, H. Jonsson                     : NEB implementation
   FAccTs GmbH                                   : IRC, NEB, NEB-TS, DLPNO-Multilevel, CI-OPT
                                                   MM, QMMM, 2- and 3-layer-ONIOM, Crystal-QMMM,
                                                   LR-CPCM, SF, NACMEs, symmetry and pop. for TD-DFT,
                                                   nearIR, NL-DFT gradient (VV10), updates on ESD,
                                                   ML-optimized integration grids
   S Lehtola, MJT Oliveira, MAL Marques          : LibXC Library
   Liviu Ungur et al                             : ANISO software


 Your calculation uses the libint2 library for the computation of 2-el integrals
 For citations please refer to: http://libint.valeyev.net

 Your ORCA version has been built with support for libXC version: 5.1.0
 For citations please refer to: https://tddft.org/programs/libxc/

 This ORCA versions uses:
   CBLAS   interface :  Fast vector & matrix operations
   LAPACKE interface :  Fast linear algebra routines
   SCALAPACK package :  Parallel linear algebra routines
   Shared memory     :  Shared parallel matrices
   BLAS/LAPACK       :  OpenBLAS 0.3.15  USE64BITINT DYNAMIC_ARCH NO_AFFINITY Prescott SINGLE_THREADED
        Core in use  :  Prescott
   Copyright (c) 2011-2014, The OpenBLAS Project


Your calculation utilizes the atom-pairwise dispersion correction
with the Becke-Johnson damping scheme (D3BJ)
Cite in your paper:
S.Grimme, S.Ehrlich, L.Goerigk, J Comput Chem, (2011), 32, 1456–1465 
S.Grimme, J.Antony, S.Ehrlich and H.Krieg, J.Chem.Phys., 132, (2010), 154104 
   

================================================================================

----- Orbital basis set information -----
Your calculation utilizes the basis: def2-TZVP
   F. Weigend and R. Ahlrichs, Phys. Chem. Chem. Phys. 7, 3297 (2005).

----- AuxJ basis set information -----
Your calculation utilizes the auxiliary basis: def2/J
   F. Weigend, Phys. Chem. Chem. Phys. 8, 1057 (2006).

================================================================================
                                        WARNINGS
                       Please study these warnings very carefully!
================================================================================


WARNING: Geometry Optimization
  ===> : Switching off AutoStart
         For restart on a previous wavefunction, please use MOREAD

INFO   : the flag for use of the SHARK integral package has been found!

================================================================================
                                       INPUT FILE
================================================================================
NAME = /home/rudenko/mop_saddle_orca_4_serv/for_orca/m,m-o2n2c6h4chno2ch3_oh/orca/orca_start/start.inp
|  1> !  opt B3LYP def2-TZVP CPCM D3 
|  2> %pal nprocs 102 end
|  3> %cpcm epsilon 78.4 end 
|  4> *xyz -1 1 
|  5> C   -0.77463 1.15981 -0.03181
|  6> C   0.5796 1.17834 0.32139
|  7> C   1.3175 -0.01022 0.3063
|  8> C   0.6915 -1.20409 -0.04863
|  9> C   -0.67107 -1.20107 -0.38372
| 10> C   -1.42389 -0.02537 -0.38728
| 11> H   1.05198 2.1325 0.60762
| 12> H   1.24662 -2.15508 -0.06567
| 13> H   -2.49401 -0.02996 -0.65583
| 14> N   -1.31123 -2.45023 -0.73645
| 15> O   -2.49482 -2.44517 -1.04224
| 16> O   -0.64787 -3.47722 -0.71843
| 17> C   2.77024 0.04019 0.70776
| 18> H   2.84763 0.52252 1.73199
| 19> C   3.49427 -1.29826 0.7448
| 20> H   4.55145 -1.1873 1.04584
| 21> H   3.50459 -1.80825 -0.2304
| 22> H   3.04441 -1.99109 1.47332
| 23> N   3.54254 0.93088 -0.23578
| 24> O   4.73738 1.0722 -0.03253
| 25> O   2.95902 1.47957 -1.15142
| 26> O   2.58941 3.45965 7.41931
| 27> H   2.89024 2.66993 7.71263
| 28> N   -1.52429 2.39881 -0.02955
| 29> O   -2.70108 2.37641 -0.35677
| 30> O   -0.95515 3.42987 0.2967
| 31> H   2.39957 1.76825 4.27873
| 32> H   2.91304 2.35123 5.58678
| 33> O   3.20087 1.84688 4.80336
| 34> *
| 35> 
| 36>                          ****END OF INPUT****
================================================================================

                       *****************************
                       * Geometry Optimization Run *
                       *****************************

Geometry optimization settings:
Update method            Update   .... BFGS
Choice of coordinates    CoordSys .... Z-matrix Internals
Initial Hessian          InHess   .... Almoef's Model

Convergence Tolerances:
Energy Change            TolE     ....  5.0000e-06 Eh
Max. Gradient            TolMAXG  ....  3.0000e-04 Eh/bohr
RMS Gradient             TolRMSG  ....  1.0000e-04 Eh/bohr
Max. Displacement        TolMAXD  ....  4.0000e-03 bohr
RMS Displacement         TolRMSD  ....  2.0000e-03 bohr
Strict Convergence                ....  False
------------------------------------------------------------------------------
                        ORCA OPTIMIZATION COORDINATE SETUP
------------------------------------------------------------------------------

The optimization will be done in new redundant internal coordinates
Making redundant internal coordinates   ...  (new redundants) done
Evaluating the initial hessian          ...  (Almloef) done
Evaluating the coordinates              ...  done
Calculating the B-matrix                .... done
Calculating the G-matrix                .... done
Diagonalizing the G-matrix              .... done
Small eigenvalue found = 3.296e-03
Small eigenvalue found = 1.625e-02
Small eigenvalue found = 2.023e-02
The first mode is                       ....   71
The number of degrees of freedom        ....   81

    -----------------------------------------------------------------
                    Redundant Internal Coordinates


    -----------------------------------------------------------------
         Definition                    Initial Value    Approx d2E/dq
    -----------------------------------------------------------------
      1. B(C   1,C   0)                  1.3997         0.603025   
      2. B(C   2,C   1)                  1.3991         0.604320   
      3. B(C   3,C   2)                  1.3940         0.615730   
      4. B(C   4,C   3)                  1.4032         0.595283   
      5. B(C   5,C   4)                  1.3961         0.611011   
      6. B(C   5,C   0)                  1.3973         0.608182   
      7. B(H   6,C   1)                  1.1025         0.343946   
      8. B(H   7,C   3)                  1.1013         0.345475   
      9. B(H   8,C   5)                  1.1033         0.342914   
     10. B(N   9,C   4)                  1.4473         0.453405   
     11. B(O  10,N   9)                  1.2225         0.927482   
     12. B(O  11,N   9)                  1.2227         0.926561   
     13. B(C  12,C   2)                  1.5080         0.404971   
     14. B(H  13,C  12)                  1.1348         0.305501   
     15. B(C  14,C  12)                  1.5222         0.384459   
     16. B(H  15,C  14)                  1.1048         0.341053   
     17. B(H  16,C  14)                  1.1006         0.346410   
     18. B(H  17,C  14)                  1.1014         0.345304   
     19. B(N  18,C  12)                  1.5100         0.360125   
     20. B(O  19,N  18)                  1.2202         0.935177   
     21. B(O  20,N  18)                  1.2165         0.947911   
     22. B(H  22,O  21)                  0.8945         0.661320   
     23. B(N  23,C   0)                  1.4481         0.451974   
     24. B(O  24,N  23)                  1.2216         0.930286   
     25. B(O  25,N  23)                  1.2221         0.928840   
     26. B(H  26,H  13)                  2.8703         0.000100   
     27. B(H  27,O  21)                  2.1660         0.006193   
     28. B(H  27,H  22)                  2.1497         0.001405   
     29. B(O  28,H  13)                  3.3633         0.000076   
     30. B(O  28,H  27)                  0.9752         0.491767   
     31. B(O  28,H  26)                  0.9610         0.518069   
     32. A(C   1,C   0,C   5)          121.6673         0.430414   
     33. A(C   1,C   0,N  23)          119.2847         0.405602   
     34. A(C   5,C   0,N  23)          119.0481         0.406213   
     35. A(C   2,C   1,H   6)          120.8008         0.348672   
     36. A(C   0,C   1,H   6)          119.4413         0.348546   
     37. A(C   0,C   1,C   2)          119.7579         0.429922   
     38. A(C   3,C   2,C  12)          121.9393         0.401866   
     39. A(C   1,C   2,C   3)          119.5694         0.431535   
     40. A(C   1,C   2,C  12)          118.4775         0.400544   
     41. A(C   4,C   3,H   7)          119.1858         0.348048   
     42. A(C   2,C   3,H   7)          121.1408         0.350035   
     43. A(C   2,C   3,C   4)          119.6725         0.430369   
     44. A(C   5,C   4,N   9)          119.1912         0.406774   
     45. A(C   3,C   4,N   9)          119.0691         0.404903   
     46. A(C   3,C   4,C   5)          121.7396         0.429775   
     47. A(C   0,C   5,C   4)          117.5862         0.431432   
     48. A(C   4,C   5,H   8)          121.3414         0.349143   
     49. A(C   0,C   5,H   8)          121.0718         0.348870   
     50. A(C   4,N   9,O  10)          119.0547         0.432474   
     51. A(O  10,N   9,O  11)          122.1700         0.489393   
     52. A(C   4,N   9,O  11)          118.7753         0.432397   
     53. A(H  13,C  12,N  18)          106.1647         0.311998   
     54. A(C   2,C  12,N  18)          110.2477         0.363819   
     55. A(C  14,C  12,N  18)          106.8936         0.360605   
     56. A(C   2,C  12,C  14)          115.8042         0.370231   
     57. A(C   2,C  12,H  13)          108.6745         0.319901   
     58. A(H  13,C  12,C  14)          108.6232         0.317201   
     59. A(H  26,H  13,O  28)           15.2560         0.092679   
     60. A(C  12,H  13,H  26)          167.0809         0.113342   
     61. A(H  16,C  14,H  17)          107.3639         0.287185   
     62. A(H  15,C  14,H  17)          105.8893         0.286488   
     63. A(C  12,C  14,H  17)          112.0199         0.323615   
     64. A(H  15,C  14,H  16)          106.2016         0.286631   
     65. A(C  12,C  14,H  16)          112.9769         0.323785   
     66. A(C  12,C  14,H  15)          111.9299         0.322958   
     67. A(O  19,N  18,O  20)          122.8757         0.492216   
     68. A(C  12,N  18,O  20)          119.4086         0.416638   
     69. A(C  12,N  18,O  19)          117.7141         0.415637   
     70. A(H  22,O  21,H  27)           77.0204         0.179198   
     71. A(O  21,H  22,H  27)           79.0581         0.141164   
     72. A(O  24,N  23,O  25)          122.3845         0.489889   
     73. A(C   0,N  23,O  25)          118.7626         0.432342   
     74. A(C   0,N  23,O  24)          118.8526         0.432463   
     75. A(H  13,H  26,O  28)          112.9382         0.116113   
     76. A(O  21,H  27,H  22)           23.9215         0.107123   
     77. A(H  22,H  27,O  28)          150.9560         0.137781   
     78. A(O  21,H  27,O  28)          171.2848         0.173348   
     79. A(H  13,O  28,H  27)          154.9960         0.120168   
     80. A(H  13,O  28,H  26)           51.8058         0.120538   
     81. A(H  26,O  28,H  27)          103.5790         0.318726   
     82. D(H   6,C   1,C   0,N  23)      0.7418         0.025082   
     83. D(C   2,C   1,C   0,C   5)      0.8068         0.025082   
     84. D(C   2,C   1,C   0,N  23)   -179.1976         0.025082   
     85. D(H   6,C   1,C   0,C   5)   -179.2538         0.025082   
     86. D(C  12,C   2,C   1,H   6)      0.7747         0.025196   
     87. D(C  12,C   2,C   1,C   0)   -179.2868         0.025196   
     88. D(C   3,C   2,C   1,C   0)     -0.6124         0.025196   
     89. D(C   3,C   2,C   1,H   6)    179.4491         0.025196   
     90. D(H   7,C   3,C   2,C  12)     -1.1516         0.026213   
     91. D(C   4,C   3,C   2,C  12)    178.4906         0.026213   
     92. D(H   7,C   3,C   2,C   1)   -179.7785         0.026213   
     93. D(C   4,C   3,C   2,C   1)     -0.1363         0.026213   
     94. D(N   9,C   4,C   3,C   2)   -179.3496         0.024408   
     95. D(C   5,C   4,C   3,H   7)   -179.6185         0.024408   
     96. D(C   5,C   4,C   3,C   2)      0.7323         0.024408   
     97. D(N   9,C   4,C   3,H   7)      0.2996         0.024408   
     98. D(H   8,C   5,C   4,N   9)     -0.1693         0.025789   
     99. D(C   0,C   5,C   4,C   3)     -0.5454         0.025789   
    100. D(H   8,C   5,C   0,N  23)     -0.5155         0.025537   
    101. D(C   0,C   5,C   4,N   9)    179.5366         0.025789   
    102. D(H   8,C   5,C   0,C   1)    179.4801         0.025537   
    103. D(C   4,C   5,C   0,N  23)    179.7777         0.025537   
    104. D(C   4,C   5,C   0,C   1)     -0.2266         0.025537   
    105. D(H   8,C   5,C   4,C   3)    179.7487         0.025789   
    106. D(O  11,N   9,C   4,C   5)   -179.3081         0.016191   
    107. D(O  11,N   9,C   4,C   3)      0.7717         0.016191   
    108. D(O  10,N   9,C   4,C   5)      0.6973         0.016191   
    109. D(O  10,N   9,C   4,C   3)   -179.2229         0.016191   
    110. D(C  14,C  12,C   2,C   1)    176.7012         0.012158   
    111. D(H  13,C  12,C   2,C   3)   -124.4772         0.012158   
    112. D(H  13,C  12,C   2,C   1)     54.1642         0.012158   
    113. D(N  18,C  12,C   2,C   3)    119.5528         0.012158   
    114. D(N  18,C  12,C   2,C   1)    -61.8058         0.012158   
    115. D(C  14,C  12,C   2,C   3)     -1.9402         0.012158   
    116. D(H  26,H  13,C  12,N  18)    119.8602         0.089126   
    117. D(H  26,H  13,C  12,C  14)   -125.4974         0.089126   
    118. D(H  26,H  13,C  12,C   2)      1.2847         0.089126   
    119. D(H  17,C  14,C  12,N  18)    175.4929         0.011767   
    120. D(H  17,C  14,C  12,H  13)     61.3273         0.011767   
    121. D(H  17,C  14,C  12,C   2)    -61.2368         0.011767   
    122. D(H  16,C  14,C  12,N  18)    -63.0982         0.011767   
    123. D(H  16,C  14,C  12,H  13)   -177.2638         0.011767   
    124. D(H  16,C  14,C  12,C   2)     60.1720         0.011767   
    125. D(H  15,C  14,C  12,N  18)     56.7303         0.011767   
    126. D(H  15,C  14,C  12,H  13)    -57.4353         0.011767   
    127. D(H  15,C  14,C  12,C   2)   -179.9994         0.011767   
    128. D(O  20,N  18,C  12,C  14)    126.8898         0.011158   
    129. D(O  20,N  18,C  12,H  13)   -117.2922         0.011158   
    130. D(O  20,N  18,C  12,C   2)      0.2402         0.011158   
    131. D(O  19,N  18,C  12,C  14)    -53.5621         0.011158   
    132. D(O  19,N  18,C  12,H  13)     62.2559         0.011158   
    133. D(O  19,N  18,C  12,C   2)    179.7883         0.011158   
    134. D(O  25,N  23,C   0,C   5)    179.1866         0.016089   
    135. D(O  25,N  23,C   0,C   1)     -0.8091         0.016089   
    136. D(O  24,N  23,C   0,C   5)     -0.9934         0.016089   
    137. D(O  24,N  23,C   0,C   1)    179.0109         0.016089   
    138. D(O  28,H  26,H  13,C  12)    173.3816         0.001500   
    139. D(O  28,H  27,H  22,O  21)    164.0778         0.001518   
    140. D(O  28,H  27,O  21,H  22)    -61.5170         0.001520   
    141. D(H  27,O  28,C  12,C   2)    -16.4895         0.001500   
    142. D(H  26,O  28,C  12,N  18)    113.7650         0.001500   
    143. D(H  26,O  28,C  12,C  14)   -132.3993         0.001500   
    144. D(H  26,O  28,C  12,C   2)     -5.8750         0.001500   
    145. D(H  13,O  28,H  27,O  21)   -167.8122         0.332131   
    146. D(H  26,O  28,H  27,H  22)    135.7254         0.332131   
    147. D(H  26,O  28,H  27,O  21)   -177.0414         0.332131   
    148. D(H  27,O  28,H  26,H  13)    175.0517         0.342564   
    149. D(H  27,O  28,H  13,H  26)    -11.4415         0.001500   
    150. D(H  27,O  28,C  12,N  18)    103.1506         0.001500   
    151. D(H  13,O  28,H  27,H  22)    144.9546         0.332131   
    152. D(H  27,O  28,C  12,C  14)   -143.0137         0.001500   
    -----------------------------------------------------------------

Number of atoms                         .... 29
Number of degrees of freedom            .... 152

         *************************************************************
         *                GEOMETRY OPTIMIZATION CYCLE   1            *
         *************************************************************
---------------------------------
CARTESIAN COORDINATES (ANGSTROEM)
---------------------------------
  C     -0.774630    1.159810   -0.031810
  C      0.579600    1.178340    0.321390
  C      1.317500   -0.010220    0.306300
  C      0.691500   -1.204090   -0.048630
  C     -0.671070   -1.201070   -0.383720
  C     -1.423890   -0.025370   -0.387280
  H      1.051980    2.132500    0.607620
  H      1.246620   -2.155080   -0.065670
  H     -2.494010   -0.029960   -0.655830
  N     -1.311230   -2.450230   -0.736450
  O     -2.494820   -2.445170   -1.042240
  O     -0.647870   -3.477220   -0.718430
  C      2.770240    0.040190    0.707760
  H      2.847630    0.522520    1.731990
  C      3.494270   -1.298260    0.744800
  H      4.551450   -1.187300    1.045840
  H      3.504590   -1.808250   -0.230400
  H      3.044410   -1.991090    1.473320
  N      3.542540    0.930880   -0.235780
  O      4.737380    1.072200   -0.032530
  O      2.959020    1.479570   -1.151420
  O      2.589410    3.459650    7.419310
  H      2.890240    2.669930    7.712630
  N     -1.524290    2.398810   -0.029550
  O     -2.701080    2.376410   -0.356770
  O     -0.955150    3.429870    0.296700
  H      2.399570    1.768250    4.278730
  H      2.913040    2.351230    5.586780
  O      3.200870    1.846880    4.803360

----------------------------
CARTESIAN COORDINATES (A.U.)
----------------------------
  NO LB      ZA    FRAG     MASS         X           Y           Z
   0 C     6.0000    0    12.011   -1.463839    2.191723   -0.060112
   1 C     6.0000    0    12.011    1.095285    2.226740    0.607339
   2 C     6.0000    0    12.011    2.489714   -0.019313    0.578823
   3 C     6.0000    0    12.011    1.306746   -2.275400   -0.091897
   4 C     6.0000    0    12.011   -1.268139   -2.269693   -0.725126
   5 C     6.0000    0    12.011   -2.690762   -0.047942   -0.731853
   6 H     1.0000    0     1.008    1.987954    4.029841    1.148235
   7 H     1.0000    0     1.008    2.355770   -4.072511   -0.124098
   8 H     1.0000    0     1.008   -4.712996   -0.056616   -1.239339
   9 N     7.0000    0    14.007   -2.477866   -4.630264   -1.391689
  10 O     8.0000    0    15.999   -4.714527   -4.620702   -1.969548
  11 O     8.0000    0    15.999   -1.224297   -6.570994   -1.357636
  12 C     6.0000    0    12.011    5.234995    0.075948    1.337473
  13 H     1.0000    0     1.008    5.381241    0.987420    3.272987
  14 C     6.0000    0    12.011    6.603213   -2.453356    1.407468
  15 H     1.0000    0     1.008    8.600994   -2.243672    1.976351
  16 H     1.0000    0     1.008    6.622715   -3.417097   -0.435393
  17 H     1.0000    0     1.008    5.753101   -3.762615    2.784171
  18 N     7.0000    0    14.007    6.694430    1.759108   -0.445560
  19 O     8.0000    0    15.999    8.952351    2.026164   -0.061473
  20 O     8.0000    0    15.999    5.591737    2.795982   -2.175868
  21 O     8.0000    0    15.999    4.893276    6.537791   14.020464
  22 H     1.0000    0     1.008    5.461762    5.045436   14.574758
  23 N     7.0000    0    14.007   -2.880491    4.533094   -0.055841
  24 O     8.0000    0    15.999   -5.104301    4.490764   -0.674198
  25 O     8.0000    0    15.999   -1.804972    6.481515    0.560682
  26 H     1.0000    0     1.008    4.534530    3.341508    8.085628
  27 H     1.0000    0     1.008    5.504848    4.443181   10.557484
  28 O     8.0000    0    15.999    6.048768    3.490097    9.077035

--------------------------------
INTERNAL COORDINATES (ANGSTROEM)
--------------------------------
 C      0   0   0     0.000000000000     0.00000000     0.00000000
 C      1   0   0     1.399654419419     0.00000000     0.00000000
 C      2   1   0     1.399070760076   119.75787379     0.00000000
 C      3   2   1     1.393978795319   119.56939833   359.38764649
 C      4   3   2     1.403171918690   119.67247553   359.86365436
 C      5   4   3     1.396073463683   121.73956739     0.73229154
 H      2   1   3     1.102493438937   119.44133960   179.93942235
 H      4   3   2     1.101285864842   121.14077528   180.22148584
 H      6   5   4     1.103311825823   121.34135555   179.74871128
 N      5   4   3     1.447281584247   119.06913940   180.65041716
 O     10   5   4     1.222464075464   119.05474858   180.77706196
 O     10   5   4     1.222734505156   118.77528450     0.77166696
 C      3   2   1     1.508033423801   118.47751436   180.71324442
 H     13   3   2     1.134759240500   108.67450350    54.16417286
 C     13   3   2     1.522182579391   115.80421979   176.70116987
 H     15  13   3     1.104792630135   111.92989503   180.00056325
 H     15  13   3     1.100550472491   112.97691993    60.17204129
 H     15  13   3     1.101421272221   112.01985066   298.76319343
 N     13   3   2     1.509981356739   110.24767345   298.19420132
 O     19  13   3     1.220214952580   117.71406436   179.78825706
 O     19  13   3     1.216533154542   119.40863767     0.24016104
 O     14  13   3     6.406170383911   173.43585241   346.38669623
 H     22  14  13     0.894535069016    82.69156713   128.14207083
 N      1   2   3     1.448142335270   119.28465113   180.80240039
 O     24   1   2     1.221642088543   118.85261403   179.01087709
 O     24   1   2     1.222065516124   118.76260843   359.19088518
 H     14  13   3     2.870276227839   167.08088583     1.28468079
 H     27  14  13     1.521352005224   151.22356121   179.79171663
 O     27  14  13     0.960989596094   112.93821993   173.38161528

---------------------------
INTERNAL COORDINATES (A.U.)
---------------------------
 C      0   0   0     0.000000000000     0.00000000     0.00000000
 C      1   0   0     2.644963534835     0.00000000     0.00000000
 C      2   1   0     2.643860578521   119.75787379     0.00000000
 C      3   2   1     2.634238159647   119.56939833   359.38764649
 C      4   3   2     2.651610645133   119.67247553   359.86365436
 C      5   4   3     2.638196509196   121.73956739     0.73229154
 H      2   1   3     2.083410664037   119.44133960   179.93942235
 H      4   3   2     2.081128679709   121.14077528   180.22148584
 H      6   5   4     2.084957191121   121.34135555   179.74871128
 N      5   4   3     2.734965832894   119.06913940   180.65041716
 O     10   5   4     2.310122311184   119.05474858   180.77706196
 O     10   5   4     2.310633349241   118.77528450     0.77166696
 C      3   2   1     2.849770171783   118.47751436   180.71324442
 H     13   3   2     2.144384192481   108.67450350    54.16417286
 C     13   3   2     2.876508200874   115.80421979   176.70116987
 H     15  13   3     2.087755505729   111.92989503   180.00056325
 H     15  13   3     2.079738989565   112.97691993    60.17204129
 H     15  13   3     2.081384562572   112.01985066   298.76319343
 N     13   3   2     2.853451231564   110.24767345   298.19420132
 O     19  13   3     2.305872084892   117.71406436   179.78825706
 O     19  13   3     2.298914494920   119.40863767     0.24016104
 O     14  13   3    12.105907592829   173.43585241   346.38669623
 H     22  14  13     1.690426297629    82.69156713   128.14207083
 N      1   2   3     2.736592416597   119.28465113   180.80240039
 O     24   1   2     2.308568981018   118.85261403   179.01087709
 O     24   1   2     2.309369143184   118.76260843   359.19088518
 H     14  13   3     5.424035999321   167.08088583     1.28468079
 H     27  14  13     2.874938643166   151.22356121   179.79171663
 O     27  14  13     1.816007154164   112.93821993   173.38161528

---------------------
BASIS SET INFORMATION
---------------------
There are 4 groups of distinct atoms

 Group   1 Type C   : 11s6p2d1f contracted to 5s3p2d1f pattern {62111/411/11/1}
 Group   2 Type H   : 5s1p contracted to 3s1p pattern {311/1}
 Group   3 Type N   : 11s6p2d1f contracted to 5s3p2d1f pattern {62111/411/11/1}
 Group   4 Type O   : 11s6p2d1f contracted to 5s3p2d1f pattern {62111/411/11/1}

Atom   0C    basis set group =>   1
Atom   1C    basis set group =>   1
Atom   2C    basis set group =>   1
Atom   3C    basis set group =>   1
Atom   4C    basis set group =>   1
Atom   5C    basis set group =>   1
Atom   6H    basis set group =>   2
Atom   7H    basis set group =>   2
Atom   8H    basis set group =>   2
Atom   9N    basis set group =>   3
Atom  10O    basis set group =>   4
Atom  11O    basis set group =>   4
Atom  12C    basis set group =>   1
Atom  13H    basis set group =>   2
Atom  14C    basis set group =>   1
Atom  15H    basis set group =>   2
Atom  16H    basis set group =>   2
Atom  17H    basis set group =>   2
Atom  18N    basis set group =>   3
Atom  19O    basis set group =>   4
Atom  20O    basis set group =>   4
Atom  21O    basis set group =>   4
Atom  22H    basis set group =>   2
Atom  23N    basis set group =>   3
Atom  24O    basis set group =>   4
Atom  25O    basis set group =>   4
Atom  26H    basis set group =>   2
Atom  27H    basis set group =>   2
Atom  28O    basis set group =>   4
---------------------------------
AUXILIARY/J BASIS SET INFORMATION
---------------------------------
There are 4 groups of distinct atoms

 Group   1 Type C   : 12s5p4d2f1g contracted to 6s4p3d1f1g pattern {711111/2111/211/2/1}
 Group   2 Type H   : 5s2p1d contracted to 3s1p1d pattern {311/2/1}
 Group   3 Type N   : 12s5p4d2f1g contracted to 6s4p3d1f1g pattern {711111/2111/211/2/1}
 Group   4 Type O   : 12s5p4d2f1g contracted to 6s4p3d1f1g pattern {711111/2111/211/2/1}

Atom   0C    basis set group =>   1
Atom   1C    basis set group =>   1
Atom   2C    basis set group =>   1
Atom   3C    basis set group =>   1
Atom   4C    basis set group =>   1
Atom   5C    basis set group =>   1
Atom   6H    basis set group =>   2
Atom   7H    basis set group =>   2
Atom   8H    basis set group =>   2
Atom   9N    basis set group =>   3
Atom  10O    basis set group =>   4
Atom  11O    basis set group =>   4
Atom  12C    basis set group =>   1
Atom  13H    basis set group =>   2
Atom  14C    basis set group =>   1
Atom  15H    basis set group =>   2
Atom  16H    basis set group =>   2
Atom  17H    basis set group =>   2
Atom  18N    basis set group =>   3
Atom  19O    basis set group =>   4
Atom  20O    basis set group =>   4
Atom  21O    basis set group =>   4
Atom  22H    basis set group =>   2
Atom  23N    basis set group =>   3
Atom  24O    basis set group =>   4
Atom  25O    basis set group =>   4
Atom  26H    basis set group =>   2
Atom  27H    basis set group =>   2
Atom  28O    basis set group =>   4


           ************************************************************
           *        Program running with 102 parallel MPI-processes   *
           *              working on a common directory               *
           ************************************************************
------------------------------------------------------------------------------
                           ORCA GTO INTEGRAL CALCULATION
                           -- RI-GTO INTEGRALS CHOSEN --
------------------------------------------------------------------------------
------------------------------------------------------------------------------
                   ___                                                        
                  /   \      - P O W E R E D   B Y -                         
                 /     \                                                     
                 |  |  |   _    _      __       _____    __    __             
                 |  |  |  | |  | |    /  \     |  _  \  |  |  /  |          
                  \  \/   | |  | |   /    \    | | | |  |  | /  /          
                 / \  \   | |__| |  /  /\  \   | |_| |  |  |/  /          
                |  |  |   |  __  | /  /__\  \  |    /   |      \           
                |  |  |   | |  | | |   __   |  |    \   |  |\   \          
                \     /   | |  | | |  |  |  |  | |\  \  |  | \   \       
                 \___/    |_|  |_| |__|  |__|  |_| \__\ |__|  \__/        
                                                                              
                      - O R C A' S   B I G   F R I E N D -                    
                                      &                                       
                       - I N T E G R A L  F E E D E R -                       
                                                                              
 v1 FN, 2020, v2 2021                                                         
------------------------------------------------------------------------------


Reading SHARK input file /home/rudenko/mop_saddle_orca_4_serv/for_orca/m,m-o2n2c6h4chno2ch3_oh/orca/orca_start/start.SHARKINP.tmp ... ok
----------------------
SHARK INTEGRAL PACKAGE
----------------------

Number of atoms                             ...     29
Number of basis functions                   ...    649
Number of shells                            ...    249
Maximum angular momentum                    ...      3
Integral batch strategy                     ... SHARK/LIBINT Hybrid
RI-J (if used) integral strategy            ... SPLIT-RIJ (Revised 2003 algorithm where possible)
Printlevel                                  ...      1
Contraction scheme used                     ... SEGMENTED contraction
Coulomb Range Separation                    ... NOT USED
Exchange Range Separation                   ... NOT USED
Finite Nucleus Model                        ... NOT USED
Auxiliary Coulomb fitting basis             ... AVAILABLE
   # of basis functions in Aux-J            ...   1041
   # of shells in Aux-J                     ...    335
   Maximum angular momentum in Aux-J        ...      4
Auxiliary J/K fitting basis                 ... NOT available
Auxiliary Correlation fitting basis         ... NOT available
Auxiliary 'external' fitting basis          ... NOT available
Integral threshold                          ...     2.500000e-11
Primitive cut-off                           ...     2.500000e-12
Primitive pair pre-selection threshold      ...     2.500000e-12

Calculating pre-screening integrals         ... done (  0.1 sec) Dimension = 249
Organizing shell pair data                  ... done (  0.6 sec)
Shell pair information
Total number of shell pairs                 ...     31125
Shell pairs after pre-screening             ...     20323
Total number of primitive shell pairs       ...     97468
Primitive shell pairs kept                  ...     42671
          la=0 lb=0:   4961 shell pairs
          la=1 lb=0:   5817 shell pairs
          la=1 lb=1:   1715 shell pairs
          la=2 lb=0:   2925 shell pairs
          la=2 lb=1:   1733 shell pairs
          la=2 lb=2:    450 shell pairs
          la=3 lb=0:   1376 shell pairs
          la=3 lb=1:    834 shell pairs
          la=3 lb=2:    410 shell pairs
          la=3 lb=3:    102 shell pairs

Calculating one electron integrals          ... done (  0.2 sec)
Calculating RI/J V-Matrix + Cholesky decomp.... done (  0.2 sec)
Calculating Nuclear repulsion               ... done (  0.0 sec) ENN=   1407.394812295313 Eh

SHARK setup successfully completed in   1.5 seconds

Maximum memory used throughout the entire GTOINT-calculation: 34.2 MB


           ************************************************************
           *        Program running with 102 parallel MPI-processes   *
           *              working on a common directory               *
           ************************************************************
-------------------------------------------------------------------------------
                                 ORCA SCF
-------------------------------------------------------------------------------

------------
SCF SETTINGS
------------
Hamiltonian:
 Density Functional     Method          .... DFT(GTOs)
 Exchange Functional    Exchange        .... B88
   X-Alpha parameter    XAlpha          ....  0.666667
   Becke's b parameter  XBeta           ....  0.004200
 Correlation Functional Correlation     .... LYP
 LDA part of GGA corr.  LDAOpt          .... VWN-5
 Gradients option       PostSCFGGA      .... off
 Hybrid DFT is turned on
   Fraction HF Exchange ScalHFX         ....  0.200000
   Scaling of DF-GGA-X  ScalDFX         ....  0.720000
   Scaling of DF-GGA-C  ScalDFC         ....  0.810000
   Scaling of DF-LDA-C  ScalLDAC        ....  1.000000
   Perturbative correction              ....  0.000000
   Density functional embedding theory  .... OFF
   NL short-range parameter             ....  4.800000
 RI-approximation to the Coulomb term is turned on
   Number of AuxJ basis functions       .... 1041
   RIJ-COSX (HFX calculated with COS-X)).... on


General Settings:
 Integral files         IntName         .... /home/rudenko/mop_saddle_orca_4_serv/for_orca/m,m-o2n2c6h4chno2ch3_oh/orca/orca_start/start
 Hartree-Fock type      HFTyp           .... RHF
 Total Charge           Charge          ....   -1
 Multiplicity           Mult            ....    1
 Number of Electrons    NEL             ....  144
 Basis Dimension        Dim             ....  649
 Nuclear Repulsion      ENuc            ....   1407.3948122953 Eh

Convergence Acceleration:
 DIIS                   CNVDIIS         .... on
   Start iteration      DIISMaxIt       ....    12
   Startup error        DIISStart       ....  0.200000
   # of expansion vecs  DIISMaxEq       ....     5
   Bias factor          DIISBfac        ....   1.050
   Max. coefficient     DIISMaxC        ....  10.000
 Trust-Rad. Augm. Hess. CNVTRAH         .... auto
   Auto Start mean grad. ratio tolernc. ....  1.125000
   Auto Start start iteration           ....    20
   Auto Start num. interpolation iter.  ....    10
   Max. Number of Micro iterations      ....    16
   Max. Number of Macro iterations      .... Maxiter - #DIIS iter
   Number of Davidson start vectors     ....     2
   Converg. threshold I  (grad. norm)   ....   1.000e-05
   Converg. threshold II (energy diff.) ....   1.000e-08
   Grad. Scal. Fac. for Micro threshold ....   0.100
   Minimum threshold for Micro iter.    ....   0.010
   NR start threshold (gradient norm)   ....   0.001
   Initial trust radius                 ....   0.400
   Minimum AH scaling param. (alpha)    ....   1.000
   Maximum AH scaling param. (alpha)    .... 1000.000
   Orbital update algorithm             .... Taylor
   White noise on init. David. guess    .... on
   Maximum white noise                  ....   0.010
   Quad. conv. algorithm                .... NR
 SOSCF                  CNVSOSCF        .... on
   Start iteration      SOSCFMaxIt      ....   150
   Startup grad/error   SOSCFStart      ....  0.003300
 Level Shifting         CNVShift        .... on
   Level shift para.    LevelShift      ....    0.2500
   Turn off err/grad.   ShiftErr        ....    0.0010
 Zerner damping         CNVZerner       .... off
 Static damping         CNVDamp         .... on
   Fraction old density DampFac         ....    0.7000
   Max. Damping (<1)    DampMax         ....    0.9800
   Min. Damping (>=0)   DampMin         ....    0.0000
   Turn off err/grad.   DampErr         ....    0.1000
 Fernandez-Rico         CNVRico         .... off

SCF Procedure:
 Maximum # iterations   MaxIter         ....   125
 SCF integral mode      SCFMode         .... Direct
   Integral package                     .... SHARK and LIBINT hybrid scheme
 Reset frequency        DirectResetFreq ....    20
 Integral Threshold     Thresh          ....  2.500e-11 Eh
 Primitive CutOff       TCut            ....  2.500e-12 Eh

Convergence Tolerance:
 Convergence Check Mode ConvCheckMode   .... Total+1el-Energy
 Convergence forced     ConvForced      .... 0
 Energy Change          TolE            ....  1.000e-08 Eh
 1-El. energy change                    ....  1.000e-05 Eh
 Orbital Gradient       TolG            ....  1.000e-05
 Orbital Rotation angle TolX            ....  1.000e-05
 DIIS Error             TolErr          ....  5.000e-07


Diagonalization of the overlap matrix:
Smallest eigenvalue                        ... 7.310e-06
Time for diagonalization                   ...    0.159 sec
Threshold for overlap eigenvalues          ... 1.000e-08
Number of eigenvalues below threshold      ... 0
Time for construction of square roots      ...    0.354 sec
Total time needed                          ...    0.516 sec

Time for model grid setup =    0.236 sec

------------------------------
INITIAL GUESS: MODEL POTENTIAL
------------------------------
Loading Hartree-Fock densities                     ... done
Calculating cut-offs                               ... done
Initializing the effective Hamiltonian             ... done
Setting up the integral package (SHARK)            ... done
Starting the Coulomb interaction                   ... done (   0.1 sec)
Reading the grid                                   ... done
Mapping shells                                     ... done
Starting the XC term evaluation                    ... done (   0.1 sec)
  promolecular density results
     # of electrons  =    143.003798658
     EX              =   -129.335429549
     EC              =     -5.038885867
     EX+EC           =   -134.374315417
Transforming the Hamiltonian                       ... done (   0.4 sec)
Diagonalizing the Hamiltonian                      ... done (   0.2 sec)
Back transforming the eigenvectors                 ... done (   0.1 sec)
Now organizing SCF variables                       ... done
                      ------------------
                      INITIAL GUESS DONE (   1.2 sec)
                      ------------------
-------------------
DFT GRID GENERATION
-------------------

General Integration Accuracy     IntAcc      ... 4.388
Radial Grid Type                 RadialGrid  ... OptM3 with GC (2021)
Angular Grid (max. ang.)         AngularGrid ... 4 (Lebedev-302)
Angular grid pruning method      GridPruning ... 4 (adaptive)
Weight generation scheme         WeightScheme... Becke
Basis function cutoff            BFCut       ... 1.0000e-11
Integration weight cutoff        WCut        ... 1.0000e-14
Angular grids for H and He will be reduced by one unit
Partially contracted basis set               ... off
Rotationally invariant grid construction     ... off

Total number of grid points                  ...   146758
Total number of batches                      ...     2310
Average number of points per batch           ...       63
Average number of grid points per atom       ...     5061
Time for grid setup =    1.240 sec

--------------------
COSX GRID GENERATION
--------------------

GRIDX 1
-------
General Integration Accuracy     IntAcc      ... 3.816
Radial Grid Type                 RadialGrid  ... OptM3 with GC (2021)
Angular Grid (max. ang.)         AngularGrid ... 1 (Lebedev-50)
Angular grid pruning method      GridPruning ... 4 (adaptive)
Weight generation scheme         WeightScheme... Becke
Basis function cutoff            BFCut       ... 1.0000e-11
Integration weight cutoff        WCut        ... 1.0000e-14
Angular grids for H and He will be reduced by one unit
Partially contracted basis set               ... on
Rotationally invariant grid construction     ... off

Total number of grid points                  ...    18629
Total number of batches                      ...      303
Average number of points per batch           ...       61
Average number of grid points per atom       ...      642
UseSFitting                                  ... on

GRIDX 2
-------
General Integration Accuracy     IntAcc      ... 4.020
Radial Grid Type                 RadialGrid  ... OptM3 with GC (2021)
Angular Grid (max. ang.)         AngularGrid ... 2 (Lebedev-110)
Angular grid pruning method      GridPruning ... 4 (adaptive)
Weight generation scheme         WeightScheme... Becke
Basis function cutoff            BFCut       ... 1.0000e-11
Integration weight cutoff        WCut        ... 1.0000e-14
Angular grids for H and He will be reduced by one unit
Partially contracted basis set               ... on
Rotationally invariant grid construction     ... off

Total number of grid points                  ...    41609
Total number of batches                      ...      665
Average number of points per batch           ...       62
Average number of grid points per atom       ...     1435
UseSFitting                                  ... on

GRIDX 3
-------
General Integration Accuracy     IntAcc      ... 4.338
Radial Grid Type                 RadialGrid  ... OptM3 with GC (2021)
Angular Grid (max. ang.)         AngularGrid ... 3 (Lebedev-194)
Angular grid pruning method      GridPruning ... 4 (adaptive)
Weight generation scheme         WeightScheme... Becke
Basis function cutoff            BFCut       ... 1.0000e-11
Integration weight cutoff        WCut        ... 1.0000e-14
Angular grids for H and He will be reduced by one unit
Partially contracted basis set               ... on
Rotationally invariant grid construction     ... off

Total number of grid points                  ...    91488
Total number of batches                      ...     1443
Average number of points per batch           ...       63
Average number of grid points per atom       ...     3155
UseSFitting                                  ... on

Time for X-Grid setup             =    2.173 sec


--------------------
CPCM SOLVATION MODEL
--------------------
CPCM parameters:
  Epsilon                                         ...      78.4000
  Refrac                                          ...       1.3300
  Rsolv                                           ...       1.3000
  Surface type                                    ... GAUSSIAN VDW
  Epsilon function type                           ...         CPCM
Radii:
 Radius for C  used is    3.8550 Bohr (=   2.0400 Ang.)
 Radius for H  used is    2.4944 Bohr (=   1.3200 Ang.)
 Radius for N  used is    3.5149 Bohr (=   1.8600 Ang.)
 Radius for O  used is    3.4469 Bohr (=   1.8240 Ang.)
Calculating surface                               ...        done! (  0.0s)
GEPOL surface points                              ...         1679
GEPOL Volume                                      ...    2047.3647
GEPOL Surface-area                                ...    1190.7237
Calculating surface distance matrix               ...        done! (  0.1s)
Performing Cholesky decomposition & store         ...        done! (  0.5s)
Overall time for CPCM initialization              ...                 0.6s
--------------
SCF ITERATIONS
--------------
ITER       Energy         Delta-E        Max-DP      RMS-DP      [F,P]     Damp
               ***  Starting incremental Fock matrix formation  ***
  0  -1075.8186256309   0.000000000000 0.14001452  0.00120966  0.5241568 0.7000
  1  -1076.2441668077  -0.425541176789 0.10999107  0.00086797  0.1862001 0.7000
                               ***Turning on DIIS***
  2  -1076.3714358368  -0.127269029117 0.09902606  0.00107685  0.0357284 0.0000
  3  -1076.6303808538  -0.258945017001 0.03104441  0.00020691  0.1075964 0.7000
  4  -1076.6458631942  -0.015482340419 0.10946244  0.00071291  0.0681778 0.0000
  5  -1076.6658473262  -0.019984132014 0.00946098  0.00008733  0.0252202 0.0000
                      *** Initiating the SOSCF procedure ***
                           *** Shutting down DIIS ***
                      *** Re-Reading the Fockian *** 
                      *** Removing any level shift *** 
ITER      Energy       Delta-E        Grad      Rot      Max-DP    RMS-DP
  6  -1076.66713025  -0.0012829227  0.000541  0.000541  0.003204  0.000030
               *** Restarting incremental Fock matrix formation ***
  7  -1076.66717351  -0.0000432620  0.000389  0.001054  0.003414  0.000029
  8  -1076.66716756   0.0000059544  0.000645  0.000487  0.000780  0.000010
  9  -1076.66717946  -0.0000119038  0.000041  0.000090  0.000324  0.000003
 10  -1076.66717942   0.0000000400  0.000050  0.000095  0.000128  0.000001
 11  -1076.66717953  -0.0000001115  0.000032  0.000085  0.000212  0.000002
 12  -1076.66717952   0.0000000107  0.000041  0.000051  0.000158  0.000001
 13  -1076.66717956  -0.0000000379  0.000006  0.000010  0.000352  0.000002
 14  -1076.66717954   0.0000000147  0.000011  0.000006  0.000120  0.000001
                  ***Gradient check signals convergence***
              ***Rediagonalizing the Fockian in SOSCF/NRSCF***

               *****************************************************
               *                     SUCCESS                       *
               *           SCF CONVERGED AFTER  15 CYCLES          *
               *****************************************************

Old exchange energy                            =    -26.109039107 Eh
New exchange energy                            =    -26.109026161 Eh
Exchange energy change after final integration =      0.000012947 Eh
Total energy after final integration           =  -1076.667166592 Eh
Final COS-X integration done in                =     2.529 sec

----------------
TOTAL SCF ENERGY
----------------

Total Energy       :        -1076.66716659 Eh          -29297.60306 eV

Components:
Nuclear Repulsion  :         1407.39481230 Eh           38297.15983 eV
Electronic Energy  :        -2484.06197889 Eh          -67594.76290 eV
One Electron Energy:        -4279.09103980 Eh         -116439.98689 eV
Two Electron Energy:         1795.02906092 Eh           48845.22399 eV
Max COSX asymmetry :            0.00000127 Eh               0.00003 eV
CPCM Dielectric    :           -0.15442333 Eh              -4.20207 eV

Virial components:
Potential Energy   :        -2149.07590328 Eh          -58479.32836 eV
Kinetic Energy     :         1072.40873669 Eh           29181.72530 eV
Virial Ratio       :            2.00397090


DFT components:
N(Alpha)           :       71.999920077058 electrons
N(Beta)            :       71.999920077058 electrons
N(Total)           :      143.999840154117 electrons
E(X)               :     -104.135580773363 Eh       
E(C)               :       -5.959568490021 Eh       
E(XC)              :     -110.095149263384 Eh       
DFET-embed. en.    :        0.000000000000 Eh       
CPCM Solvation Model Properties:
Surface-charge          :            0.97250058
Charge-correction       :           -0.00268596 Eh              -0.07309 eV
Free-energy (cav+disp)  :  This term is not implemented in the current solvation scheme

---------------
SCF CONVERGENCE
---------------

  Last Energy change         ...    6.2892e-09  Tolerance :   1.0000e-08
  Last MAX-Density change    ...    1.9984e-15  Tolerance :   1.0000e-07
  Last RMS-Density change    ...    1.4907e-17  Tolerance :   5.0000e-09
  Last Orbital Gradient      ...    1.3487e-06  Tolerance :   1.0000e-05
  Last Orbital Rotation      ...    1.6190e-06  Tolerance :   1.0000e-05

             **** THE GBW FILE WAS UPDATED (/home/rudenko/mop_saddle_orca_4_serv/for_orca/m,m-o2n2c6h4chno2ch3_oh/orca/orca_start/start.gbw) ****
             **** DENSITY /home/rudenko/mop_saddle_orca_4_serv/for_orca/m,m-o2n2c6h4chno2ch3_oh/orca/orca_start/start.scfp WAS UPDATED ****
             **** ENERGY FILE WAS UPDATED (/home/rudenko/mop_saddle_orca_4_serv/for_orca/m,m-o2n2c6h4chno2ch3_oh/orca/orca_start/start.en.tmp) ****
             **** THE GBW FILE WAS UPDATED (/home/rudenko/mop_saddle_orca_4_serv/for_orca/m,m-o2n2c6h4chno2ch3_oh/orca/orca_start/start.gbw) ****
             **** DENSITY /home/rudenko/mop_saddle_orca_4_serv/for_orca/m,m-o2n2c6h4chno2ch3_oh/orca/orca_start/start.scfp WAS UPDATED ****
----------------
ORBITAL ENERGIES
----------------

  NO   OCC          E(Eh)            E(eV) 
   0   2.0000     -19.177894      -521.8570 
   1   2.0000     -19.176190      -521.8107 
   2   2.0000     -19.176087      -521.8079 
   3   2.0000     -19.175704      -521.7974 
   4   2.0000     -19.175584      -521.7942 
   5   2.0000     -19.174757      -521.7717 
   6   2.0000     -19.104024      -519.8469 
   7   2.0000     -18.977366      -516.4004 
   8   2.0000     -14.572402      -396.5352 
   9   2.0000     -14.572047      -396.5256 
  10   2.0000     -14.562838      -396.2750 
  11   2.0000     -10.262214      -279.2491 
  12   2.0000     -10.262120      -279.2465 
  13   2.0000     -10.258293      -279.1423 
  14   2.0000     -10.234315      -278.4899 
  15   2.0000     -10.229595      -278.3614 
  16   2.0000     -10.228988      -278.3449 
  17   2.0000     -10.228180      -278.3229 
  18   2.0000     -10.181265      -277.0463 
  19   2.0000      -1.254863       -34.1466 
  20   2.0000      -1.254049       -34.1244 
  21   2.0000      -1.251919       -34.0664 
  22   2.0000      -1.075352       -29.2618 
  23   2.0000      -1.074999       -29.2522 
  24   2.0000      -1.074201       -29.2305 
  25   2.0000      -0.989587       -26.9280 
  26   2.0000      -0.925226       -25.1767 
  27   2.0000      -0.867245       -23.5989 
  28   2.0000      -0.854842       -23.2614 
  29   2.0000      -0.845765       -23.0144 
  30   2.0000      -0.798393       -21.7254 
  31   2.0000      -0.739576       -20.1249 
  32   2.0000      -0.729643       -19.8546 
  33   2.0000      -0.703445       -19.1417 
  34   2.0000      -0.653918       -17.7940 
  35   2.0000      -0.608522       -16.5587 
  36   2.0000      -0.597592       -16.2613 
  37   2.0000      -0.584326       -15.9003 
  38   2.0000      -0.565801       -15.3962 
  39   2.0000      -0.560980       -15.2650 
  40   2.0000      -0.558102       -15.1867 
  41   2.0000      -0.551797       -15.0151 
  42   2.0000      -0.545293       -14.8382 
  43   2.0000      -0.537947       -14.6383 
  44   2.0000      -0.536952       -14.6112 
  45   2.0000      -0.530723       -14.4417 
  46   2.0000      -0.522355       -14.2140 
  47   2.0000      -0.505242       -13.7483 
  48   2.0000      -0.499534       -13.5930 
  49   2.0000      -0.471719       -12.8361 
  50   2.0000      -0.428295       -11.6545 
  51   2.0000      -0.417131       -11.3507 
  52   2.0000      -0.410338       -11.1659 
  53   2.0000      -0.404855       -11.0167 
  54   2.0000      -0.394079       -10.7234 
  55   2.0000      -0.379287       -10.3209 
  56   2.0000      -0.375251       -10.2111 
  57   2.0000      -0.344632        -9.3779 
  58   2.0000      -0.338556        -9.2126 
  59   2.0000      -0.337541        -9.1850 
  60   2.0000      -0.336884        -9.1671 
  61   2.0000      -0.335646        -9.1334 
  62   2.0000      -0.334135        -9.0923 
  63   2.0000      -0.330252        -8.9866 
  64   2.0000      -0.320425        -8.7192 
  65   2.0000      -0.315668        -8.5898 
  66   2.0000      -0.314547        -8.5593 
  67   2.0000      -0.305757        -8.3201 
  68   2.0000      -0.301266        -8.1979 
  69   2.0000      -0.291646        -7.9361 
  70   2.0000      -0.196698        -5.3524 
  71   2.0000      -0.193518        -5.2659 
  72   0.0000      -0.119192        -3.2434 
  73   0.0000      -0.112131        -3.0512 
  74   0.0000      -0.087631        -2.3846 
  75   0.0000      -0.043585        -1.1860 
  76   0.0000      -0.009851        -0.2681 
  77   0.0000       0.027869         0.7584 
  78   0.0000       0.051937         1.4133 
  79   0.0000       0.062580         1.7029 
  80   0.0000       0.075617         2.0576 
  81   0.0000       0.080223         2.1830 
  82   0.0000       0.088548         2.4095 
  83   0.0000       0.102505         2.7893 
  84   0.0000       0.107697         2.9306 
  85   0.0000       0.114999         3.1293 
  86   0.0000       0.120136         3.2691 
  87   0.0000       0.123943         3.3727 
  88   0.0000       0.130913         3.5623 
  89   0.0000       0.138130         3.7587 
  90   0.0000       0.153492         4.1767 
  91   0.0000       0.156483         4.2581 
  92   0.0000       0.171958         4.6792 
  93   0.0000       0.181499         4.9388 
  94   0.0000       0.183270         4.9870 
  95   0.0000       0.186588         5.0773 
  96   0.0000       0.197567         5.3761 
  97   0.0000       0.203925         5.5491 
  98   0.0000       0.215523         5.8647 
  99   0.0000       0.217453         5.9172 
 100   0.0000       0.227277         6.1845 
 101   0.0000       0.236243         6.4285 
 102   0.0000       0.240690         6.5495 
 103   0.0000       0.243705         6.6316 
 104   0.0000       0.247280         6.7288 
 105   0.0000       0.252283         6.8650 
 106   0.0000       0.277953         7.5635 
 107   0.0000       0.280125         7.6226 
 108   0.0000       0.291225         7.9246 
 109   0.0000       0.297534         8.0963 
 110   0.0000       0.302490         8.2312 
 111   0.0000       0.303919         8.2701 
 112   0.0000       0.309266         8.4156 
 113   0.0000       0.312249         8.4967 
 114   0.0000       0.321935         8.7603 
 115   0.0000       0.332153         9.0384 
 116   0.0000       0.333467         9.0741 
 117   0.0000       0.341735         9.2991 
 118   0.0000       0.354711         9.6522 
 119   0.0000       0.358271         9.7491 
 120   0.0000       0.360904         9.8207 
 121   0.0000       0.370841        10.0911 
 122   0.0000       0.373901        10.1744 
 123   0.0000       0.378990        10.3129 
 124   0.0000       0.383084        10.4243 
 125   0.0000       0.385475        10.4893 
 126   0.0000       0.391530        10.6541 
 127   0.0000       0.402180        10.9439 
 128   0.0000       0.407701        11.0941 
 129   0.0000       0.415239        11.2992 
 130   0.0000       0.421150        11.4601 
 131   0.0000       0.426206        11.5976 
 132   0.0000       0.432489        11.7686 
 133   0.0000       0.433697        11.8015 
 134   0.0000       0.434762        11.8305 
 135   0.0000       0.441168        12.0048 
 136   0.0000       0.446795        12.1579 
 137   0.0000       0.452258        12.3066 
 138   0.0000       0.457420        12.4470 
 139   0.0000       0.459535        12.5046 
 140   0.0000       0.465351        12.6628 
 141   0.0000       0.472211        12.8495 
 142   0.0000       0.475137        12.9291 
 143   0.0000       0.479279        13.0419 
 144   0.0000       0.489737        13.3264 
 145   0.0000       0.493873        13.4390 
 146   0.0000       0.495906        13.4943 
 147   0.0000       0.498709        13.5706 
 148   0.0000       0.502339        13.6693 
 149   0.0000       0.512833        13.9549 
 150   0.0000       0.514232        13.9930 
 151   0.0000       0.521021        14.1777 
 152   0.0000       0.529305        14.4031 
 153   0.0000       0.540677        14.7126 
 154   0.0000       0.551424        15.0050 
 155   0.0000       0.552887        15.0448 
 156   0.0000       0.560975        15.2649 
 157   0.0000       0.571190        15.5429 
 158   0.0000       0.583196        15.8696 
 159   0.0000       0.589470        16.0403 
 160   0.0000       0.595618        16.2076 
 161   0.0000       0.600582        16.3427 
 162   0.0000       0.605408        16.4740 
 163   0.0000       0.607324        16.5261 
 164   0.0000       0.612969        16.6797 
 165   0.0000       0.616696        16.7812 
 166   0.0000       0.623683        16.9713 
 167   0.0000       0.626238        17.0408 
 168   0.0000       0.639316        17.3967 
 169   0.0000       0.647860        17.6292 
 170   0.0000       0.659771        17.9533 
 171   0.0000       0.662861        18.0374 
 172   0.0000       0.666600        18.1391 
 173   0.0000       0.671758        18.2795 
 174   0.0000       0.678477        18.4623 
 175   0.0000       0.691511        18.8170 
 176   0.0000       0.703181        19.1345 
 177   0.0000       0.714194        19.4342 
 178   0.0000       0.718490        19.5511 
 179   0.0000       0.724092        19.7035 
 180   0.0000       0.731545        19.9064 
 181   0.0000       0.749089        20.3838 
 182   0.0000       0.753262        20.4973 
 183   0.0000       0.771120        20.9832 
 184   0.0000       0.782803        21.3012 
 185   0.0000       0.787671        21.4336 
 186   0.0000       0.797388        21.6980 
 187   0.0000       0.817546        22.2466 
 188   0.0000       0.820005        22.3135 
 189   0.0000       0.820439        22.3253 
 190   0.0000       0.827263        22.5110 
 191   0.0000       0.839550        22.8453 
 192   0.0000       0.857303        23.3284 
 193   0.0000       0.877886        23.8885 
 194   0.0000       0.897898        24.4331 
 195   0.0000       0.906676        24.6719 
 196   0.0000       0.927063        25.2267 
 197   0.0000       0.942867        25.6567 
 198   0.0000       0.958090        26.0710 
 199   0.0000       0.964176        26.2366 
 200   0.0000       0.971513        26.4362 
 201   0.0000       0.979398        26.6508 
 202   0.0000       0.996718        27.1221 
 203   0.0000       1.012370        27.5480 
 204   0.0000       1.015789        27.6410 
 205   0.0000       1.022881        27.8340 
 206   0.0000       1.032549        28.0971 
 207   0.0000       1.057113        28.7655 
 208   0.0000       1.060590        28.8601 
 209   0.0000       1.075022        29.2528 
 210   0.0000       1.083863        29.4934 
 211   0.0000       1.089485        29.6464 
 212   0.0000       1.120539        30.4914 
 213   0.0000       1.128120        30.6977 
 214   0.0000       1.138362        30.9764 
 215   0.0000       1.156487        31.4696 
 216   0.0000       1.162805        31.6415 
 217   0.0000       1.176254        32.0075 
 218   0.0000       1.188794        32.3487 
 219   0.0000       1.194412        32.5016 
 220   0.0000       1.213827        33.0299 
 221   0.0000       1.215259        33.0689 
 222   0.0000       1.223504        33.2932 
 223   0.0000       1.245873        33.9019 
 224   0.0000       1.257266        34.2119 
 225   0.0000       1.260912        34.3112 
 226   0.0000       1.275911        34.7193 
 227   0.0000       1.295832        35.2614 
 228   0.0000       1.299712        35.3670 
 229   0.0000       1.306449        35.5503 
 230   0.0000       1.313745        35.7488 
 231   0.0000       1.323290        36.0085 
 232   0.0000       1.340819        36.4855 
 233   0.0000       1.353346        36.8264 
 234   0.0000       1.357767        36.9467 
 235   0.0000       1.360405        37.0185 
 236   0.0000       1.372938        37.3595 
 237   0.0000       1.376163        37.4473 
 238   0.0000       1.386324        37.7238 
 239   0.0000       1.397103        38.0171 
 240   0.0000       1.406646        38.2768 
 241   0.0000       1.418212        38.5915 
 242   0.0000       1.425409        38.7874 
 243   0.0000       1.443633        39.2832 
 244   0.0000       1.453805        39.5600 
 245   0.0000       1.482096        40.3299 
 246   0.0000       1.493597        40.6428 
 247   0.0000       1.498253        40.7695 
 248   0.0000       1.500751        40.8375 
 249   0.0000       1.506106        40.9832 
 250   0.0000       1.524652        41.4879 
 251   0.0000       1.539996        41.9054 
 252   0.0000       1.541941        41.9583 
 253   0.0000       1.549899        42.1749 
 254   0.0000       1.574999        42.8579 
 255   0.0000       1.577654        42.9301 
 256   0.0000       1.583384        43.0861 
 257   0.0000       1.593635        43.3650 
 258   0.0000       1.596603        43.4458 
 259   0.0000       1.609472        43.7960 
 260   0.0000       1.617413        44.0120 
 261   0.0000       1.624270        44.1986 
 262   0.0000       1.627072        44.2749 
 263   0.0000       1.632338        44.4182 
 264   0.0000       1.645321        44.7715 
 265   0.0000       1.655623        45.0518 
 266   0.0000       1.663210        45.2582 
 267   0.0000       1.671945        45.4959 
 268   0.0000       1.681034        45.7433 
 269   0.0000       1.693376        46.0791 
 270   0.0000       1.701984        46.3134 
 271   0.0000       1.707667        46.4680 
 272   0.0000       1.727556        47.0092 
 273   0.0000       1.732245        47.1368 
 274   0.0000       1.741964        47.4013 
 275   0.0000       1.747354        47.5479 
 276   0.0000       1.757286        47.8182 
 277   0.0000       1.774661        48.2910 
 278   0.0000       1.782278        48.4982 
 279   0.0000       1.801106        49.0106 
 280   0.0000       1.810857        49.2759 
 281   0.0000       1.817578        49.4588 
 282   0.0000       1.838988        50.0414 
 283   0.0000       1.850921        50.3661 
 284   0.0000       1.859491        50.5993 
 285   0.0000       1.862681        50.6861 
 286   0.0000       1.884870        51.2899 
 287   0.0000       1.888114        51.3782 
 288   0.0000       1.910915        51.9986 
 289   0.0000       1.913665        52.0735 
 290   0.0000       1.923922        52.3526 
 291   0.0000       1.928656        52.4814 
 292   0.0000       1.933989        52.6265 
 293   0.0000       1.949793        53.0566 
 294   0.0000       1.970463        53.6190 
 295   0.0000       1.973966        53.7143 
 296   0.0000       2.001526        54.4643 
 297   0.0000       2.018805        54.9345 
 298   0.0000       2.036407        55.4135 
 299   0.0000       2.042347        55.5751 
 300   0.0000       2.047501        55.7153 
 301   0.0000       2.057618        55.9906 
 302   0.0000       2.063560        56.1523 
 303   0.0000       2.071442        56.3668 
 304   0.0000       2.072153        56.3861 
 305   0.0000       2.074714        56.4558 
 306   0.0000       2.094832        57.0033 
 307   0.0000       2.098125        57.0929 
 308   0.0000       2.105695        57.2989 
 309   0.0000       2.109077        57.3909 
 310   0.0000       2.111847        57.4663 
 311   0.0000       2.120369        57.6982 
 312   0.0000       2.125445        57.8363 
 313   0.0000       2.149212        58.4830 
 314   0.0000       2.167106        58.9699 
 315   0.0000       2.174503        59.1712 
 316   0.0000       2.186452        59.4964 
 317   0.0000       2.204663        59.9919 
 318   0.0000       2.218421        60.3663 
 319   0.0000       2.222923        60.4888 
 320   0.0000       2.233750        60.7834 
 321   0.0000       2.238188        60.9042 
 322   0.0000       2.245196        61.0949 
 323   0.0000       2.253414        61.3185 
 324   0.0000       2.259650        61.4882 
 325   0.0000       2.266548        61.6759 
 326   0.0000       2.279711        62.0341 
 327   0.0000       2.297387        62.5151 
 328   0.0000       2.305619        62.7391 
 329   0.0000       2.328348        63.3576 
 330   0.0000       2.363424        64.3120 
 331   0.0000       2.373109        64.5756 
 332   0.0000       2.389247        65.0147 
 333   0.0000       2.395579        65.1870 
 334   0.0000       2.400660        65.3253 
 335   0.0000       2.410471        65.5922 
 336   0.0000       2.432139        66.1819 
 337   0.0000       2.461749        66.9876 
 338   0.0000       2.473041        67.2949 
 339   0.0000       2.479612        67.4737 
 340   0.0000       2.481937        67.5369 
 341   0.0000       2.500512        68.0424 
 342   0.0000       2.505646        68.1821 
 343   0.0000       2.528010        68.7906 
 344   0.0000       2.536814        69.0302 
 345   0.0000       2.558563        69.6220 
 346   0.0000       2.565008        69.7974 
 347   0.0000       2.573346        70.0243 
 348   0.0000       2.579289        70.1860 
 349   0.0000       2.596705        70.6599 
 350   0.0000       2.601720        70.7964 
 351   0.0000       2.610501        71.0353 
 352   0.0000       2.617196        71.2175 
 353   0.0000       2.620508        71.3076 
 354   0.0000       2.624855        71.4259 
 355   0.0000       2.630452        71.5782 
 356   0.0000       2.645268        71.9814 
 357   0.0000       2.657630        72.3178 
 358   0.0000       2.681501        72.9674 
 359   0.0000       2.685855        73.0858 
 360   0.0000       2.693448        73.2925 
 361   0.0000       2.697586        73.4051 
 362   0.0000       2.706616        73.6508 
 363   0.0000       2.716585        73.9220 
 364   0.0000       2.718093        73.9631 
 365   0.0000       2.719301        73.9959 
 366   0.0000       2.732520        74.3557 
 367   0.0000       2.737362        74.4874 
 368   0.0000       2.744259        74.6751 
 369   0.0000       2.746968        74.7488 
 370   0.0000       2.757055        75.0233 
 371   0.0000       2.769805        75.3702 
 372   0.0000       2.773201        75.4626 
 373   0.0000       2.786648        75.8286 
 374   0.0000       2.803648        76.2911 
 375   0.0000       2.815591        76.6161 
 376   0.0000       2.822123        76.7939 
 377   0.0000       2.825005        76.8723 
 378   0.0000       2.832083        77.0649 
 379   0.0000       2.847669        77.4890 
 380   0.0000       2.871011        78.1242 
 381   0.0000       2.885262        78.5120 
 382   0.0000       2.895336        78.7861 
 383   0.0000       2.905737        79.0691 
 384   0.0000       2.919055        79.4315 
 385   0.0000       2.926738        79.6406 
 386   0.0000       2.935596        79.8816 
 387   0.0000       2.943262        80.0902 
 388   0.0000       2.953960        80.3813 
 389   0.0000       2.979264        81.0699 
 390   0.0000       2.980491        81.1033 
 391   0.0000       2.986911        81.2780 
 392   0.0000       2.989098        81.3375 
 393   0.0000       3.020107        82.1813 
 394   0.0000       3.031832        82.5004 
 395   0.0000       3.040822        82.7450 
 396   0.0000       3.051021        83.0225 
 397   0.0000       3.061314        83.3026 
 398   0.0000       3.068131        83.4881 
 399   0.0000       3.079166        83.7884 
 400   0.0000       3.100383        84.3657 
 401   0.0000       3.114353        84.7459 
 402   0.0000       3.127250        85.0968 
 403   0.0000       3.136437        85.3468 
 404   0.0000       3.146937        85.6325 
 405   0.0000       3.159689        85.9795 
 406   0.0000       3.164842        86.1197 
 407   0.0000       3.177546        86.4654 
 408   0.0000       3.189001        86.7771 
 409   0.0000       3.193948        86.9117 
 410   0.0000       3.203259        87.1651 
 411   0.0000       3.216326        87.5207 
 412   0.0000       3.228211        87.8441 
 413   0.0000       3.232297        87.9553 
 414   0.0000       3.237779        88.1044 
 415   0.0000       3.246425        88.3397 
 416   0.0000       3.265574        88.8608 
 417   0.0000       3.273535        89.0774 
 418   0.0000       3.287013        89.4442 
 419   0.0000       3.308318        90.0239 
 420   0.0000       3.317999        90.2873 
 421   0.0000       3.326821        90.5274 
 422   0.0000       3.346525        91.0636 
 423   0.0000       3.356264        91.3286 
 424   0.0000       3.364607        91.5556 
 425   0.0000       3.369147        91.6791 
 426   0.0000       3.386785        92.1591 
 427   0.0000       3.398690        92.4830 
 428   0.0000       3.404293        92.6355 
 429   0.0000       3.419016        93.0362 
 430   0.0000       3.443297        93.6969 
 431   0.0000       3.448589        93.8409 
 432   0.0000       3.484389        94.8151 
 433   0.0000       3.489457        94.9529 
 434   0.0000       3.494346        95.0860 
 435   0.0000       3.526839        95.9702 
 436   0.0000       3.533559        96.1530 
 437   0.0000       3.553180        96.6869 
 438   0.0000       3.591089        97.7185 
 439   0.0000       3.611621        98.2772 
 440   0.0000       3.642096        99.1065 
 441   0.0000       3.666093        99.7595 
 442   0.0000       3.678356       100.0932 
 443   0.0000       3.679907       100.1354 
 444   0.0000       3.688271       100.3630 
 445   0.0000       3.703045       100.7650 
 446   0.0000       3.710413       100.9655 
 447   0.0000       3.716378       101.1278 
 448   0.0000       3.721846       101.2766 
 449   0.0000       3.744903       101.9040 
 450   0.0000       3.780218       102.8650 
 451   0.0000       3.812593       103.7459 
 452   0.0000       3.834869       104.3521 
 453   0.0000       3.847803       104.7040 
 454   0.0000       3.875393       105.4548 
 455   0.0000       3.903886       106.2301 
 456   0.0000       3.904217       106.2391 
 457   0.0000       3.934346       107.0590 
 458   0.0000       3.944718       107.3412 
 459   0.0000       3.949997       107.4849 
 460   0.0000       3.963790       107.8602 
 461   0.0000       3.967841       107.9704 
 462   0.0000       3.981067       108.3303 
 463   0.0000       3.987077       108.4939 
 464   0.0000       3.994696       108.7012 
 465   0.0000       4.029606       109.6512 
 466   0.0000       4.037356       109.8620 
 467   0.0000       4.046600       110.1136 
 468   0.0000       4.060190       110.4834 
 469   0.0000       4.066363       110.6514 
 470   0.0000       4.093494       111.3896 
 471   0.0000       4.113032       111.9213 
 472   0.0000       4.125096       112.2496 
 473   0.0000       4.141341       112.6916 
 474   0.0000       4.146517       112.8325 
 475   0.0000       4.169100       113.4470 
 476   0.0000       4.189761       114.0092 
 477   0.0000       4.215835       114.7187 
 478   0.0000       4.222904       114.9111 
 479   0.0000       4.250071       115.6503 
 480   0.0000       4.263909       116.0269 
 481   0.0000       4.294023       116.8463 
 482   0.0000       4.305643       117.1625 
 483   0.0000       4.312739       117.3556 
 484   0.0000       4.342788       118.1733 
 485   0.0000       4.445738       120.9747 
 486   0.0000       4.460494       121.3762 
 487   0.0000       4.474100       121.7465 
 488   0.0000       4.494030       122.2888 
 489   0.0000       4.502462       122.5182 
 490   0.0000       4.535693       123.4225 
 491   0.0000       4.551031       123.8399 
 492   0.0000       4.562070       124.1402 
 493   0.0000       4.567990       124.3013 
 494   0.0000       4.592977       124.9813 
 495   0.0000       4.615282       125.5882 
 496   0.0000       4.638124       126.2098 
 497   0.0000       4.659765       126.7987 
 498   0.0000       4.666590       126.9844 
 499   0.0000       4.674265       127.1932 
 500   0.0000       4.688869       127.5906 
 501   0.0000       4.718731       128.4032 
 502   0.0000       4.737650       128.9180 
 503   0.0000       4.743831       129.0862 
 504   0.0000       4.755921       129.4152 
 505   0.0000       4.777016       129.9892 
 506   0.0000       4.791533       130.3843 
 507   0.0000       4.805625       130.7677 
 508   0.0000       4.814859       131.0190 
 509   0.0000       4.824358       131.2775 
 510   0.0000       4.845346       131.8486 
 511   0.0000       4.897940       133.2797 
 512   0.0000       4.903045       133.4186 
 513   0.0000       4.952350       134.7603 
 514   0.0000       4.964256       135.0843 
 515   0.0000       4.994552       135.9087 
 516   0.0000       5.019914       136.5988 
 517   0.0000       5.043160       137.2313 
 518   0.0000       5.053648       137.5168 
 519   0.0000       5.079468       138.2193 
 520   0.0000       5.083897       138.3399 
 521   0.0000       5.089947       138.5045 
 522   0.0000       5.106551       138.9563 
 523   0.0000       5.110541       139.0649 
 524   0.0000       5.110746       139.0705 
 525   0.0000       5.116309       139.2218 
 526   0.0000       5.122155       139.3809 
 527   0.0000       5.123985       139.4307 
 528   0.0000       5.125278       139.4659 
 529   0.0000       5.128151       139.5441 
 530   0.0000       5.133191       139.6812 
 531   0.0000       5.137022       139.7855 
 532   0.0000       5.183046       141.0379 
 533   0.0000       5.198587       141.4608 
 534   0.0000       5.218211       141.9947 
 535   0.0000       5.235162       142.4560 
 536   0.0000       5.236273       142.4862 
 537   0.0000       5.246543       142.7657 
 538   0.0000       5.251539       142.9016 
 539   0.0000       5.255863       143.0193 
 540   0.0000       5.270495       143.4174 
 541   0.0000       5.273361       143.4955 
 542   0.0000       5.276383       143.5777 
 543   0.0000       5.280424       143.6876 
 544   0.0000       5.287529       143.8810 
 545   0.0000       5.321915       144.8167 
 546   0.0000       5.358040       145.7997 
 547   0.0000       5.363090       145.9371 
 548   0.0000       5.383556       146.4940 
 549   0.0000       5.390232       146.6757 
[...]
Calculating the B-matrix                .... done
Calculating the G,G- and P matrices     .... done
Transforming gradient to internals      .... done
Projecting the internal gradient        .... done
Number of atoms                         ....  29
Number of internal coordinates          .... 186
Current Energy                          .... -1076.753926447 Eh
Current gradient norm                   ....     0.003964707 Eh/bohr
Maximum allowed component of the step   ....  0.300
Current trust radius                    ....  0.300
Updating the Hessian (BFGS)             .... done
Forming the augmented Hessian           .... done
Diagonalizing the augmented Hessian     .... done
Last element of RFO vector              ....  0.963692832
Lowest eigenvalues of augmented Hessian:
 -0.000072298  0.000470564  0.000570933  0.000829179  0.001215392
Length of the computed step             ....  0.277073082
The final length of the internal step   ....  0.277073082
Converting the step to cartesian space:
 Initial RMS(Int)=    0.0203159840
Transforming coordinates:
 Iter   0:  RMS(Cart)=    0.0213776764 RMS(Int)=    0.6514212670
 Iter   1:  RMS(Cart)=    0.0004204623 RMS(Int)=    0.0002356955
 Iter   2:  RMS(Cart)=    0.0000084756 RMS(Int)=    0.0000071692
 Iter   3:  RMS(Cart)=    0.0000003369 RMS(Int)=    0.0000003533
 Iter   4:  RMS(Cart)=    0.0000000136 RMS(Int)=    0.0000000190
done
Storing new coordinates                 .... done

                                .--------------------.
          ----------------------|Geometry convergence|-------------------------
          Item                value                   Tolerance       Converged
          ---------------------------------------------------------------------
          Energy change      -0.0000460911            0.0000050000      NO
          RMS gradient        0.0001961534            0.0001000000      NO
          MAX gradient        0.0010896086            0.0003000000      NO
          RMS step            0.0203159840            0.0020000000      NO
          MAX step            0.1154531900            0.0040000000      NO
          ........................................................
          Max(Bonds)      0.0228      Max(Angles)    1.81
          Max(Dihed)        6.61      Max(Improp)    0.00
          ---------------------------------------------------------------------

The optimization has not yet converged - more geometry cycles are needed


    ---------------------------------------------------------------------------
                         Redundant Internal Coordinates
                            (Angstroem and degrees)

        Definition                    Value    dE/dq     Step     New-Value
    ----------------------------------------------------------------------------
     1. B(C   1,C   0)                1.3880 -0.000043 -0.0001    1.3880   
     2. B(C   2,C   1)                1.3940  0.001090 -0.0005    1.3935   
     3. B(C   3,C   2)                1.3914 -0.000254  0.0001    1.3915   
     4. B(C   4,C   3)                1.3871  0.000035  0.0001    1.3873   
     5. B(C   5,C   4)                1.3848  0.000025 -0.0006    1.3842   
     6. B(C   5,C   0)                1.3818 -0.000819  0.0004    1.3822   
     7. B(H   6,C   1)                1.0908  0.000051 -0.0003    1.0905   
     8. B(H   7,C   3)                1.0797  0.000721 -0.0011    1.0786   
     9. B(H   8,C   5)                1.0775  0.000036 -0.0000    1.0775   
    10. B(N   9,C   4)                1.4701 -0.000168 -0.0006    1.4696   
    11. B(O  10,N   9)                1.2219 -0.000431 -0.0001    1.2218   
    12. B(O  11,N   9)                1.2225  0.000084  0.0004    1.2229   
    13. B(C  12,C   2)                1.5060  0.000740  0.0004    1.5065   
    14. B(H  13,C  12)                1.0981 -0.000338  0.0011    1.0993   
    15. B(C  14,C  12)                1.5247 -0.000181 -0.0000    1.5247   
    16. B(H  15,C  14)                1.0888  0.000026  0.0001    1.0889   
    17. B(H  16,C  14)                1.0900 -0.000294  0.0002    1.0902   
    18. B(H  17,C  14)                1.0895 -0.000157  0.0006    1.0901   
    19. B(N  18,C  12)                1.5293 -0.000026 -0.0010    1.5282   
    20. B(O  19,N  18)                1.2203 -0.000233  0.0003    1.2206   
    21. B(O  20,N  18)                1.2195 -0.000017 -0.0004    1.2191   
    22. B(H  22,O  21)                0.9636  0.000522 -0.0004    0.9632   
    23. B(N  23,C   0)                1.4717  0.000224 -0.0006    1.4710   
    24. B(O  24,N  23)                1.2231  0.000134  0.0005    1.2236   
    25. B(O  25,N  23)                1.2219  0.000291 -0.0005    1.2214   
    26. B(H  26,H  13)                2.3356  0.000004  0.0107    2.3463   
    27. B(H  26,H   6)                2.4867 -0.000063 -0.0228    2.4639   
    28. B(H  27,O  21)                1.0419  0.000280 -0.0006    1.0413   
    29. B(H  27,H  26)                2.0196  0.000023 -0.0017    2.0179   
    30. B(O  28,H  13)                2.0335  0.000210 -0.0059    2.0276   
    31. B(O  28,H   6)                2.0963  0.000051 -0.0132    2.0831   
    32. B(O  28,H  26)                0.9643 -0.000170 -0.0008    0.9635   
    33. B(O  28,H  27)                1.5091  0.000171  0.0009    1.5100   
    34. A(C   1,C   0,N  23)          118.89 -0.000360   -0.01    118.89   
    35. A(C   5,C   0,N  23)          118.40  0.000459    0.03    118.43   
    36. A(C   1,C   0,C   5)          122.70 -0.000099   -0.02    122.68   
    37. A(C   0,C   1,C   2)          118.96 -0.000050    0.04    118.99   
    38. A(C   2,C   1,H   6)          118.35 -0.000122   -0.15    118.20   
    39. A(C   0,C   1,H   6)          122.69  0.000173    0.11    122.81   
    40. A(C   3,C   2,C  12)          122.72  0.000235   -0.03    122.69   
    41. A(C   1,C   2,C   3)          119.81 -0.000027   -0.02    119.79   
    42. A(C   1,C   2,C  12)          117.46 -0.000207    0.05    117.51   
    43. A(C   2,C   3,C   4)          119.03 -0.000313    0.00    119.03   
    44. A(C   2,C   3,H   7)          121.36  0.000075    0.08    121.44   
    45. A(C   4,C   3,H   7)          119.60  0.000237   -0.08    119.53   
    46. A(C   5,C   4,N   9)          118.38 -0.000039   -0.07    118.31   
    47. A(C   3,C   4,N   9)          118.97 -0.000201    0.05    119.01   
    48. A(C   3,C   4,C   5)          122.66  0.000239    0.02    122.68   
    49. A(C   4,C   5,H   8)          121.46 -0.000111    0.02    121.48   
    50. A(C   0,C   5,C   4)          116.83  0.000249   -0.01    116.82   
    51. A(C   0,C   5,H   8)          121.71 -0.000139   -0.01    121.70   
    52. A(H  26,H   6,O  28)           22.27 -0.000032    0.27     22.54   
    53. A(C   1,H   6,H  26)          143.50  0.000034   -0.02    143.47   
    54. A(C   1,H   6,O  28)          150.70  0.000040    0.23    150.93   
    55. A(C   4,N   9,O  10)          118.03  0.000135    0.04    118.07   
    56. A(O  10,N   9,O  11)          124.08  0.000354   -0.02    124.06   
    57. A(C   4,N   9,O  11)          117.89 -0.000489   -0.01    117.88   
    58. A(C  14,C  12,N  18)          107.72 -0.000056    0.23    107.95   
    59. A(H  13,C  12,N  18)          103.38 -0.000076   -0.02    103.36   
    60. A(C   2,C  12,N  18)          110.91  0.000045    0.09    111.00   
    61. A(H  13,C  12,C  14)          111.50  0.000081   -0.19    111.31   
    62. A(C   2,C  12,C  14)          114.88 -0.000014   -0.12    114.76   
    63. A(C   2,C  12,H  13)          107.86  0.000015    0.02    107.89   
    64. A(C  12,H  13,O  28)          161.62  0.000103   -0.02    161.60   
    65. A(C  12,H  13,H  26)          156.30  0.000089   -1.81    154.50   
    66. A(H  26,H  13,O  28)           24.26 -0.000040   -0.19     24.06   
    67. A(H  16,C  14,H  17)          108.49 -0.000274   -0.03    108.46   
    68. A(H  15,C  14,H  17)          108.69 -0.000067   -0.11    108.57   
    69. A(C  12,C  14,H  17)          108.40  0.000405    0.01    108.41   
    70. A(H  15,C  14,H  16)          109.17 -0.000009    0.03    109.21   
    71. A(C  12,C  14,H  16)          111.66 -0.000077    0.01    111.67   
    72. A(C  12,C  14,H  15)          110.36  0.000017    0.08    110.45   
    73. A(O  19,N  18,O  20)          124.09  0.000147   -0.04    124.05   
    74. A(C  12,N  18,O  20)          119.89  0.000329    0.06    119.94   
    75. A(C  12,N  18,O  19)          116.01 -0.000477   -0.01    116.00   
    76. A(H  22,O  21,H  27)          105.57 -0.000008   -0.09    105.48   
    77. A(O  24,N  23,O  25)          124.00 -0.000185   -0.00    124.00   
    78. A(C   0,N  23,O  25)          117.94  0.000039    0.02    117.96   
    79. A(C   0,N  23,O  24)          118.05  0.000145   -0.02    118.04   
    80. A(H  13,H  26,H  27)          105.51  0.000162   -0.80    104.71   
    81. A(H   6,H  26,H  27)           82.01  0.000056    0.47     82.48   
    82. A(H  27,H  26,O  28)           45.47  0.000057    0.14     45.61   
    83. A(H   6,H  26,H  13)           53.42  0.000178    0.14     53.56   
    84. A(H  13,H  26,O  28)           60.03  0.000105   -0.94     59.10   
    85. A(H   6,H  26,O  28)           55.46  0.000041    0.47     55.93   
    86. A(H  26,H  27,O  28)           27.10 -0.000050    0.02     27.12   
    87. A(O  21,H  27,H  26)          154.47 -0.000386    0.59    155.06   
    88. A(H   6,O  28,H  27)          110.29 -0.000016    0.38    110.68   
    89. A(H  26,O  28,H  27)          107.43 -0.000008   -0.16    107.27   
    90. A(H   6,O  28,H  13)           63.43  0.000168    0.28     63.70   
    91. A(H  13,O  28,H  26)           95.71 -0.000065    1.13     96.84   
    92. A(H   6,O  28,H  26)          102.27 -0.000010   -0.74    101.53   
    93. D(H   6,C   1,C   0,N  23)      0.47 -0.000136    0.17      0.64   
    94. D(C   2,C   1,C   0,N  23)   -179.90  0.000013   -0.23   -180.13   
    95. D(C   2,C   1,C   0,C   5)     -0.22 -0.000014   -0.22     -0.44   
    96. D(H   6,C   1,C   0,C   5)   -179.85 -0.000163    0.18   -179.67   
    97. D(C   3,C   2,C   1,H   6)    179.07  0.000067   -0.10    178.97   
    98. D(C   3,C   2,C   1,C   0)     -0.58 -0.000077    0.29     -0.29   
    99. D(C  12,C   2,C   1,H   6)      0.01 -0.000009   -0.02     -0.01   
   100. D(C  12,C   2,C   1,C   0)   -179.64 -0.000153    0.37   -179.27   
   101. D(C   4,C   3,C   2,C   1)      0.87  0.000091   -0.14      0.72   
   102. D(H   7,C   3,C   2,C  12)     -0.75  0.000067   -0.09     -0.84   
   103. D(C   4,C   3,C   2,C  12)    179.87  0.000167   -0.22    179.65   
   104. D(H   7,C   3,C   2,C   1)   -179.76 -0.000009   -0.01   -179.77   
   105. D(N   9,C   4,C   3,C   2)    179.30 -0.000138   -0.17    179.13   
   106. D(C   5,C   4,C   3,H   7)   -179.76  0.000075   -0.22   -179.98   
   107. D(C   5,C   4,C   3,C   2)     -0.37 -0.000025   -0.09     -0.46   
   108. D(N   9,C   4,C   3,H   7)     -0.09 -0.000039   -0.30     -0.39   
   109. D(H   8,C   5,C   4,N   9)      0.09  0.000042    0.21      0.29   
   110. D(H   8,C   5,C   4,C   3)    179.77 -0.000071    0.12    179.89   
   111. D(H   8,C   5,C   0,N  23)      0.22  0.000059    0.05      0.26   
   112. D(C   0,C   5,C   4,N   9)    179.93  0.000049    0.24    180.17   
   113. D(C   0,C   5,C   4,C   3)     -0.39 -0.000064    0.16     -0.24   
   114. D(C   4,C   5,C   0,C   1)      0.69  0.000081    0.00      0.70   
   115. D(C   4,C   5,C   0,N  23)   -179.62  0.000051    0.01   -179.61   
   116. D(H   8,C   5,C   0,C   1)   -179.47  0.000088    0.04   -179.43   
   117. D(O  28,H   6,C   1,C   2)     -3.04  0.000004   -1.26     -4.30   
   118. D(O  28,H   6,C   1,C   0)    176.60  0.000153   -1.66    174.94   
   119. D(H  26,H   6,C   1,C   0)    137.04  0.000180   -2.20    134.84   
   120. D(H  26,H   6,C   1,C   2)    -42.60  0.000031   -1.80    -44.40   
   121. D(O  11,N   9,C   4,C   3)      1.01  0.000075    0.12      1.13   
   122. D(O  10,N   9,C   4,C   5)      0.67 -0.000025    0.10      0.77   
   123. D(O  10,N   9,C   4,C   3)   -179.02  0.000083    0.18   -178.84   
   124. D(O  11,N   9,C   4,C   5)   -179.30 -0.000033    0.04   -179.26   
   125. D(N  18,C  12,C   2,C   3)     72.46 -0.000009   -0.60     71.86   
   126. D(N  18,C  12,C   2,C   1)   -108.51  0.000067   -0.68   -109.19   
   127. D(C  14,C  12,C   2,C   3)    -49.97  0.000040   -0.89    -50.86   
   128. D(C  14,C  12,C   2,C   1)    129.06  0.000116   -0.97    128.09   
   129. D(H  13,C  12,C   2,C   3)   -174.99 -0.000068   -0.56   -175.56   
   130. D(H  13,C  12,C   2,C   1)      4.04  0.000008   -0.64      3.40   
   131. D(O  28,H  13,C  12,C  14)   -141.72 -0.000115    5.56   -136.16   
   132. D(O  28,H  13,C  12,N  18)    102.81 -0.000045    5.39    108.20   
   133. D(O  28,H  13,C  12,C   2)    -14.71 -0.000066    5.29     -9.42   
   134. D(H  26,H  13,C  12,N  18)    173.11  0.000169    0.22    173.33   
   135. D(H  26,H  13,C  12,C  14)    -71.43  0.000099    0.39    -71.04   
   136. D(H  26,H  13,C  12,C   2)     55.58  0.000148    0.11     55.70   
   137. D(H  17,C  14,C  12,N  18)    176.32  0.000064   -0.92    175.40   
   138. D(H  17,C  14,C  12,H  13)     63.55  0.000144   -0.92     62.63   
   139. D(H  17,C  14,C  12,C   2)    -59.55  0.000069   -0.70    -60.25   
   140. D(H  16,C  14,C  12,N  18)    -64.23 -0.000059   -0.94    -65.17   
   141. D(H  16,C  14,C  12,H  13)   -177.00  0.000021   -0.94   -177.94   
   142. D(H  16,C  14,C  12,C   2)     59.90 -0.000054   -0.72     59.18   
   143. D(H  15,C  14,C  12,C   2)   -178.47 -0.000106   -0.62   -179.09   
   144. D(H  15,C  14,C  12,H  13)    -55.37 -0.000031   -0.83    -56.21   
   145. D(H  15,C  14,C  12,N  18)     57.40 -0.000111   -0.83     56.56   
   146. D(O  20,N  18,C  12,H  13)   -136.08 -0.000121    2.04   -134.04   
   147. D(O  20,N  18,C  12,C   2)    -20.71 -0.000125    2.09    -18.62   
   148. D(O  19,N  18,C  12,C  14)    -73.39 -0.000022    1.88    -71.51   
   149. D(O  19,N  18,C  12,H  13)     44.74  0.000009    1.75     46.49   
   150. D(O  20,N  18,C  12,C  14)    105.79 -0.000152    2.17    107.95   
   151. D(O  19,N  18,C  12,C   2)    160.11  0.000005    1.81    161.92   
   152. D(H  22,O  21,H  13,H  26)     82.78  0.000029    1.02     83.80   
   153. D(H  22,O  21,H  13,C  12)   -138.03  0.000029   -2.19   -140.22   
   154. D(O  24,N  23,C   0,C   5)     -3.61  0.000003    0.04     -3.57   
   155. D(O  24,N  23,C   0,C   1)    176.08 -0.000024    0.05    176.14   
   156. D(O  25,N  23,C   0,C   5)    176.34 -0.000236   -0.03    176.31   
   157. D(O  25,N  23,C   0,C   1)     -3.97 -0.000263   -0.02     -3.98   
   158. D(H   6,H  26,H  13,O  28)     67.23 -0.000062    1.09     68.32   
   159. D(H   6,H  26,H  13,C  12)    -66.51 -0.000215   -0.18    -66.69   
   160. D(O  28,H  26,H  13,C  12)   -133.74 -0.000153   -1.27   -135.01   
   161. D(H  27,H  26,H   6,O  28)     40.27  0.000052    0.06     40.32   
   162. D(H  27,H  26,H   6,C   1)    164.94  0.000090    0.71    165.65   
   163. D(H  13,H  26,H   6,O  28)    -75.86 -0.000024    1.65    -74.21   
   164. D(H  13,H  26,H   6,C   1)     48.81  0.000015    2.31     51.12   
   165. D(O  28,H  26,H   6,C   1)    124.67  0.000038    0.66    125.33   
   166. D(O  28,H  27,H  26,H   6)    -48.32 -0.000037   -0.29    -48.61   
   167. D(O  21,H  27,H  26,H   6)    126.93 -0.000022    0.09    127.02   
   168. D(O  21,H  27,H  26,O  28)    175.25  0.000015    0.37    175.63   
   169. D(H  26,H  27,O  21,H  22)     83.85  0.000025   -0.07     83.79   
   170. D(H   6,O  28,H  27,H  26)    110.71 -0.000023   -0.80    109.90   
   171. D(H  27,O  28,H  26,H  13)   -179.87  0.000134    0.51   -179.36   
   172. D(H  27,O  28,H  26,H   6)    116.12 -0.000025    0.01    116.13   
   173. D(H  13,O  28,H  26,H   6)    -64.00 -0.000160   -0.50    -64.51   
   174. D(H   6,O  28,H  26,H  27)   -116.12  0.000025   -0.01   -116.13   
   175. D(H   6,O  28,H  26,H  13)     64.00  0.000160    0.50     64.51   
   176. D(H   6,O  28,O  21,H  22)   -169.36 -0.000113   -0.32   -169.68   
   177. D(H  26,O  28,O  21,H  22)     80.08 -0.000028    0.35     80.43   
   178. D(H   6,O  28,H  13,H  26)   -100.88 -0.000022    1.38    -99.51   
   179. D(H   6,O  28,H  13,C  12)     12.06  0.000067   -5.24      6.82   
   180. D(H  26,O  28,H  13,C  12)    112.94  0.000089   -6.61    106.32   
   181. D(H  27,O  28,H   6,H  26)   -114.03  0.000020    0.45   -113.58   
   182. D(H  13,O  28,H  26,H  27)    179.87 -0.000134   -0.51    179.36   
   183. D(H  27,O  28,H   6,C   1)    156.98  0.000068    0.59    157.57   
   184. D(H  13,O  28,H   6,H  26)     90.29 -0.000033    1.73     92.02   
   185. D(H  13,O  28,H   6,C   1)      1.29  0.000015    1.88      3.17   
   186. D(H  26,O  28,H   6,C   1)    -89.00  0.000048    0.15    -88.85   
    ----------------------------------------------------------------------------




    ----------------------------------------------------------------------------
                                  WARNING !!!
       The optimization did not converge but reached the maximum number of
       optimization cycles.
       Please check your results very carefully.
    ----------------------------------------------------------------------------



                            ***************************************
                            *     ORCA property calculations      *
                            ***************************************

                                    ---------------------
                                    Active property flags
                                    ---------------------
   (+) Dipole Moment


------------------------------------------------------------------------------
                       ORCA ELECTRIC PROPERTIES CALCULATION
------------------------------------------------------------------------------

Dipole Moment Calculation                       ... on
Quadrupole Moment Calculation                   ... off
Polarizability Calculation                      ... off
GBWName                                         ... /home/rudenko/mop_saddle_orca_4_serv/for_orca/m,m-o2n2c6h4chno2ch3_oh/orca/orca_start/start.gbw
Electron density                                ... /home/rudenko/mop_saddle_orca_4_serv/for_orca/m,m-o2n2c6h4chno2ch3_oh/orca/orca_start/start.scfp
The origin for moment calculation is the CENTER OF MASS  = ( 1.473572,  0.772708  1.229657)

-------------
DIPOLE MOMENT
-------------
                                X             Y             Z
Electronic contribution:    -13.63264      -4.28091     -16.07913
Nuclear contribution   :     12.84758      -0.90571      12.60223
                        -----------------------------------------
Total Dipole Moment    :     -0.78507      -5.18662      -3.47690
                        -----------------------------------------
Magnitude (a.u.)       :      6.29335
Magnitude (Debye)      :     15.99641



--------------------
Rotational spectrum 
--------------------
 
Rotational constants in cm-1:     0.012261     0.008975     0.005616 
Rotational constants in MHz :   367.576358   269.055347   168.369256 

 Dipole components along the rotational axes: 
x,y,z [a.u.] :    -5.200747     3.026361     1.843790 
x,y,z [Debye]:   -13.219249     7.692400     4.686541 

 

Timings for individual modules:

Sum of individual times         ...     6829.574 sec (= 113.826 min)
GTO integral calculation        ...      467.750 sec (=   7.796 min)   6.8 %
SCF iterations                  ...     5124.543 sec (=  85.409 min)  75.0 %
SCF Gradient evaluation         ...     1232.543 sec (=  20.542 min)  18.0 %
Geometry relaxation             ...        4.736 sec (=   0.079 min)   0.1 %
                             ****ORCA TERMINATED NORMALLY****
TOTAL RUN TIME: 0 days 1 hours 59 minutes 24 seconds 812 msec
