 *******************************************************************************
 **                                                                           **
 **                              MOPAC v22.0.6                                **
 **                                                                           **
 *******************************************************************************
 **          Digital Object Identifier (DOI): 10.5281/zenodo.6511958          **
 **    Visit the DOI location for information on how to cite this program.    **
 *******************************************************************************

                              PM7 CALCULATION RESULTS

 *******************************************************************************
 *  CALCULATION DONE:                                Sat Mar 23 22:55:30 2024  *
 *  PM7        - The PM7 Hamiltonian to be used
 *  SINGLET    - SPIN STATE DEFINED AS A SINGLET
 *
 *
 *
 *                 CHARGE ON SYSTEM = -1
 *
 *
 *
 *  EPS=78.4   - USE ANDREAS KLAMT'S COSMO IMPLICIT SOLVATION MODEL
 *  THREADS    - USE A MAXIMUM OF 30 THREADS
 *  T=         - A TIME OF 14.0 DAYS REQUESTED
 *  DUMP=N     - RESTART FILE WRITTEN EVERY 30.0 MINUTES REQUESTED
 *  RELSCF     - DEFAULT SCF CRITERION MULTIPLIED BY 1.0000
 *              (DEFAULT SCF CRITERION = 0.00010)
 *  ITRY=      - DO A MAXIMUM OF 15000 ITERATIONS FOR SCF
 *  AUX        - OUTPUT AUXILIARY INFORMATION
 *  BONDS      - FINAL BOND-ORDER MATRIX TO BE PRINTED
 *******************************************************************************
PM7 BONDS AUX DUMP=30M ITRY=15000 T=14D THREADS=30 CHARGE=-1 SINGLET eps=78.4 RELSCF=1
 Title: ASE calculation

   ATOM   CHEMICAL          X               Y               Z
  NUMBER   SYMBOL      (ANGSTROMS)     (ANGSTROMS)     (ANGSTROMS)

     1       C          0.15132077  *   1.25814979  *   0.58989274  *
     2       C          0.49654708  *   1.03335444  *  -0.73893940  *
     3       C          0.31535340  *  -0.22533936  *  -1.33756634  *
     4       C         -0.20049107  *  -1.26510420  *  -0.55437509  *
     5       C         -0.52254009  *  -1.03023847  *   0.78582911  *
     6       C         -0.36266658  *   0.22899188  *   1.37144312  *
     7       H          0.28269063  *   2.25214325  *   1.02575441  *
     8       H          0.89353208  *   1.86479338  *  -1.33093335  *
     9       H         -0.37507238  *  -2.25553013  *  -0.98775085  *
    10       H         -0.62983934  *   0.40235438  *   2.41793267  *
    11       N         -1.03815966  *  -2.11465482  *   1.58420484  *
    12       O         -1.36168797  *  -1.90393674  *   2.74724679  *
    13       O         -1.13806297  *  -3.23204103  *   1.09043820  *
    14       C          0.61285671     -0.43931820     -2.74836157   
    15       H          2.60591490     -0.21738899  *  -2.83394045  *
    16       C          0.65441382  *  -1.84057950  *  -3.27303867  *
    17       H          1.03432912  *  -1.90389679  *  -4.30301524  *
    18       H         -0.36405332  *  -2.26853205  *  -3.30379535  *
    19       H          1.26278685  *  -2.51090204  *  -2.65287217  *
    20       N          0.22751284  *   0.51567481  *  -3.64806432  *
    21       O          0.39762959  *   0.35121652  *  -4.87453613  *
    22       O         -0.25519818  *   1.60685794  *  -3.27841350  *
    23       O          6.62775703  *   1.37577956  *  -2.92278221  *
    24       H          6.08099182  *   0.66867795  *  -2.89280937  *
    25       H          3.86190984  *   0.37946384  *  -2.02734187  *
    26       H          3.74836722  *   0.60524108  *  -3.60748805  *
    27       O          3.64019253     -0.12176987     -2.89472273   



          CARTESIAN COORDINATES 

    NO.       ATOM           X           Y           Z

     1         C          0.1513      1.2581      0.5899
     2         C          0.4965      1.0334     -0.7389
     3         C          0.3154     -0.2253     -1.3376
     4         C         -0.2005     -1.2651     -0.5544
     5         C         -0.5225     -1.0302      0.7858
     6         C         -0.3627      0.2290      1.3714
     7         H          0.2827      2.2521      1.0258
     8         H          0.8935      1.8648     -1.3309
     9         H         -0.3751     -2.2555     -0.9878
    10         H         -0.6298      0.4024      2.4179
    11         N         -1.0382     -2.1147      1.5842
    12         O         -1.3617     -1.9039      2.7472
    13         O         -1.1381     -3.2320      1.0904
    14         C          0.6129     -0.4393     -2.7484
    15         H          2.6059     -0.2174     -2.8339
    16         C          0.6544     -1.8406     -3.2730
    17         H          1.0343     -1.9039     -4.3030
    18         H         -0.3641     -2.2685     -3.3038
    19         H          1.2628     -2.5109     -2.6529
    20         N          0.2275      0.5157     -3.6481
    21         O          0.3976      0.3512     -4.8745
    22         O         -0.2552      1.6069     -3.2784
    23         O          6.6278      1.3758     -2.9228
    24         H          6.0810      0.6687     -2.8928
    25         H          3.8619      0.3795     -2.0273
    26         H          3.7484      0.6052     -3.6075
    27         O          3.6402     -0.1218     -2.8947

 General Reference for PM7:
 "Optimization of Parameters for Semiempirical Methods VI: More Modifications to the 
 NDDO Approximations and Re-optimization of Parameters", J. J. P. Stewart, J. Mol. Mod., 1:32, 19 (2013)
 https://link.springer.com/article/10.1007/s00894-012-1667-x

           Empirical Formula: C8 H11 N2 O6  =    27 atoms



      MOLECULAR POINT GROUP   :   C1  


 SINGLET STATE CALCULATION


      RHF CALCULATION, NO. OF DOUBLY OCCUPIED LEVELS = 45


          Geometry optimization using EF
  SCF CRITERION =    0.1000E-03

          DIAGONAL MATRIX USED AS START HESSIAN

 CYCLE:     1 TIME:   0.125 TIME LEFT:  2.00W  GRAD.:     6.841 HEAT: -188.0850
 CYCLE:     2 TIME:   0.297 TIME LEFT:  2.00W  GRAD.:     6.709 HEAT: -188.0860

     TRUST RADIUS NOW LESS THAN  0.00010 OPTIMIZATION TERMINATING
      THE GEOMETRY MAY NOT BE COMPLETELY OPTIMIZED
      (TO CONTINUE, ADD 'LET DDMIN=0.0' TO THE KEYWORD LINE)

 -------------------------------------------------------------------------------
 PM7 BONDS AUX DUMP=30M ITRY=15000 T=14D THREADS=30 CHARGE=-1 SINGLET eps=78.4 RELSCF=1
 Title: ASE calculation



     GEOMETRY OPTIMISED USING EIGENVECTOR FOLLOWING (EF).     
     SCF FIELD WAS ACHIEVED                                   


                              PM7 CALCULATION
                                                       MOPAC v22.0.6 Linux
                                                       Sat Mar 23 22:55:31 2024




          FINAL HEAT OF FORMATION =       -188.08596 KCAL/MOL =    -786.95167 KJ/MOL
          VAN DER WAALS AREA      =        262.18 SQUARE ANGSTROMS



          DIELECTRIC ENERGY       =         -5.23108 EV
          COSMO AREA              =        262.18 SQUARE ANGSTROMS
          COSMO VOLUME            =        268.79 CUBIC ANGSTROMS

          GRADIENT NORM           =          6.70936          =       1.29122 PER ATOM
          IONIZATION POTENTIAL    =          8.725224 EV
          HOMO LUMO ENERGIES (EV) =         -8.725 -1.326
          NO. OF FILLED LEVELS    =         45
          MOLECULAR WEIGHT        =        231.1847         POINT GROUP:  C1  

          MOLECULAR DIMENSIONS (Angstroms)

            Atom       Atom       Distance
            O    23    O    12    10.33136
            H    17    H     7     6.43838
            H    24    O    22     4.65662


          SCF CALCULATIONS        =         13

          WALL-CLOCK TIME         =      0.539 SECONDS
          COMPUTATION TIME        =     42.448 SECONDS



       FINAL  POINT  AND  DERIVATIVES

   PARAMETER     ATOM    TYPE            VALUE        GRADIENT
      1          1  C    CARTESIAN X     0.151331     -0.488492  KCAL/ANGSTROM
      2          1  C    CARTESIAN Y     1.258157     -0.344342  KCAL/ANGSTROM
      3          1  C    CARTESIAN Z     0.589902     -0.503673  KCAL/ANGSTROM
      4          2  C    CARTESIAN X     0.496558     -0.517004  KCAL/ANGSTROM
      5          2  C    CARTESIAN Y     1.033364     -0.498276  KCAL/ANGSTROM
      6          2  C    CARTESIAN Z    -0.738957      0.836931  KCAL/ANGSTROM
      7          3  C    CARTESIAN X     0.315355     -0.084595  KCAL/ANGSTROM
      8          3  C    CARTESIAN Y    -0.225343      0.214267  KCAL/ANGSTROM
      9          3  C    CARTESIAN Z    -1.337567      0.024738  KCAL/ANGSTROM
     10          4  C    CARTESIAN X    -0.200488     -0.171911  KCAL/ANGSTROM
     11          4  C    CARTESIAN Y    -1.265107      0.129843  KCAL/ANGSTROM
     12          4  C    CARTESIAN Z    -0.554379      0.211571  KCAL/ANGSTROM
     13          5  C    CARTESIAN X    -0.522528     -0.574233  KCAL/ANGSTROM
     14          5  C    CARTESIAN Y    -1.030237     -0.002447  KCAL/ANGSTROM
     15          5  C    CARTESIAN Z     0.785824      0.186988  KCAL/ANGSTROM
     16          6  C    CARTESIAN X    -0.362661     -0.289247  KCAL/ANGSTROM
     17          6  C    CARTESIAN Y     0.228984      0.306082  KCAL/ANGSTROM
     18          6  C    CARTESIAN Z     1.371459     -0.753723  KCAL/ANGSTROM
     19          7  H    CARTESIAN X     0.282696     -0.286217  KCAL/ANGSTROM
     20          7  H    CARTESIAN Y     2.252142      0.055255  KCAL/ANGSTROM
     21          7  H    CARTESIAN Z     1.025755     -0.013487  KCAL/ANGSTROM
     22          8  H    CARTESIAN X     0.893552     -1.001492  KCAL/ANGSTROM
     23          8  H    CARTESIAN Y     1.864788      0.282020  KCAL/ANGSTROM
     24          8  H    CARTESIAN Z    -1.330925     -0.386888  KCAL/ANGSTROM
     25          9  H    CARTESIAN X    -0.375056     -0.828787  KCAL/ANGSTROM
     26          9  H    CARTESIAN Y    -2.255527     -0.140203  KCAL/ANGSTROM
     27          9  H    CARTESIAN Z    -0.987750     -0.052802  KCAL/ANGSTROM
     28         10  H    CARTESIAN X    -0.629838     -0.038108  KCAL/ANGSTROM
     29         10  H    CARTESIAN Y     0.402354      0.007192  KCAL/ANGSTROM
     30         10  H    CARTESIAN Z     2.417925      0.388122  KCAL/ANGSTROM
     31         11  N    CARTESIAN X    -1.038156     -0.250005  KCAL/ANGSTROM
     32         11  N    CARTESIAN Y    -2.114663      0.302186  KCAL/ANGSTROM
     33         11  N    CARTESIAN Z     1.584201      0.228481  KCAL/ANGSTROM
     34         12  O    CARTESIAN X    -1.361687     -0.045101  KCAL/ANGSTROM
     35         12  O    CARTESIAN Y    -1.903938      0.073160  KCAL/ANGSTROM
     36         12  O    CARTESIAN Z     2.747243      0.193962  KCAL/ANGSTROM
     37         13  O    CARTESIAN X    -1.138064      0.072016  KCAL/ANGSTROM
     38         13  O    CARTESIAN Y    -3.232033     -0.387932  KCAL/ANGSTROM
     39         13  O    CARTESIAN Z     1.090438     -0.013843  KCAL/ANGSTROM
     40         15  H    CARTESIAN Y    -0.217404      0.760250  KCAL/ANGSTROM
     41         15  H    CARTESIAN Z    -2.833937     -0.161572  KCAL/ANGSTROM
     42         16  C    CARTESIAN X     0.654442     -1.395812  KCAL/ANGSTROM
     43         16  C    CARTESIAN Y    -1.840577     -0.114924  KCAL/ANGSTROM
     44         16  C    CARTESIAN Z    -3.273040      0.069313  KCAL/ANGSTROM
     45         17  H    CARTESIAN X     1.034368     -1.992721  KCAL/ANGSTROM
     46         17  H    CARTESIAN Y    -1.903890     -0.332354  KCAL/ANGSTROM
     47         17  H    CARTESIAN Z    -4.303005     -0.511238  KCAL/ANGSTROM
     48         18  H    CARTESIAN X    -0.364023     -1.552307  KCAL/ANGSTROM
     49         18  H    CARTESIAN Y    -2.268554      1.127546  KCAL/ANGSTROM
     50         18  H    CARTESIAN Z    -3.303800      0.220500  KCAL/ANGSTROM
     51         19  H    CARTESIAN X     1.262820     -1.705374  KCAL/ANGSTROM
     52         19  H    CARTESIAN Y    -2.510885     -0.853667  KCAL/ANGSTROM
     53         19  H    CARTESIAN Z    -2.652865     -0.337040  KCAL/ANGSTROM
     54         20  N    CARTESIAN X     0.227556     -2.136474  KCAL/ANGSTROM
     55         20  N    CARTESIAN Y     0.515656      0.884461  KCAL/ANGSTROM
     56         20  N    CARTESIAN Z    -3.648026     -1.795332  KCAL/ANGSTROM
     57         21  O    CARTESIAN X     0.397632     -0.077290  KCAL/ANGSTROM
     58         21  O    CARTESIAN Y     0.351204      0.576375  KCAL/ANGSTROM
     59         21  O    CARTESIAN Z    -4.874561      1.159743  KCAL/ANGSTROM
     60         22  O    CARTESIAN X    -0.255142     -2.892140  KCAL/ANGSTROM
     61         22  O    CARTESIAN Y     1.606891     -1.592319  KCAL/ANGSTROM
     62         22  O    CARTESIAN Z    -3.278413      0.045383  KCAL/ANGSTROM
     63         23  O    CARTESIAN X     6.627757      0.015458  KCAL/ANGSTROM
     64         23  O    CARTESIAN Y     1.375786     -0.287684  KCAL/ANGSTROM
     65         23  O    CARTESIAN Z    -2.922784      0.087578  KCAL/ANGSTROM
     66         24  H    CARTESIAN X     6.081009     -0.884463  KCAL/ANGSTROM
     67         24  H    CARTESIAN Y     0.668672      0.259191  KCAL/ANGSTROM
     68         24  H    CARTESIAN Z    -2.892808     -0.059159  KCAL/ANGSTROM
     69         25  H    CARTESIAN X     3.861920     -0.478819  KCAL/ANGSTROM
     70         25  H    CARTESIAN Y     0.379481     -0.878899  KCAL/ANGSTROM
     71         25  H    CARTESIAN Z    -2.027319     -1.116497  KCAL/ANGSTROM
     72         26  H    CARTESIAN X     3.748380     -0.660348  KCAL/ANGSTROM
     73         26  H    CARTESIAN Y     0.605238      0.125098  KCAL/ANGSTROM
     74         26  H    CARTESIAN Z    -3.607496      0.394526  KCAL/ANGSTROM




   ATOM   CHEMICAL          X               Y               Z
  NUMBER   SYMBOL      (ANGSTROMS)     (ANGSTROMS)     (ANGSTROMS)

     1       C          0.15133056  *   1.25815731  *   0.58990242  *
     2       C          0.49655755  *   1.03336450  *  -0.73895680  *
     3       C          0.31535527  *  -0.22534334  *  -1.33756655  *
     4       C         -0.20048803  *  -1.26510731  *  -0.55437864  *
     5       C         -0.52252798  *  -1.03023653  *   0.78582389  *
     6       C         -0.36266147  *   0.22898444  *   1.37145897  *
     7       H          0.28269623  *   2.25214218  *   1.02575490  *
     8       H          0.89355158  *   1.86478755  *  -1.33092547  *
     9       H         -0.37505606  *  -2.25552711  *  -0.98774974  *
    10       H         -0.62983850  *   0.40235426  *   2.41792454  *
    11       N         -1.03815559  *  -2.11466288  *   1.58420133  *
    12       O         -1.36168699  *  -1.90393774  *   2.74724298  *
    13       O         -1.13806418  *  -3.23203287  *   1.09043823  *
    14       C          0.61285671     -0.43931820     -2.74836157   
    15       H          2.60591490     -0.21740438  *  -2.83393729  *
    16       C          0.65444178  *  -1.84057710  *  -3.27304001  *
    17       H          1.03436814  *  -1.90389024  *  -4.30300502  *
    18       H         -0.36402296  *  -2.26855431  *  -3.30379972  *
    19       H          1.26282024  *  -2.51088514  *  -2.65286549  *
    20       N          0.22755597  *   0.51565551  *  -3.64802583  *
    21       O          0.39763155  *   0.35120423  *  -4.87456135  *
    22       O         -0.25514191  *   1.60689060  *  -3.27841336  *
    23       O          6.62775694  *   1.37578569  *  -2.92278397  *
    24       H          6.08100891  *   0.66867238  *  -2.89280817  *
    25       H          3.86191951  *   0.37948105  *  -2.02731936  *
    26       H          3.74838043  *   0.60523836  *  -3.60749613  *
    27       O          3.64019253     -0.12176987     -2.89472273   

                             CARTESIAN COORDINATES

   1    C        0.151330557     1.258157313     0.589902421
   2    C        0.496557549     1.033364499    -0.738956800
   3    C        0.315355268    -0.225343336    -1.337566548
   4    C       -0.200488033    -1.265107310    -0.554378639
   5    C       -0.522527978    -1.030236527     0.785823889
   6    C       -0.362661473     0.228984445     1.371458966
   7    H        0.282696230     2.252142183     1.025754896
   8    H        0.893551577     1.864787550    -1.330925474
   9    H       -0.375056061    -2.255527105    -0.987749736
  10    H       -0.629838497     0.402354265     2.417924538
  11    N       -1.038155595    -2.114662884     1.584201334
  12    O       -1.361686994    -1.903937741     2.747242983
  13    O       -1.138064179    -3.232032866     1.090438235
  14    C        0.612856710    -0.439318200    -2.748361570
  15    H        2.605914900    -0.217404378    -2.833937293
  16    C        0.654441779    -1.840577103    -3.273040008
  17    H        1.034368137    -1.903890236    -4.303005019
  18    H       -0.364022962    -2.268554314    -3.303799718
  19    H        1.262820238    -2.510885142    -2.652865486
  20    N        0.227555970     0.515655506    -3.648025832
  21    O        0.397631550     0.351204234    -4.874561351
  22    O       -0.255141915     1.606890602    -3.278413365
  23    O        6.627756941     1.375785686    -2.922783973
  24    H        6.081008908     0.668672378    -2.892808172
  25    H        3.861919510     0.379481048    -2.027319360
  26    H        3.748380426     0.605238355    -3.607496133
  27    O        3.640192530    -0.121769870    -2.894722730


           Empirical Formula: C8 H11 N2 O6  =    27 atoms



      MOLECULAR POINT GROUP   :   C1  


                  EIGENVALUES  
 -37.39695 -36.26657 -33.17048 -31.20044 -30.71128 -28.90653 -28.30159 -27.41738
 -25.83439 -24.84249 -24.67369 -24.17592 -21.97112 -21.18750 -19.90769 -19.46204
 -19.40402 -19.00125 -18.12637 -17.55233 -17.35915 -16.94779 -16.64384 -16.42687
 -16.20633 -15.47714 -14.94191 -14.29534 -13.80319 -13.61062 -13.21215 -13.18792
 -12.93466 -12.32145 -11.90605 -11.78978 -11.63633 -11.28548 -11.06909 -10.98760
 -10.71351 -10.45528 -10.33308 -10.32292  -8.72522  -1.32582  -0.35658   0.32249
   0.41557   0.56972   0.97360   1.68708   2.20090   3.28491   3.63418   3.77830
   3.80921   4.00583   4.18871   4.31374   4.41545   4.55020   4.83270   4.83769
   5.20975   5.44868   5.56828   5.66817   5.77831   5.84653   5.89980   5.94452
   6.01541   7.02027   8.05513


              NET ATOMIC CHARGES AND DIPOLE CONTRIBUTIONS

  ATOM NO.   TYPE          CHARGE      No. of ELECS.   s-Pop       p-Pop       
    1          C          -0.158628        4.1586     1.08619     3.07243
    2          C          -0.114190        4.1142     1.09673     3.01746
    3          C           0.050184        3.9498     1.06092     2.88890
    4          C          -0.132219        4.1322     1.09268     3.03954
    5          C          -0.073560        4.0736     1.06943     3.00413
    6          C          -0.109807        4.1098     1.09124     3.01857
    7          H           0.177755        0.8222     0.82225
    8          H           0.185108        0.8149     0.81489
    9          H           0.192074        0.8079     0.80793
   10          H           0.187255        0.8127     0.81275
   11          N           0.671625        4.3284     1.44991     2.87846
   12          O          -0.467474        6.4675     1.94093     4.52654
   13          O          -0.468574        6.4686     1.94089     4.52768
   14          C          -0.371823        4.3718     1.06400     3.30783
   15          H           0.413692        0.5863     0.58631
   16          C          -0.415647        4.4156     1.04511     3.37054
   17          H           0.164235        0.8358     0.83576
   18          H           0.150053        0.8499     0.84995
   19          H           0.163276        0.8367     0.83672
   20          N           0.708714        4.2913     1.43117     2.86011
   21          O          -0.638314        6.6383     1.94361     4.69471
   22          O          -0.642142        6.6421     1.94359     4.69855
   23          O          -1.325425        7.3254     1.87396     5.45146
   24          H           0.326620        0.6734     0.67338
   25          H           0.445801        0.5542     0.55420
   26          H           0.437577        0.5624     0.56242
   27          O          -0.356167        6.3562     1.79223     4.56394
 DIPOLE           X         Y         Z       TOTAL
 POINT-CHG.   -12.421    -6.453     8.249    16.247
 HYBRID        -1.324    -0.270     0.182     1.363
 SUM          -13.745    -6.723     8.430    17.470


          ATOMIC ORBITAL ELECTRON POPULATIONS

     Atom    s        px        py        pz   
    1  C   1.08619   0.99521   1.07460   1.00262
    2  C   1.09673   0.96797   1.04459   1.00490
    3  C   1.06092   0.95611   0.96802   0.96477
    4  C   1.09268   0.96808   1.09755   0.97392
    5  C   1.06943   1.11259   0.91779   0.97375
    6  C   1.09124   0.96779   0.96140   1.08938
    7  H   0.82225
    8  H   0.81489
    9  H   0.80793
   10  H   0.81275
   11  N   1.44991   0.92144   0.98861   0.96841
   12  O   1.94093   1.56452   1.88285   1.07918
   13  O   1.94089   1.62189   1.16732   1.73848
   14  C   1.06400   1.44539   0.95141   0.91102
   15  H   0.58631
   16  C   1.04511   1.18933   1.01542   1.16579
   17  H   0.83576
   18  H   0.84995
   19  H   0.83672
   20  N   1.43117   0.92743   0.97176   0.96092
   21  O   1.94361   1.73035   1.88793   1.07643
   22  O   1.94359   1.60281   1.24438   1.85136
   23  O   1.87396   1.79496   1.65716   1.99935
   24  H   0.67338
   25  H   0.55420
   26  H   0.56242
   27  O   1.79223   1.52313   1.56460   1.47621

          BONDING CONTRIBUTION OF EACH M.O.

  1.3449  1.3902  1.1061  1.8869  0.9961  1.0224  1.6579  1.4832  1.5161  1.5052
  1.0935  1.2576  1.6588  1.5150  1.5090  1.5259  1.5370  1.4205  1.2196  1.5265
  1.2110  1.5591  1.4258  1.7797  0.9455  1.8807  1.9584  1.8412  1.8585  1.8523
  0.7127  1.9085  1.8103  1.9956  0.8446  0.2984  0.6659  0.5888  0.5238  0.6157
  1.5348  1.8710  0.0006  0.0002  1.3041 -2.2121 -2.0228 -2.1746 -1.9537 -2.0954
 -2.1837 -2.1061 -2.0348 -1.9539 -1.9384 -1.8397 -1.7960 -1.5988 -1.9787 -2.0267
 -1.9968 -1.9593 -1.9879 -1.9574 -1.9860 -1.9575 -1.9529 -1.9659 -1.9538 -1.9794
 -1.9595 -1.9506 -1.9495 -1.9044 -1.7835





            (VALENCIES)   BOND ORDERS

     1  C     (3.968)     2  C 1.446     6  C 1.446     7  H 0.955     4  C 0.097

     2  C     (3.961)     1  C 1.446     3  C 1.380     8  H 0.951     5  C 0.104     4  C 0.013    14  C 0.013

     3  C     (3.991)     4  C 1.419     2  C 1.380    14  C 1.050     6  C 0.097    21  O 0.011

     4  C     (3.959)     3  C 1.419     5  C 1.380     9  H 0.946     1  C 0.097    12  O 0.019     6  C 0.016
                         14  C 0.014     2  C 0.013    20  N 0.013    13  O 0.012

     5  C     (3.928)     6  C 1.382     4  C 1.380    11  N 0.907     2  C 0.104    13  O 0.067    12  O 0.066

     6  C     (3.960)     1  C 1.446     5  C 1.382    10  H 0.951     3  C 0.097    13  O 0.019     4  C 0.016
                         12  O 0.012

     7  H     (0.968)     1  C 0.955

     8  H     (0.966)     2  C 0.951

     9  H     (0.963)     4  C 0.946

    10  H     (0.965)     6  C 0.951

    11  N     (3.778)    12  O 1.419    13  O 1.418     5  C 0.907

    12  O     (1.810)    11  N 1.419    13  O 0.283     5  C 0.066     4  C 0.019     6  C 0.012

    13  O     (1.809)    11  N 1.418    12  O 0.283     5  C 0.067     6  C 0.019     4  C 0.012

    14  C     (3.651)    20  N 1.204     3  C 1.050    16  C 0.994    22  O 0.131    21  O 0.130    15  H 0.064
                         27  O 0.022     4  C 0.014     2  C 0.013

    15  H     (0.829)    27  O 0.750    14  C 0.064

    16  C     (3.918)    14  C 0.994    18  H 0.964    19  H 0.962    17  H 0.962    22  O 0.012

    17  H     (0.973)    16  C 0.962

    18  H     (0.977)    16  C 0.964

    19  H     (0.973)    16  C 0.962

    20  N     (3.796)    21  O 1.268    22  O 1.267    14  C 1.204     4  C 0.013

    21  O     (1.615)    20  N 1.268    22  O 0.184    14  C 0.130     3  C 0.011

    22  O     (1.619)    20  N 1.267    21  O 0.184    14  C 0.131    16  C 0.012

    23  O     (0.895)    24  H 0.892

    24  H     (0.893)    23  O 0.892

    25  H     (0.801)    27  O 0.795

    26  H     (0.809)    27  O 0.803

    27  O     (2.383)    26  H 0.803    25  H 0.795    15  H 0.750    14  C 0.022


 **********************
 *                    *
 * JOB ENDED NORMALLY *
 *                    *
 **********************



 TOTAL JOB TIME:             0.55 SECONDS

 == MOPAC DONE ==
