 *******************************************************************************
 **                                                                           **
 **                              MOPAC v22.0.6                                **
 **                                                                           **
 *******************************************************************************
 **          Digital Object Identifier (DOI): 10.5281/zenodo.6511958          **
 **    Visit the DOI location for information on how to cite this program.    **
 *******************************************************************************

                              PM7 CALCULATION RESULTS

 *******************************************************************************
 *  CALCULATION DONE:                                Mon Mar 25 22:31:59 2024  *
 *  PM7        - The PM7 Hamiltonian to be used
 *  SINGLET    - SPIN STATE DEFINED AS A SINGLET
 *
 *
 *
 *                 CHARGE ON SYSTEM = -1
 *
 *
 *
 *  EPS=78.4   - USE ANDREAS KLAMT'S COSMO IMPLICIT SOLVATION MODEL
 *  LET        - OVERRIDE SOME SAFETY CHECKS
 *  THREADS    - USE A MAXIMUM OF 30 THREADS
 *  T=         - A TIME OF 14.0 DAYS REQUESTED
 *  DUMP=N     - RESTART FILE WRITTEN EVERY 30.0 MINUTES REQUESTED
 *  RELSCF     - DEFAULT SCF CRITERION MULTIPLIED BY 1.0000
 *              (DEFAULT SCF CRITERION = 0.00010)
 *  ITRY=      - DO A MAXIMUM OF 15000 ITERATIONS FOR SCF
 *  AUX        - OUTPUT AUXILIARY INFORMATION
 *  ISOTOPE    - SAVE THE FORCE MATRIX FOR USE LATER
 *  BONDS      - FINAL BOND-ORDER MATRIX TO BE PRINTED
 *  LARGE      - EXPANDED OUTPUT TO BE PRINTED
 *  THERMO     - THERMODYNAMIC QUANTITIES TO BE CALCULATED
 *******************************************************************************
PM7 AUX LARGE THERMO(298,298) LET ISOTOPE BONDS DUMP=30M ITRY=15000 T=14D THREADS=30 CHARGE=-1 SINGLET eps=78.4 RELSCF=1
 Title: ASE calculation

   ATOM   CHEMICAL          X               Y               Z
  NUMBER   SYMBOL      (ANGSTROMS)     (ANGSTROMS)     (ANGSTROMS)

     1       C          1.69297791  *   3.14539510  *   2.18629505  *
     2       C          2.02948082  *   1.79491744  *   2.10843155  *
     3       C          1.03690093  *   0.81811362  *   1.98016622  *
     4       C         -0.30752948  *   1.19987384  *   1.93420505  *
     5       C         -0.60712172  *   2.55076920  *   2.01296982  *
     6       C          0.35619447  *   3.54020540  *   2.13621825  *
     7       H          2.47620852  *   3.89849868  *   2.28280096  *
     8       H          3.08186176  *   1.49384899  *   2.14250315  *
     9       H         -1.08881739  *   0.44424540  *   1.83098057  *
    10      Cl         -2.26371850  *   3.02240647  *   1.94983305  *
    11       H          0.09036564  *   4.59533441  *   2.19136972  *
    12       C          1.44020009  *  -0.60893989  *   1.89936819  *
    13       C          0.85472588  *  -1.46512981  *   2.99606597  *
    14       H          1.25574127  *  -2.48677027  *   2.99408233  *
    15       H         -0.24141513  *  -1.54078174  *   2.92093310  *
    16       H          1.07105166  *  -1.03362437  *   3.98387038  *
    17       N          1.18236112  *  -1.18433050  *   0.59395409  *
    18       O          1.91799826  *  -2.06514494  *   0.16149801  *
    19       O          0.25484292  *  -0.77331426  *  -0.09862980  *
    20       D          2.82830347  *  -0.65792119  *   2.05180085  *
    21       O          6.53579688  *  -0.75860393  *   2.82128072  *
    22       H          7.01335634  *  -0.21268923  *   2.20114116  *
    23       H          5.56447162  *  -0.71946480  *   2.50614192  *
    24       H          4.19695463  *  -1.34626944  *   1.29397906  *
    25       O          4.08736017  *  -0.71308282  *   1.96719211  *


                                Isotopes Used

              Atom:   20  H  Default mass  1.0079,  mass used:  2.0140 amu


          CARTESIAN COORDINATES 

    NO.       ATOM           X           Y           Z

     1         C          1.6930      3.1454      2.1863
     2         C          2.0295      1.7949      2.1084
     3         C          1.0369      0.8181      1.9802
     4         C         -0.3075      1.1999      1.9342
     5         C         -0.6071      2.5508      2.0130
     6         C          0.3562      3.5402      2.1362
     7         H          2.4762      3.8985      2.2828
     8         H          3.0819      1.4938      2.1425
     9         H         -1.0888      0.4442      1.8310
    10        Cl         -2.2637      3.0224      1.9498
    11         H          0.0904      4.5953      2.1914
    12         C          1.4402     -0.6089      1.8994
    13         C          0.8547     -1.4651      2.9961
    14         H          1.2557     -2.4868      2.9941
    15         H         -0.2414     -1.5408      2.9209
    16         H          1.0711     -1.0336      3.9839
    17         N          1.1824     -1.1843      0.5940
    18         O          1.9180     -2.0651      0.1615
    19         O          0.2548     -0.7733     -0.0986
    20         H          2.8283     -0.6579      2.0518
    21         O          6.5358     -0.7586      2.8213
    22         H          7.0134     -0.2127      2.2011
    23         H          5.5645     -0.7195      2.5061
    24         H          4.1970     -1.3463      1.2940
    25         O          4.0874     -0.7131      1.9672

 General Reference for PM7:
 "Optimization of Parameters for Semiempirical Methods VI: More Modifications to the 
 NDDO Approximations and Re-optimization of Parameters", J. J. P. Stewart, J. Mol. Mod., 1:32, 19 (2013)
 https://link.springer.com/article/10.1007/s00894-012-1667-x

           Empirical Formula: C8 H11 N O4 Cl  =    25 atoms



      MOLECULAR POINT GROUP   :   C1  


 SINGLET STATE CALCULATION


      RHF CALCULATION, NO. OF DOUBLY OCCUPIED LEVELS = 40

  SCF CRITERION =    0.1000E-03


          HEAT OF FORMATION =    -219.820425 KCALS/MOLE


          CARTESIAN COORDINATE DERIVATIVES

   NUMBER  ATOM         X            Y            Z

     1       C     -1.043511    -0.524789     0.101363
     2       C      1.098917     0.146385    -0.121919
     3       C     -0.768839     0.780038    -0.151091
     4       C      0.991125    -0.898438     0.234142
     5       C     -0.446216    -0.486735     0.073761
     6       C      0.140678     0.699380     0.081322
     7       H      0.217039     0.189131     0.045645
     8       H     -0.067535    -0.025455     0.025255
     9       H      0.107639     0.224588    -0.188566
    10      Cl     -0.287034     0.227884    -0.048623
    11       H      0.322921    -0.070875     0.097001
    12       C      0.229922    -2.067573    -1.821192
    13       C     -0.349737     0.098784     0.330367
    14       H     -0.179139     0.768658    -0.347591
    15       H     -0.564470     0.630387     0.557381
    16       H     -0.155477     0.893785    -0.111650
    17       N      3.388661     1.456498     4.601920
    18       O     -5.044391     0.532988     0.294106
    19       O      2.253350    -0.143458    -3.015927
    20       H     -1.782882     5.324067     0.194817
    21       O      1.325053    -4.099460     0.028716
    22       H      0.342791    -1.785418     0.005640
    23       H     -0.891779     3.799944     1.859491
    24       H     -1.447790    -2.506903    -1.377052
    25       O      2.611079    -3.163834    -1.346898

 DIPOLE           X         Y         Z       TOTAL
 POINT-CHG.   -19.667    -1.295    -3.340    19.991
 HYBRID        -0.237     1.255     0.872     1.546
 SUM          -19.904    -0.040    -2.468    20.057


          GRADIENT NORM =  13.90723



 ** GRADIENT IS VERY LARGE, BUT SINCE "LET" IS USED, CALCULATION WILL CONTINUE


                              **** WARNING ****

           GRADIENT IS VERY LARGE FOR A THERMO CALCULATION
           RESULTS ARE LIKELY TO BE INACCURATE IF THERE ARE
           ANY LOW-LYING VIBRATIONS (LESS THAN ABOUT 400CM-1)
           GRADIENT NORM SHOULD BE LESS THAN ABOUT 1.0 FOR THERMO
           TO GIVE ACCURATE RESULTS


          TIME FOR SCF CALCULATION =    0.13

          TIME FOR DERIVATIVES     =    0.04

          MOLECULAR WEIGHT =  221.64



          ROTATIONAL CONSTANTS IN CM(-1)

          A =    0.02790581   B =    0.00992154   C =    0.00804124



           PRINCIPAL MOMENTS OF INERTIA IN UNITS OF 10**(-40)*GRAM-CM**2

          A =     1003.1156   B =     2821.4128   C =     3481.1490


          ORIENTATION OF MOLECULE IN FORCE CALCULATION

    NO.       ATOM         X         Y         Z

     1          C      -2.2542   -1.1654   -0.2116
     2          C      -0.8603   -1.1654   -0.2116
     3          C      -0.1464    0.0372   -0.2116
     4          C      -0.8382    1.2524   -0.2163
     5          C      -2.2237    1.2165   -0.2151
     6          C      -2.9566    0.0396   -0.2109
     7          H      -2.8002   -2.1097   -0.2082
     8          H      -0.3164   -2.1159   -0.2062
     9          H      -0.2890    2.1960   -0.2131
    10         Cl      -3.0770    2.7140   -0.2143
    11          H      -4.0461    0.0429   -0.2054
    12          C       1.3380   -0.0091   -0.2103
    13          C       1.9649    0.6804   -1.3978
    14          H       3.0516    0.5344   -1.4460
    15          H       1.7778    1.7657   -1.3920
    16          H       1.5439    0.2960   -2.3378
    17          N       1.9062    0.4730    1.0332
    18          O       2.9613    0.0011    1.4432
    19          O       1.3228    1.3250    1.6986
    20          H       1.7121   -1.3534   -0.2852
    21          O       2.6616   -4.9775   -0.8437
    22          H       2.2827   -5.5239   -0.1593
    23          H       2.4068   -4.0227   -0.5834
    24          H       2.7517   -2.4602    0.4993
    25          O       2.0742   -2.5537   -0.1319


    FIRST DERIVATIVES WILL BE USED IN THE CALCULATION OF SECOND DERIVATIVES

          ESTIMATED TIME TO COMPLETE CALCULATION =       25.78 SECONDS

    FOR POINT-GROUP C1   THERE ARE   1 UNIQUE SYMMETRY FUNCTIONS.

 STEP:   1 TIME =     0.08 SECS, INTEGRAL =      0.08 TIME LEFT:1209599.75
 STEP:   2 TIME =     0.09 SECS, INTEGRAL =      0.16 TIME LEFT:1209599.66
 STEP:   3 TIME =     0.08 SECS, INTEGRAL =      0.24 TIME LEFT:1209599.59
 STEP:   4 TIME =     0.09 SECS, INTEGRAL =      0.33 TIME LEFT:1209599.50
 STEP:   5 TIME =     0.08 SECS, INTEGRAL =      0.41 TIME LEFT:1209599.42
 STEP:   6 TIME =     0.08 SECS, INTEGRAL =      0.48 TIME LEFT:1209599.34
 STEP:   7 TIME =     0.08 SECS, INTEGRAL =      0.56 TIME LEFT:1209599.27
 STEP:   8 TIME =     0.08 SECS, INTEGRAL =      0.64 TIME LEFT:1209599.19
 STEP:   9 TIME =     0.09 SECS, INTEGRAL =      0.73 TIME LEFT:1209599.10
 STEP:  10 TIME =     0.08 SECS, INTEGRAL =      0.80 TIME LEFT:1209599.02
 STEP:  11 TIME =     0.09 SECS, INTEGRAL =      0.89 TIME LEFT:1209598.94
 STEP:  12 TIME =     0.08 SECS, INTEGRAL =      0.97 TIME LEFT:1209598.86
 STEP:  13 TIME =     0.08 SECS, INTEGRAL =      1.05 TIME LEFT:1209598.78
 STEP:  14 TIME =     0.09 SECS, INTEGRAL =      1.13 TIME LEFT:1209598.70
 STEP:  15 TIME =     0.08 SECS, INTEGRAL =      1.21 TIME LEFT:1209598.62
 STEP:  16 TIME =     0.08 SECS, INTEGRAL =      1.29 TIME LEFT:1209598.54
 STEP:  17 TIME =     0.08 SECS, INTEGRAL =      1.37 TIME LEFT:1209598.46
 STEP:  18 TIME =     0.85 SECS, INTEGRAL =      2.22 TIME LEFT:1209597.61
 STEP:  19 TIME =     0.83 SECS, INTEGRAL =      3.05 TIME LEFT:1209596.78
 STEP:  20 TIME =     0.24 SECS, INTEGRAL =      3.29 TIME LEFT:1209596.54
 STEP:  21 TIME =     0.48 SECS, INTEGRAL =      3.77 TIME LEFT:1209596.05
 STEP:  22 TIME =     0.41 SECS, INTEGRAL =      4.19 TIME LEFT:1209595.64
 STEP:  23 TIME =     0.52 SECS, INTEGRAL =      4.70 TIME LEFT:1209595.12
 STEP:  24 TIME =     0.52 SECS, INTEGRAL =      5.22 TIME LEFT:1209594.61
 STEP:  25 TIME =     0.83 SECS, INTEGRAL =      6.05 TIME LEFT:1209593.78
 STEP:  26 TIME =     0.44 SECS, INTEGRAL =      6.48 TIME LEFT:1209593.34
 STEP:  27 TIME =     0.44 SECS, INTEGRAL =      6.92 TIME LEFT:1209592.91
 STEP:  28 TIME =     0.08 SECS, INTEGRAL =      7.00 TIME LEFT:1209592.83
 STEP:  29 TIME =     0.07 SECS, INTEGRAL =      7.07 TIME LEFT:1209592.76
 STEP:  30 TIME =     0.05 SECS, INTEGRAL =      7.12 TIME LEFT:1209592.70
 STEP:  31 TIME =     0.05 SECS, INTEGRAL =      7.18 TIME LEFT:1209592.65
 STEP:  32 TIME =     0.05 SECS, INTEGRAL =      7.23 TIME LEFT:1209592.59
 STEP:  33 TIME =     0.06 SECS, INTEGRAL =      7.30 TIME LEFT:1209592.53
 STEP:  34 TIME =     0.05 SECS, INTEGRAL =      7.35 TIME LEFT:1209592.48
 STEP:  35 TIME =     0.05 SECS, INTEGRAL =      7.41 TIME LEFT:1209592.42
 STEP:  36 TIME =     0.05 SECS, INTEGRAL =      7.46 TIME LEFT:1209592.37
 STEP:  37 TIME =     0.06 SECS, INTEGRAL =      7.52 TIME LEFT:1209592.30
 STEP:  38 TIME =     0.05 SECS, INTEGRAL =      7.58 TIME LEFT:1209592.25
 STEP:  39 TIME =     0.05 SECS, INTEGRAL =      7.63 TIME LEFT:1209592.20
 STEP:  40 TIME =     0.05 SECS, INTEGRAL =      7.69 TIME LEFT:1209592.14
 STEP:  41 TIME =     0.05 SECS, INTEGRAL =      7.74 TIME LEFT:1209592.09
 STEP:  42 TIME =     0.05 SECS, INTEGRAL =      7.80 TIME LEFT:1209592.03
 STEP:  43 TIME =     0.05 SECS, INTEGRAL =      7.85 TIME LEFT:1209591.98
 STEP:  44 TIME =     0.06 SECS, INTEGRAL =      7.91 TIME LEFT:1209591.91
 STEP:  45 TIME =     0.05 SECS, INTEGRAL =      7.97 TIME LEFT:1209591.86
 STEP:  46 TIME =     0.05 SECS, INTEGRAL =      8.02 TIME LEFT:1209591.80
 STEP:  47 TIME =     0.05 SECS, INTEGRAL =      8.08 TIME LEFT:1209591.75
 STEP:  48 TIME =     0.05 SECS, INTEGRAL =      8.13 TIME LEFT:1209591.70
 STEP:  49 TIME =     0.05 SECS, INTEGRAL =      8.19 TIME LEFT:1209591.64
 STEP:  50 TIME =     0.06 SECS, INTEGRAL =      8.25 TIME LEFT:1209591.58
 STEP:  51 TIME =     0.05 SECS, INTEGRAL =      8.30 TIME LEFT:1209591.52
 STEP:  52 TIME =     0.05 SECS, INTEGRAL =      8.36 TIME LEFT:1209591.47
 STEP:  53 TIME =     0.06 SECS, INTEGRAL =      8.42 TIME LEFT:1209591.41
 STEP:  54 TIME =     0.08 SECS, INTEGRAL =      8.50 TIME LEFT:1209591.33
 STEP:  55 TIME =     0.08 SECS, INTEGRAL =      8.58 TIME LEFT:1209591.25
 STEP:  56 TIME =     0.08 SECS, INTEGRAL =      8.66 TIME LEFT:1209591.17
 STEP:  57 TIME =     0.08 SECS, INTEGRAL =      8.73 TIME LEFT:1209591.09
 STEP:  58 TIME =     0.08 SECS, INTEGRAL =      8.81 TIME LEFT:1209591.02
 STEP:  59 TIME =     0.08 SECS, INTEGRAL =      8.89 TIME LEFT:1209590.94
 STEP:  60 TIME =     0.08 SECS, INTEGRAL =      8.97 TIME LEFT:1209590.86
 STEP:  61 TIME =     0.08 SECS, INTEGRAL =      9.05 TIME LEFT:1209590.78
 STEP:  62 TIME =     0.08 SECS, INTEGRAL =      9.12 TIME LEFT:1209590.70
 STEP:  63 TIME =     0.07 SECS, INTEGRAL =      9.20 TIME LEFT:1209590.63
 STEP:  64 TIME =     0.08 SECS, INTEGRAL =      9.27 TIME LEFT:1209590.55
 STEP:  65 TIME =     0.08 SECS, INTEGRAL =      9.35 TIME LEFT:1209590.48
 STEP:  66 TIME =     0.08 SECS, INTEGRAL =      9.43 TIME LEFT:1209590.40
 STEP:  67 TIME =     0.08 SECS, INTEGRAL =      9.51 TIME LEFT:1209590.32
 STEP:  68 TIME =     0.08 SECS, INTEGRAL =      9.59 TIME LEFT:1209590.24
 STEP:  69 TIME =     0.08 SECS, INTEGRAL =      9.66 TIME LEFT:1209590.16
 STEP:  70 TIME =     0.08 SECS, INTEGRAL =      9.74 TIME LEFT:1209590.09
 STEP:  71 TIME =     0.07 SECS, INTEGRAL =      9.81 TIME LEFT:1209590.02
 STEP:  72 TIME =     0.08 SECS, INTEGRAL =      9.89 TIME LEFT:1209589.94
 STEP:  73 TIME =     0.08 SECS, INTEGRAL =      9.97 TIME LEFT:1209589.86
 STEP:  74 TIME =     0.08 SECS, INTEGRAL =     10.05 TIME LEFT:1209589.78
 STEP:  75 TIME =     0.09 SECS, INTEGRAL =     10.14 TIME LEFT:1209589.69

(To convert to Hartree/Bohr^2, multiply by (10^(-21) x N x a0^2)/(4.184 x 627.51) =  0.0642)


           FORCE MATRIX IN MILLIDYNES/ANGSTROM


                  C  1       C  2       C  3       C  4       C  5       C  6
 ------------------------------------------------------------------------------
     C    1  15.273744
     C    2   6.172893  15.243176
     C    3   1.941666   5.949951  15.987993
     C    4   1.208406   1.864432   5.909954  15.270475
     C    5   2.022038   1.191087   2.031709   6.370006  14.704522
     C    6   6.191754   1.900358   1.199993   1.832420   6.385264  15.391424
     H    7   3.405941   0.742019   0.083803   0.014743   0.087692   0.755573
     H    8   0.741621   3.369711   0.748829   0.075651   0.015059   0.081381
     H    9   0.009556   0.084016   0.744182   3.391105   0.753725   0.080449
    Cl   10   0.098073   0.016304   0.085695   0.826282   2.356658   0.815213
     H   11   0.742513   0.086480   0.002337   0.076681   0.745608   3.397618
     C   12   0.085813   0.796607   3.748999   0.794251   0.080682   0.013430
     C   13   0.013231   0.036211   0.684019   0.043423   0.016627   0.009045
     H   14   0.001853   0.004597   0.044292   0.002895   0.002162   0.000915
     H   15   0.001241   0.003348   0.018555   0.009336   0.005385   0.002442
     H   16   0.001780   0.006160   0.032241   0.006679   0.006193   0.003865
     N   17   0.020907   0.061119   0.954443   0.043178   0.042245   0.022084
     O   18   0.006358   0.033854   0.107433   0.018804   0.024614   0.011237
     O   19   0.005528   0.021548   0.078778   0.044818   0.018609   0.010677
     H   20   0.014186   0.053823   0.530454   0.065535   0.035893   0.021202
     O   21   0.003512   0.002990   0.018066   0.005830   0.003943   0.003237
     H   22   0.001038   0.000834   0.003174   0.000801   0.000757   0.000777
     H   23   0.004019   0.007130   0.031517   0.010903   0.007886   0.004894
     H   24   0.001037   0.006526   0.016330   0.009924   0.006738   0.002860
     O   25   0.009379   0.041318   0.136773   0.050010   0.031683   0.016539


                  H  7       H  8       H  9      Cl 10       H 11       C 12
 ------------------------------------------------------------------------------
     H    7   4.307471
     H    8   0.028995   4.256421
     H    9   0.010567   0.009728   4.296718
    Cl   10   0.015206   0.013865   0.042280   3.770404
     H   11   0.030749   0.010274   0.008541   0.041039   4.296024
     C   12   0.011106   0.034405   0.030392   0.030222   0.010333  11.653360
     C   13   0.004100   0.009049   0.015867   0.007661   0.004631   3.227545
     H   14   0.000501   0.001679   0.002040   0.001267   0.000609   0.681044
     H   15   0.001190   0.001096   0.011080   0.003800   0.001240   0.690582
     H   16   0.001998   0.002785   0.003776   0.003556   0.002063   0.681014
     N   17   0.012601   0.023990   0.048419   0.025572   0.010428   3.177168
     O   18   0.005690   0.012428   0.015773   0.009922   0.005225   1.220027
     O   19   0.005503   0.010231   0.017105   0.012133   0.005653   1.273756
     H   20   0.014595   0.052713   0.019198   0.015572   0.009707   0.942346
     O   21   0.002342   0.017032   0.001340   0.003466   0.002098   0.146875
     H   22   0.000833   0.015464   0.000239   0.000527   0.000524   0.024856
     H   23   0.003588   0.011035   0.002431   0.005410   0.002827   0.297928
     H   24   0.001415   0.009599   0.003214   0.004036   0.001340   0.191331
     O   25   0.012589   0.019681   0.013481   0.017572   0.007673   1.737078


                  C 13       H 14       H 15       H 16       N 17       O 18
 ------------------------------------------------------------------------------
     C   13  11.103639
     H   14   3.368860   4.177927
     H   15   3.333776   0.459311   4.142535
     H   16   3.353544   0.457672   0.460414   4.174061
     N   17   0.880573   0.080005   0.047169   0.078231  18.779389
     O   18   0.070193   0.013596   0.009768   0.015747   9.267961  11.949755
     O   19   0.088013   0.018848   0.014444   0.018904   9.153521   2.762163
     H   20   0.405169   0.041235   0.040651   0.045143   1.151626   0.362883
     O   21   0.007916   0.003736   0.002357   0.003895   0.062978   0.014641
     H   22   0.001637   0.000551   0.000487   0.000551   0.010324   0.002970
     H   23   0.009295   0.007473   0.003477   0.007687   0.130703   0.029980
     H   24   0.020138   0.018389   0.005309   0.008091   0.195639   0.083934
     O   25   0.049773   0.029859   0.018295   0.027898   0.592812   0.266712


                  O 19       H 20       O 21       H 22       H 23       H 24
 ------------------------------------------------------------------------------
     O   19  11.803892
     H   20   0.248676   1.397403
     O   21   0.021739   0.189721   5.949441
     H   22   0.004032   0.047847   3.965252   4.332558
     H   23   0.046530   0.678484   2.799589   0.714488   2.858366
     H   24   0.074105   0.738313   0.121650   0.028716   0.273952   4.420818
     O   25   0.204451   1.331708   0.806052   0.116787   0.801767   4.173866


                  O 25
 ------------------
     O   25   4.808203


          HEAT OF FORMATION =    -219.820425 KCALS/MOLE


          TRIVIAL VIBRATIONS, SHOULD BE ZERO

 -13.0384=TX  24.8205=TY -41.3789=TZ -16.0456=RX -33.8625=RY -20.4982=RZ


      MOLECULAR POINT GROUP   :   C1  


           EIGENVECTORS  


   Root No.       1         2         3         4         5         6         7         8

                 1 A       2 A       3 A       4 A       5 A       6 A       7 A       8 A   

                  -2.1      -0.1      -0.1      -0.0       0.0       0.0       0.0       0.0
  
           1   -0.0089    0.0269   -0.0286    0.1304    0.0011   -0.0618    0.0147   -0.0520
           2   -0.0042    0.0089   -0.0070   -0.0608    0.0045    0.0756   -0.0142    0.0647
           3    0.0038   -0.0052   -0.0280   -0.0226   -0.0377   -0.1382    0.0739    0.1370
           4   -0.0140    0.0279   -0.0299    0.1284    0.0010   -0.0617    0.0154   -0.0512
           5   -0.0092    0.0254   -0.0244    0.0394    0.0089    0.0382   -0.0174    0.0518
           6    0.0034    0.0013   -0.0217    0.0351   -0.0524   -0.0674    0.0048    0.0757
           7   -0.0208    0.0101   -0.0172    0.0512   -0.0027   -0.0311    0.0167   -0.0377
           8   -0.0123    0.0358   -0.0333    0.0895    0.0118    0.0204   -0.0193    0.0441
           9   -0.0036    0.0066   -0.0043    0.0767   -0.0363    0.0753   -0.0637   -0.0313
          10    0.0139   -0.0083    0.0068   -0.0398   -0.0079   -0.0014    0.0186   -0.0295
          11   -0.0046    0.0261   -0.0216    0.0373    0.0092    0.0380   -0.0176    0.0497
          12    0.0023   -0.0139    0.0018    0.0659    0.0089    0.1846   -0.0883   -0.1433
          13    0.0053   -0.0065    0.0056   -0.0387   -0.0077   -0.0022    0.0194   -0.0292
          14    0.0021    0.0085   -0.0047   -0.0621    0.0046    0.0756   -0.0144    0.0628
          15    0.0027   -0.0195   -0.0044    0.0045    0.0199    0.1102   -0.0186   -0.0769
          16    0.0026    0.0095   -0.0093    0.0427   -0.0034   -0.0320    0.0173   -0.0411
          17    0.0020   -0.0010    0.0040   -0.1112    0.0020    0.0933   -0.0130    0.0708
          18    0.0022   -0.0117   -0.0179   -0.0501   -0.0048   -0.0652    0.0761    0.0862
          19   -0.0072    0.0368   -0.0379    0.1960    0.0037   -0.0866    0.0126   -0.0596
          20   -0.0051    0.0029   -0.0012   -0.0991    0.0028    0.0897   -0.0129    0.0699
          21    0.0025   -0.0009   -0.0371   -0.0454   -0.0497   -0.2381    0.1218    0.2156
          22    0.0003    0.0359   -0.0360    0.1909    0.0021   -0.0861    0.0138   -0.0626
          23   -0.0065    0.0303   -0.0282    0.0739    0.0087    0.0241   -0.0182    0.0456
          24    0.0003    0.0053   -0.0280    0.0391   -0.0770   -0.1236    0.0089    0.1135
          25    0.0039   -0.0170    0.0186   -0.1063   -0.0111    0.0214    0.0202   -0.0191
          26    0.0024    0.0303   -0.0278    0.0748    0.0108    0.0236   -0.0175    0.0446
          27   -0.0009   -0.0176    0.0129    0.0999    0.0340    0.3280   -0.1570   -0.2770
          28    0.0041   -0.0210    0.0227   -0.1459   -0.0137    0.0370    0.0246   -0.0160
          29   -0.0039    0.0007    0.0043   -0.1214    0.0015    0.0964   -0.0110    0.0717
          30    0.0017   -0.0195    0.0078   -0.0122    0.0488    0.1735   -0.0310   -0.1418
          31   -0.0003    0.0098   -0.0092    0.0426   -0.0034   -0.0322    0.0177   -0.0406
          32    0.0019   -0.0146    0.0177   -0.1908   -0.0024    0.1194   -0.0087    0.0830
          33    0.0026   -0.0092   -0.0192   -0.1104    0.0019   -0.1383    0.1463    0.1664
          34    0.0281    0.0065   -0.0104    0.0447   -0.0040   -0.0340    0.0185   -0.0412
          35   -0.2053    0.1017   -0.0899    0.1745    0.0200   -0.0098   -0.0109    0.0361
          36   -0.0492    0.0618    0.0101    0.0853   -0.0664    0.0450   -0.0527    0.0412
          37   -0.0056    0.0236    0.0041    0.0198   -0.0171   -0.0877    0.0463    0.0640
          38    0.0101   -0.0162   -0.0467    0.0579    0.1586   -0.1031    0.0773   -0.0251
          39    0.0030    0.0067    0.0308    0.0136    0.0100   -0.0396    0.0157    0.0661
          40    0.0011    0.0193    0.0074    0.0204   -0.0240   -0.0563    0.1189    0.0587
          41    0.0191   -0.0493   -0.0482    0.0670    0.1263    0.0975    0.5069   -0.0904
          42   -0.0062    0.0168    0.0487    0.0142   -0.0464    0.0566    0.3129    0.1391
          43   -0.0153    0.0500    0.0054    0.0010    0.0244   -0.2985   -0.3810    0.1266
          44   -0.0010   -0.0108   -0.0461    0.0551    0.1655   -0.1383    0.0052   -0.0147
          45    0.0243   -0.0716    0.0604   -0.0933    0.1693   -0.2450   -0.1741    0.0288
          46    0.0036    0.0104    0.0214    0.0132   -0.0616    0.0474    0.4400    0.0984
          47    0.0187   -0.0706   -0.0163   -0.0464    0.3081   -0.3565   -0.2153   -0.0243
          48   -0.0137    0.0347    0.0121    0.0594   -0.0309    0.0041   -0.0395    0.0511
          49    0.0047   -0.0249   -0.0260    0.0613    0.0163    0.0412   -0.0278   -0.1255
          50    0.0121    0.0992   -0.0050    0.1996   -0.1335    0.0435   -0.0772    0.0394
          51    0.0550    0.0306    0.0179    0.0381   -0.0187   -0.0178    0.0002    0.0673
          52   -0.0021    0.2913   -0.0501   -0.0560    0.0079    0.0504   -0.0375   -0.2097
          53    0.0361    0.5509    0.0250    0.0368   -0.2075    0.0354   -0.0920   -0.0265
          54    0.0044   -0.2514    0.0797    0.1583   -0.0793   -0.0506    0.0100    0.2086
          55   -0.0168   -0.3521   -0.0381    0.1941    0.0433    0.1046   -0.0639   -0.1285
          56    0.0353   -0.3631    0.0660    0.3876   -0.1956    0.0963   -0.1284    0.1173
          57   -0.0610    0.3482   -0.0815   -0.0786    0.0855   -0.0279    0.0328   -0.0285
          58   -0.1944    0.0785   -0.1017    0.1012   -0.0005   -0.0391    0.0241   -0.0270
          59    0.6763    0.0387    0.0187    0.0541   -0.0002   -0.0317    0.0022   -0.0303
          60    0.1168    0.1061    0.1304    0.1075   -0.2047    0.0779   -0.1047    0.0476
          61   -0.0099   -0.0526   -0.1292   -0.2376   -0.1155    0.1763   -0.1337    0.2449
          62   -0.0243   -0.0841    0.1070   -0.1750   -0.2118   -0.0601   -0.0145   -0.1154
          63    0.0194    0.0004    0.0148   -0.0387    0.2169    0.0255    0.0029   -0.1215
          64    0.0045   -0.0334   -0.0400   -0.1734    0.2067    0.3744   -0.1715    0.3999
          65   -0.0078   -0.0749    0.0015   -0.1293   -0.0092   -0.0617    0.0291   -0.1499
          66    0.0026    0.0246   -0.0358    0.0458    0.5643    0.1389    0.0150   -0.0525
          67   -0.0674   -0.0672   -0.1920   -0.1996   -0.0391    0.1029   -0.0679    0.1181
          68    0.0884   -0.1115    0.1071   -0.2038   -0.1596   -0.0896    0.0161   -0.1802
          69    0.1547   -0.0307    0.1628   -0.0987    0.0305    0.0080   -0.0186   -0.1486
          70   -0.0402    0.0399    0.6764   -0.0648    0.0208    0.0058    0.0072   -0.0144
          71   -0.2841   -0.1683    0.1247   -0.1891    0.0667   -0.0725    0.0520   -0.1503
          72    0.0319   -0.1461   -0.5292   -0.1807   -0.2660   -0.0633   -0.0253   -0.2569
          73    0.3307   -0.0935   -0.0130   -0.1759   -0.0156   -0.0509    0.0371   -0.1258
          74   -0.3362    0.0049   -0.0757    0.0415    0.0102   -0.0436    0.0137   -0.0443
          75   -0.2992   -0.0460    0.2168   -0.1129   -0.2195   -0.0125   -0.0477   -0.1660


   Root No.       9        10        11        12        13        14        15        16

                 9 A      10 A      11 A      12 A      13 A      14 A      15 A      16 A   

                   0.0       0.0       0.1       0.1       0.1       0.1       0.2       0.2
  
           1   -0.0130   -0.0131   -0.0069   -0.0196   -0.0297    0.0604    0.0575    0.1002
           2    0.0270    0.0135   -0.0056    0.0079    0.0399    0.0310    0.0164    0.0178
           3    0.0082    0.1002   -0.0266    0.0111   -0.0055   -0.0727   -0.0896    0.1101
           4   -0.0140   -0.0136   -0.0011   -0.0154   -0.0318    0.0590    0.0538    0.0931
           5    0.0365   -0.0060   -0.0882   -0.0420    0.0883    0.0648    0.0385    0.0480
           6    0.0339    0.2576   -0.0466    0.0386   -0.0055   -0.1273    0.1111   -0.0238
           7   -0.0173    0.0019    0.0449    0.0087   -0.0505    0.0254    0.0274    0.0482
           8    0.0390   -0.0147   -0.1237   -0.0610    0.1034    0.0808    0.0513    0.0695
           9    0.0330    0.1695   -0.0342    0.0358   -0.0077    0.0388   -0.0181   -0.0719
          10   -0.0234    0.0184    0.1022    0.0394   -0.0923    0.0078    0.0224    0.0484
          11    0.0347   -0.0068   -0.0858   -0.0400    0.0813    0.0727    0.0464    0.0655
          12    0.0260    0.0074   -0.0414    0.0462   -0.0100   -0.0697   -0.1369    0.0911
          13   -0.0241    0.0173    0.1082    0.0430   -0.0981    0.0094    0.0225    0.0483
          14    0.0267    0.0124   -0.0053    0.0084    0.0357    0.0358    0.0228    0.0305
          15   -0.0058   -0.1762   -0.0145    0.0140   -0.0047   -0.0681    0.0833   -0.0130
          16   -0.0190    0.0015    0.0522    0.0122   -0.0675    0.0386    0.0435    0.0823
          17    0.0238    0.0230    0.0283    0.0272    0.0175    0.0160    0.0089    0.0093
          18   -0.0228   -0.1709    0.0114   -0.0213   -0.0030    0.1029   -0.0616   -0.0372
          19   -0.0069   -0.0234   -0.0611   -0.0536   -0.0004    0.0847    0.0781    0.1344
          20    0.0236    0.0200    0.0258    0.0277    0.0233    0.0176    0.0059    0.0011
          21    0.0059    0.1557   -0.0332    0.0159   -0.0090   -0.1689   -0.2610    0.3427
          22   -0.0053   -0.0292   -0.0511   -0.0441   -0.0005    0.0994    0.0830    0.1417
          23    0.0444   -0.0147   -0.1159   -0.0547    0.1087    0.0879    0.0559    0.0737
          24    0.0472    0.4141   -0.0688    0.0640   -0.0040   -0.3222    0.3661   -0.0668
          25   -0.0297    0.0286    0.1646    0.0785   -0.1471   -0.0161    0.0109    0.0344
          26    0.0380   -0.0127   -0.1204   -0.0627    0.1132    0.0877    0.0557    0.0745
          27    0.0398   -0.0018   -0.0680    0.0953   -0.0207   -0.2022   -0.4511    0.3715
          28   -0.0334    0.0398    0.2166    0.1098   -0.1821   -0.0458   -0.0053    0.0134
          29    0.0215    0.0253    0.0549    0.0452   -0.0094    0.0062    0.0072    0.0093
          30   -0.0277   -0.3521   -0.0021    0.0200   -0.0022   -0.2961    0.5674   -0.0798
          31   -0.0192    0.0008    0.0538    0.0126   -0.0698    0.0410    0.0439    0.0843
          32    0.0174    0.0373    0.0910    0.0634   -0.0187   -0.0079   -0.0117   -0.0175
          33   -0.0600   -0.3732    0.0614   -0.0726    0.0004    0.3794   -0.1671   -0.1692
          34   -0.0188    0.0015    0.0507    0.0060   -0.0473    0.0209    0.0267    0.0501
          35    0.0307   -0.0281   -0.0505    0.0088    0.0308    0.0540    0.0306    0.0359
          36    0.0025    0.0898   -0.0206    0.0596   -0.0110    0.1308   -0.0105   -0.1084
          37   -0.0506   -0.1291   -0.1144   -0.0398    0.0247   -0.1225   -0.0340    0.0009
          38    0.0540    0.0277    0.1443   -0.0690   -0.0140   -0.0302   -0.0055    0.0095
          39   -0.0001    0.0482    0.0005   -0.0029   -0.0018    0.0160   -0.0549   -0.1377
          40   -0.0482   -0.1221   -0.1075   -0.0515    0.0234   -0.1378   -0.0405   -0.0058
          41    0.0797    0.1237    0.2973   -0.1058   -0.0667   -0.0044    0.0116    0.0152
          42   -0.0179   -0.0323   -0.1396   -0.0706    0.0629   -0.1626   -0.1434   -0.2381
          43   -0.0774   -0.2271   -0.2538   -0.0225    0.0809   -0.1828   -0.0632   -0.0142
          44    0.0495    0.0117    0.1275   -0.0692   -0.0063   -0.0406   -0.0108    0.0055
          45    0.0126    0.0687    0.1674   -0.0812   -0.0411   -0.0703   -0.1130   -0.2071
          46   -0.0560   -0.1676   -0.1833   -0.1190    0.0656   -0.2915   -0.1053   -0.0592
          47    0.0518   -0.0033    0.2419   -0.1416   -0.0260   -0.1487   -0.0632   -0.0367
          48    0.0033    0.0775   -0.0076    0.0559   -0.0145    0.1288   -0.0081   -0.1055
          49    0.0248    0.1258   -0.0424   -0.1241    0.0132    0.0460   -0.0371   -0.1261
          50   -0.0196   -0.0802    0.0971    0.0593   -0.0215   -0.0661   -0.0482   -0.0787
          51   -0.0031    0.0494   -0.0235    0.0803   -0.0119    0.1443    0.0458    0.0220
          52    0.0227    0.1629   -0.0350   -0.1708    0.0325   -0.0130   -0.1030   -0.2440
          53   -0.0615   -0.1110    0.2279    0.0963   -0.0706   -0.2218   -0.1286   -0.1604
          54   -0.0444   -0.0801    0.0963    0.2516   -0.1074    0.1335    0.1243    0.2206
          55    0.0679    0.2081   -0.1397   -0.2394    0.0728    0.0959   -0.0983   -0.3179
          56   -0.0227   -0.0982    0.1409    0.0579   -0.0462   -0.1148   -0.1155   -0.2157
          57    0.0397    0.1425   -0.1591   -0.0098    0.0628    0.2502    0.0800    0.0350
          58   -0.0179   -0.0049    0.1507    0.2105    0.0122    0.0778    0.0206   -0.0009
          59    0.0119   -0.0108   -0.0651   -0.0053    0.0724    0.0304    0.0293    0.0534
          60   -0.0487    0.0098    0.0804   -0.0764    0.0172    0.1525    0.0142   -0.0778
          61    0.4819   -0.0613   -0.0631   -0.1086   -0.2459    0.0037    0.0082    0.0003
          62   -0.1403    0.0401   -0.1526   -0.1780   -0.2192    0.0328    0.0393    0.0811
          63    0.3527   -0.1589   -0.0769   -0.0400   -0.2060    0.0080    0.0217    0.0087
          64   -0.4623    0.1223    0.0856   -0.2604    0.1402   -0.0215    0.0433    0.1237
          65   -0.2561    0.0426   -0.2795    0.1942   -0.3812    0.0630   -0.0318   -0.1321
          66   -0.2636   -0.0565   -0.0910    0.1899   -0.1192    0.0195   -0.0191   -0.1041
          67    0.2734   -0.0304   -0.0360    0.2367    0.0211    0.0225   -0.0439   -0.1313
          68   -0.1837    0.0449   -0.2189   -0.0425   -0.2642    0.0399    0.0147    0.0132
          69    0.1890   -0.1016    0.0720   -0.3109    0.1109   -0.0078    0.0760    0.1786
          70    0.0624    0.0575    0.0492    0.1388    0.1813    0.0905    0.0113   -0.0308
          71    0.0714   -0.0196   -0.1126    0.1822    0.3487   -0.1031   -0.0292    0.0131
          72   -0.1853   -0.0556    0.1677   -0.0322    0.2433    0.0215    0.0077    0.0065
          73    0.0033    0.0353    0.0167    0.3727    0.3950    0.0481   -0.0225   -0.0735
          74    0.0023   -0.0160   -0.0527    0.0935    0.0809    0.0170    0.0099    0.0150
          75   -0.1146   -0.0313    0.1965   -0.2602    0.0878    0.0415    0.0366    0.0537


   Root No.      17        18        19        20        21        22        23        24

                17 A      18 A      19 A      20 A      21 A      22 A      23 A      24 A   

                   0.2       0.3       0.4       0.5       0.6       0.6       0.7       0.7
  
           1    0.0373   -0.0179   -0.1078    0.0173    0.0052    0.0123    0.0601    0.0033
           2   -0.0458    0.0296   -0.0270   -0.0537   -0.0118    0.0147   -0.0491   -0.0009
           3   -0.0689   -0.0725    0.0053   -0.0820    0.2203   -0.0187    0.0003   -0.0091
           4    0.0378   -0.0170   -0.0873    0.0124    0.0023    0.0031    0.0447    0.0032
           5   -0.0695    0.0481   -0.1008   -0.0455   -0.0050    0.0710   -0.0600   -0.0029
           6    0.0830    0.1052    0.0012   -0.0762    0.1897   -0.0147   -0.0035   -0.0036
           7    0.0267   -0.0095   -0.0173   -0.0315   -0.0137   -0.0128   -0.1031   -0.0031
           8   -0.0657    0.0439   -0.1305   -0.0171    0.0035    0.0743    0.0018   -0.0010
           9    0.0954   -0.0188    0.0092   -0.1164    0.2065   -0.0077   -0.0086    0.0066
          10    0.0663   -0.0376   -0.0473   -0.0277   -0.0255   -0.1052    0.0481   -0.0005
          11   -0.0521    0.0357   -0.1444   -0.0494   -0.0179   -0.0001    0.0760    0.0016
          12    0.0545    0.0653    0.0065   -0.1086    0.2622   -0.0252    0.0025   -0.0071
          13    0.0724   -0.0413   -0.0416   -0.0253   -0.0275   -0.1187    0.0665    0.0010
          14   -0.0321    0.0204   -0.0610   -0.0469   -0.0153   -0.0297    0.0701    0.0030
          15    0.0201    0.0210    0.0082   -0.1610    0.4321   -0.0394    0.0076   -0.0197
          16    0.0646   -0.0353   -0.1011   -0.0146   -0.0238   -0.1115    0.1463    0.0049
          17   -0.0294    0.0176   -0.0196   -0.0533   -0.0190   -0.0294    0.0085   -0.0000
          18    0.0723    0.0646    0.0030   -0.1037    0.2887   -0.0237    0.0037   -0.0140
          19    0.0218   -0.0102   -0.1903    0.0666    0.0472    0.1560    0.0375    0.0036
          20   -0.0389    0.0261    0.0122   -0.0898   -0.0378   -0.0684   -0.0332   -0.0005
          21   -0.3566   -0.3875    0.0101    0.0699   -0.2046    0.0131   -0.0018    0.0091
          22    0.0259   -0.0072   -0.2140    0.0335    0.0249    0.1180    0.2784    0.0093
          23   -0.0808    0.0593   -0.1708   -0.0411    0.0043    0.1438    0.0629    0.0008
          24    0.2187    0.4644   -0.0197    0.1195   -0.2195    0.0072    0.0104    0.0004
          25    0.1202   -0.0783    0.0061   -0.0223   -0.0480   -0.3549    0.2795    0.0127
          26   -0.0834    0.0587   -0.1853   -0.0548   -0.0074    0.1422   -0.0476   -0.0060
          27    0.0567    0.2785   -0.0081    0.1328   -0.2805    0.0175    0.0019    0.0024
          28    0.1440   -0.1014    0.1481    0.4238    0.1976    0.5213   -0.0267   -0.0040
          29    0.0024   -0.0095    0.0458    0.2008    0.1098    0.3431    0.0089    0.0006
          30   -0.2208   -0.2397    0.0083    0.0838   -0.2560    0.0239   -0.0041    0.0101
          31    0.0686   -0.0361   -0.1073   -0.0134   -0.0263   -0.1193    0.1644    0.0059
          32   -0.0112    0.0097    0.0161   -0.1529   -0.0792   -0.2228    0.0436    0.0009
          33    0.2607    0.2969   -0.0128    0.1300   -0.3181    0.0322   -0.0028    0.0119
          34    0.0221    0.0000   -0.0136   -0.0495   -0.0130   -0.0274   -0.1955   -0.0104
          35    0.0026   -0.0061    0.2266    0.1026    0.0227   -0.0649    0.0283    0.0186
          36    0.0521   -0.1368    0.0162   -0.0244   -0.0594    0.0184   -0.0260    0.0138
          37   -0.0020    0.0361    0.0274   -0.0118   -0.0102   -0.0285   -0.1775   -0.0149
          38   -0.0269    0.0361    0.1042    0.0600    0.0296   -0.0569    0.0002    0.0164
          39    0.0206   -0.0973   -0.0360   -0.0388   -0.0612    0.0427    0.0077    0.0163
          40   -0.0056    0.0446    0.0206   -0.0167   -0.0048   -0.0327   -0.2065   -0.0165
          41   -0.0574    0.0472   -0.0178    0.0196   -0.0028   -0.0834   -0.3219   -0.0114
          42    0.0017   -0.0626    0.0110    0.0050   -0.0016    0.0945    0.5389    0.0782
          43    0.0148    0.0591    0.2021    0.0540    0.0555   -0.1000   -0.1621    0.0189
          44   -0.0289    0.0426    0.1315    0.0771    0.0427   -0.0733    0.0053    0.0226
          45   -0.0352   -0.0638   -0.2942   -0.1741   -0.1252    0.1782   -0.0990   -0.0443
          46   -0.0326    0.1178    0.0166   -0.0004    0.0849   -0.0267   -0.0930   -0.0577
          47   -0.0876    0.1195   -0.0100    0.0716    0.1035   -0.0534    0.1759   -0.0134
          48    0.0553   -0.1663    0.0132   -0.0515   -0.1339    0.0433   -0.0995    0.0487
          49   -0.0025   -0.0465   -0.0004   -0.0303   -0.0118   -0.0179   -0.1512   -0.0091
          50    0.0359   -0.0416    0.0734    0.0388    0.0012   -0.0284    0.0249    0.0079
          51    0.0568   -0.0999    0.0349    0.0088   -0.0302   -0.0255   -0.0778    0.0022
          52    0.0166   -0.0931   -0.0623   -0.0609   -0.0481    0.0185   -0.1304   -0.0042
          53    0.1135   -0.0783   -0.1603   -0.1221   -0.0317    0.0547   -0.0760    0.0196
          54    0.0870   -0.0291   -0.0384   -0.0987    0.0097   -0.0208   -0.2526   -0.0001
          55   -0.0619   -0.1135    0.1394    0.0545   -0.0718   -0.0213   -0.0206    0.0036
          56    0.0302   -0.0840    0.0273   -0.0187   -0.0526    0.0283    0.0516    0.0270
          57    0.0109   -0.0991    0.2188    0.1435   -0.0147   -0.0952   -0.0014   -0.0038
          58   -0.1888    0.1426    0.4543   -0.3579   -0.1334    0.1993    0.0971    0.0391
          59    0.0921   -0.0591    0.2079    0.1491    0.0324   -0.1142    0.0363   -0.0425
          60   -0.2122    0.0216   -0.0129    0.3893    0.0695   -0.2426   -0.0321   -0.1541
          61   -0.0382    0.0171    0.0079   -0.0109   -0.0138    0.0069    0.0239   -0.4009
          62    0.0669   -0.0228    0.1357   -0.1269   -0.0524    0.0755    0.0213    0.0253
          63    0.0131   -0.0135    0.0765   -0.0996   -0.0477    0.0632    0.0311   -0.2242
          64    0.1103   -0.0415    0.0597   -0.0568   -0.0216    0.0342    0.0077   -0.0102
          65   -0.1651    0.0647   -0.0826    0.0721    0.0284   -0.0430   -0.0165    0.0173
          66   -0.1053    0.0302   -0.0759    0.0586    0.0215   -0.0320   -0.0074   -0.0233
          67   -0.1767    0.0686   -0.1578    0.2024    0.0957   -0.1257   -0.0684    0.6441
          68    0.0068   -0.0008    0.0360   -0.1024   -0.0353    0.0650   -0.0043    0.1101
          69    0.1662   -0.0632    0.1502   -0.1401   -0.0444    0.0801   -0.0136    0.4900
          70   -0.2448    0.1544    0.0463   -0.0126    0.0225    0.0262    0.0378   -0.0583
          71    0.4447   -0.3028   -0.1336    0.1364   -0.0043   -0.1053   -0.0690   -0.1513
          72   -0.1212    0.0678   -0.0192   -0.0026    0.0126    0.0174    0.0279   -0.1299
          73   -0.0962    0.0459    0.0194   -0.1220   -0.0425    0.1068    0.0432   -0.1600
          74    0.0797   -0.0540    0.2271    0.0466   -0.0057   -0.0398    0.0621   -0.0418
          75   -0.2049    0.1346   -0.0552    0.1367    0.0842   -0.0861   -0.0017   -0.0566


   Root No.      25        26        27        28        29        30        31        32

                25 A      26 A      27 A      28 A      29 A      30 A      31 A      32 A   

                   0.9       0.9       0.9       1.0       1.1       1.2       1.3       1.3
  
           1    0.0021   -0.0583    0.0418   -0.0572   -0.1106   -0.0562   -0.0437   -0.0175
           2    0.0045   -0.0441    0.0861   -0.1643    0.0127    0.0341    0.0697   -0.0001
           3   -0.0015   -0.0088   -0.0369   -0.0022   -0.0032   -0.0004    0.0069   -0.3290
           4    0.0044   -0.0353    0.0346   -0.0234   -0.0989   -0.0479   -0.0389   -0.0119
           5   -0.0101    0.0447    0.0397   -0.0867    0.0834    0.0632    0.0853    0.0206
           6    0.0026    0.0013    0.0372    0.0335    0.0798   -0.0261   -0.0211   -0.4643
           7    0.0096    0.0266    0.0947    0.0173   -0.0505    0.0029    0.0649    0.0266
           8   -0.0097   -0.0093    0.0152   -0.0598    0.0217    0.0100    0.0054    0.0010
           9    0.0076    0.0138    0.1235    0.0623    0.1408   -0.0426   -0.0483   -0.2834
          10   -0.0010    0.0149    0.0224    0.0223   -0.1051   -0.0652   -0.0173   -0.0043
          11   -0.0119   -0.0150   -0.0047   -0.0854   -0.0418   -0.0395   -0.0458   -0.0224
          12    0.0005   -0.0026   -0.0033    0.0036    0.0050   -0.0055   -0.0169    0.1308
          13   -0.0003    0.0380    0.0054    0.0465   -0.1204   -0.0765   -0.0385   -0.0067
          14   -0.0004   -0.0973    0.0198   -0.1622   -0.0156   -0.0092   -0.0316   -0.0303
          15   -0.0043   -0.0159   -0.1283   -0.0587   -0.1322    0.0393    0.0249    0.4665
          16    0.0002   -0.0636   -0.0059    0.0076   -0.1922   -0.1318   -0.1346   -0.0410
          17    0.0035   -0.0549    0.0381   -0.1013   -0.0094    0.0059    0.0186   -0.0112
          18   -0.0033   -0.0131   -0.0931   -0.0421   -0.0872    0.0272    0.0259    0.0760
          19   -0.0560    0.5295   -0.0254   -0.4761    0.1083    0.0609    0.0545   -0.0305
          20    0.0394   -0.3981    0.1427    0.0429   -0.1274   -0.0333    0.0260    0.0046
          21    0.0040    0.0027    0.0296    0.0068    0.0043   -0.0020   -0.0047    0.2233
          22    0.0135   -0.2433   -0.2667    0.4842    0.2168    0.1580    0.0365    0.0208
          23   -0.0059   -0.0688   -0.1250    0.1801    0.2948    0.2075    0.1575    0.0502
          24   -0.0023   -0.0072   -0.0547   -0.0307   -0.0678    0.0200    0.0168    0.2990
          25   -0.0136   -0.1502   -0.0903   -0.3386    0.3878    0.1916    0.0674    0.0167
          26   -0.0072    0.0773    0.0648    0.1040   -0.3521   -0.2097   -0.1101   -0.0433
          27   -0.0049   -0.0013   -0.0131   -0.0060   -0.0095    0.0083    0.0105   -0.0984
          28   -0.0090    0.0451   -0.0457    0.1205   -0.0198   -0.0219   -0.0305    0.0114
          29   -0.0050   -0.0884   -0.0072   -0.1421    0.0555    0.0326   -0.0204   -0.0262
          30    0.0043    0.0103    0.0594    0.0278    0.0549   -0.0129   -0.0127   -0.1783
          31   -0.0001   -0.0631   -0.0083    0.0094   -0.2421   -0.1676   -0.1749   -0.0536
          32   -0.0125    0.6233   -0.2577    0.4072    0.0236    0.0148   -0.0512    0.0145
          33    0.0038    0.0125    0.0725    0.0226    0.0631   -0.0180   -0.0164   -0.0671
          34    0.0034    0.0141    0.1245    0.0489   -0.0088    0.0122    0.1121    0.0388
          35    0.0327    0.0005   -0.0291   -0.0303    0.0233   -0.0095   -0.1369    0.0157
          36    0.0182    0.0066    0.0544    0.0187    0.0450    0.0260   -0.0704    0.0245
          37   -0.0063   -0.0148   -0.0039    0.0102   -0.0193    0.0392    0.0703    0.0910
          38   -0.0909    0.0005    0.0082    0.0047    0.0469   -0.0679   -0.1015    0.0317
          39   -0.0518   -0.0099   -0.0202   -0.0036    0.0226   -0.0062   -0.0476    0.0608
          40   -0.0434   -0.0230   -0.0224    0.0129   -0.0438    0.0682    0.1292    0.0785
          41   -0.3022   -0.0810   -0.2117   -0.0100   -0.0674    0.1524    0.0343   -0.1250
          42   -0.2664    0.0696    0.1770    0.0123   -0.1635   -0.0178    0.2614   -0.0328
          43   -0.3861   -0.0627   -0.1815    0.0073   -0.0091    0.0466   -0.0388   -0.1777
          44   -0.1613   -0.0072   -0.0214    0.0020    0.0504   -0.0691   -0.1458   -0.0106
          45    0.3551   -0.0724   -0.3936   -0.1545   -0.0267   -0.1353    0.0082   -0.0644
          46    0.4224    0.0085    0.0199    0.0088    0.1860   -0.0452   -0.2864   -0.0257
          47    0.1100    0.0961    0.4137    0.1153   -0.0095    0.1945    0.0397    0.0767
          48   -0.3271   -0.0601   -0.1971   -0.0474   -0.0421   -0.0694    0.0368    0.1096
          49    0.0087    0.0180    0.1710    0.0688    0.0516   -0.0184    0.1783    0.0013
          50    0.0609    0.0058   -0.0239   -0.0198   -0.0102    0.0416   -0.1631    0.0122
          51    0.0223    0.0128    0.1004    0.0411    0.0829   -0.0107   -0.0771    0.0752
          52   -0.0279    0.0100    0.1467    0.0641    0.0594   -0.0176    0.1532    0.0309
          53   -0.0400    0.0046    0.1152    0.0386    0.0796   -0.0011   -0.0342    0.0462
          54    0.0219    0.0344    0.3322    0.1240    0.1478   -0.0158    0.1320    0.0475
          55    0.0356    0.0076    0.0370    0.0219    0.0479    0.0103   -0.0831    0.0871
          56    0.0038   -0.0040   -0.0450   -0.0240    0.0174    0.0177   -0.1822    0.0471
          57    0.1196    0.0164    0.0202    0.0037    0.0590    0.0493   -0.3161    0.1088
          58    0.2216    0.0132   -0.0990   -0.0264   -0.1567    0.0873    0.2896   -0.0813
          59    0.1421    0.0023   -0.1133    0.0018    0.0853   -0.4120    0.3353    0.0131
          60    0.2267    0.0171   -0.0979   -0.0145   -0.3439    0.4346    0.1615   -0.1317
          61   -0.0528   -0.0017    0.0119    0.0073    0.0253   -0.0569    0.0253    0.0088
          62    0.0262    0.0014   -0.0056   -0.0143   -0.0440    0.0999   -0.0399   -0.0153
          63   -0.0242    0.0020    0.0134   -0.0103   -0.0102    0.0507   -0.0564   -0.0109
          64    0.0028   -0.0007    0.0012   -0.0021   -0.0080    0.0303   -0.0154   -0.0028
          65    0.0005   -0.0016   -0.0048    0.0109    0.0023   -0.0312    0.0540    0.0019
          66   -0.0085   -0.0003    0.0009    0.0067    0.0196   -0.0395    0.0184   -0.0011
          67    0.0728   -0.0005   -0.0254    0.0060    0.0110   -0.0661    0.0474    0.0019
          68   -0.0079    0.0008    0.0218   -0.0092   -0.0408    0.1357   -0.0966   -0.0086
          69    0.0614    0.0027   -0.0041   -0.0129   -0.0553    0.1326   -0.0441   -0.0202
          70   -0.0976   -0.0071    0.0125   -0.0119    0.0983   -0.1102   -0.0990    0.0337
          71    0.0994    0.0088   -0.0142    0.0265   -0.1296    0.1209    0.1568   -0.0384
          72   -0.0779   -0.0026    0.0257   -0.0040    0.0601   -0.0489   -0.0687    0.0154
          73   -0.1033   -0.0013    0.0510   -0.0284   -0.0069    0.1738   -0.2279    0.0052
          74    0.1418    0.0034   -0.1018   -0.0248    0.0506   -0.2482    0.1767   -0.0041
          75   -0.0759   -0.0080   -0.0043    0.0238    0.1566   -0.3367    0.0972    0.0442


   Root No.      33        34        35        36        37        38        39        40

                33 A      34 A      35 A      36 A      37 A      38 A      39 A      40 A   

                   1.4       1.4       1.6       1.7       1.9       2.0       2.2       2.5
  
           1   -0.2045    0.0093   -0.0074   -0.0071   -0.0326   -0.0888   -0.0155    0.0577
           2   -0.2075    0.0241    0.0125   -0.0232   -0.0171   -0.1813   -0.1462    0.0782
           3    0.0274    0.3909   -0.0083   -0.1192    0.0165    0.0252   -0.0025   -0.0186
           4   -0.2106    0.0153   -0.0043   -0.0102   -0.0418   -0.0932    0.0017    0.0592
           5    0.2171    0.0068    0.0347   -0.0179   -0.0266   -0.0975    0.0016   -0.0611
           6    0.0122    0.0726   -0.0119    0.1579   -0.0275   -0.0768    0.0136   -0.0895
           7   -0.0105    0.0389    0.0377   -0.0393   -0.0573   -0.1917   -0.0248   -0.0692
           8    0.1299   -0.0060    0.0060    0.0013   -0.0242   -0.0034    0.0619    0.0112
           9   -0.0128   -0.3322   -0.0103    0.2679   -0.0288   -0.0624   -0.0004    0.0366
          10    0.2009   -0.0067    0.0200   -0.0127   -0.0053   -0.1115   -0.1132    0.0423
          11    0.2294   -0.0369   -0.0060    0.0200    0.0249    0.0887    0.0210    0.0719
          12   -0.0169   -0.3601   -0.0041    0.2527   -0.0383   -0.0951    0.0093   -0.0721
          13    0.2003   -0.0079    0.0194   -0.0134   -0.0145   -0.1203   -0.1059    0.0542
          14   -0.1849   -0.0249   -0.0362    0.0337    0.0780    0.2312    0.0717   -0.1066
          15   -0.0072   -0.0846    0.0106   -0.0490    0.0018    0.0132    0.0047   -0.0142
          16    0.0210   -0.0347   -0.0286    0.0293    0.0400    0.1762    0.0935   -0.0888
          17   -0.1097   -0.0008   -0.0056    0.0026    0.0318    0.0119   -0.0607   -0.0158
          18    0.0215    0.3316    0.0032   -0.2579    0.0415    0.0997   -0.0178    0.1071
          19   -0.2304   -0.0074   -0.0114    0.0006    0.0321   -0.0734   -0.1542    0.0839
          20   -0.3036    0.0437    0.0194   -0.0415   -0.0757   -0.3346   -0.1864    0.1798
          21   -0.0162   -0.2454    0.0035    0.0664   -0.0068   -0.0124   -0.0010    0.0058
          22   -0.2692    0.0138   -0.0153    0.0031    0.0217    0.0363   -0.0580    0.0716
          23    0.3071    0.0052    0.0464   -0.0191    0.0071   -0.0541   -0.0238   -0.1441
          24   -0.0092   -0.0363    0.0058   -0.0743    0.0117    0.0321   -0.0078    0.0291
          25    0.2592   -0.0097    0.0101    0.0046   -0.0158    0.0141    0.0308    0.0855
          26    0.3174   -0.0462    0.0028    0.0137    0.0438    0.0307   -0.0957    0.1422
          27    0.0118    0.2089   -0.0001   -0.1115    0.0148    0.0362   -0.0018    0.0229
          28    0.1975   -0.0022    0.0175   -0.0134   -0.0551   -0.1449   -0.0464    0.1038
          29   -0.2390   -0.0282   -0.0481    0.0469    0.0938    0.3629    0.1825   -0.1735
          30    0.0016    0.0282   -0.0032    0.0154   -0.0008   -0.0036    0.0008    0.0042
          31    0.0246   -0.0499   -0.0401    0.0436    0.0597    0.2745    0.1615   -0.1745
          32   -0.1991    0.0226   -0.0102   -0.0032   -0.0377   -0.0070    0.0641    0.0147
          33   -0.0139   -0.1805   -0.0023    0.1318   -0.0188   -0.0489    0.0049   -0.0399
          34   -0.0141    0.0437    0.0449   -0.0300   -0.0411   -0.1088    0.0339   -0.1500
          35   -0.0030    0.0317    0.0145   -0.0110   -0.1643   -0.1088    0.2706    0.0284
          36    0.0063   -0.0023   -0.0531   -0.0006    0.0459    0.0776   -0.0696    0.1689
          37    0.0117    0.1977   -0.0776    0.2884   -0.0680   -0.0237    0.1108   -0.0888
          38   -0.0188    0.0466    0.3693    0.0115    0.0045   -0.0480    0.0267   -0.1334
          39    0.0013    0.0991    0.1103    0.1766    0.0941    0.1400   -0.1541    0.2045
          40    0.0171    0.2024   -0.2164    0.3593   -0.1105   -0.0437    0.1913   -0.1684
          41    0.0220   -0.1714   -0.3388   -0.0836    0.0318    0.0726   -0.0543    0.1203
          42   -0.0131   -0.0651   -0.0523   -0.1977   -0.0900   -0.1396    0.0956   -0.1202
          43   -0.0034   -0.2815   -0.0907   -0.2404    0.0844    0.0652   -0.1170    0.0936
          44   -0.0256   -0.0281    0.4882   -0.0906    0.0201   -0.0672    0.0221   -0.2050
          45   -0.0080   -0.0837   -0.0685   -0.1612   -0.1352   -0.1530    0.1677   -0.1035
          46   -0.0081   -0.0757    0.2213   -0.0193    0.1080    0.1127   -0.1392    0.1534
          47    0.0245    0.1039   -0.2065    0.2002    0.0517    0.1251   -0.0809    0.1696
          48   -0.0069    0.2389    0.2782    0.3504    0.0238    0.0685   -0.0549    0.0958
          49   -0.0183   -0.0548    0.1102   -0.1348   -0.0847    0.0567    0.1870   -0.0234
          50    0.0122    0.0256   -0.1278   -0.0105   -0.0529   -0.1922    0.0762   -0.1726
          51    0.0082    0.0406   -0.0873   -0.0668    0.1008    0.0604   -0.1385    0.0189
          52   -0.0134   -0.0192    0.1075   -0.1078    0.0030    0.1601    0.0506    0.0837
          53    0.0070    0.0091   -0.0279   -0.0995    0.0439    0.0829   -0.0129   -0.0126
          54   -0.0099   -0.0693    0.0415   -0.2833   -0.0319    0.1530    0.1766   -0.0436
          55    0.0091    0.0632   -0.1026   -0.1248    0.0675    0.0567   -0.0296   -0.0689
          56    0.0189    0.0689   -0.1264    0.0283    0.0612   -0.0465   -0.1095   -0.0124
          57    0.0289    0.0915   -0.3027   -0.1164    0.0758   -0.1399   -0.0707   -0.2239
          58    0.0425   -0.0751    0.0384    0.0372    0.2508    0.0923   -0.2152   -0.1588
          59   -0.0068    0.0014   -0.0914    0.0307    0.0262    0.0440   -0.1288   -0.0379
          60    0.0010   -0.0827    0.2182    0.0135   -0.0779    0.0597    0.0576    0.0636
          61   -0.0061    0.0043   -0.0084    0.0079    0.2061   -0.0811    0.0756    0.0098
          62    0.0071   -0.0095    0.0193   -0.0048   -0.1017    0.0303    0.0509    0.0819
          63    0.0034   -0.0014    0.0067   -0.0114   -0.2958    0.1154   -0.1267   -0.0345
          64    0.0033   -0.0014    0.0048   -0.0024   -0.0518    0.0186   -0.0141   -0.0014
          65   -0.0052    0.0011    0.0016    0.0171    0.4651   -0.1891    0.2562    0.1097
          66   -0.0000    0.0045   -0.0069    0.0014   -0.0020    0.0048   -0.0269   -0.0208
          67   -0.0017    0.0006   -0.0116   -0.0013   -0.1549    0.0756   -0.1252   -0.0555
          68    0.0027   -0.0027    0.0208   -0.0171   -0.3693    0.1525   -0.2699   -0.1812
          69    0.0057   -0.0069    0.0228    0.0043    0.2665   -0.1285    0.2642    0.1509
          70   -0.0016    0.0268   -0.0413   -0.0002   -0.0567   -0.0196    0.0435    0.0275
          71   -0.0091   -0.0252    0.0507    0.0123    0.1902   -0.0125   -0.1569   -0.1830
          72   -0.0019    0.0143   -0.0123   -0.0043   -0.0241   -0.0174    0.0274   -0.0014
          73    0.0049    0.0103    0.0239   -0.0171   -0.0832   -0.0382    0.1781    0.1214
          74    0.0168   -0.0109   -0.0613    0.0039   -0.3048    0.1094    0.2203    0.4313
          75   -0.0132    0.0296   -0.0776    0.0153    0.0843   -0.0081   -0.1497   -0.1260


   Root No.      41        42        43        44        45        46        47        48

                41 A      42 A      43 A      44 A      45 A      46 A      47 A      48 A   

                   2.9       3.2       3.3       3.4       3.8       4.3       4.7       5.1
  
           1    0.0148   -0.0507    0.2582    0.1295   -0.0326    0.0860   -0.1011    0.1074
           2    0.0343    0.0391   -0.1388   -0.0503   -0.0097   -0.0689    0.0537   -0.0602
           3   -0.0068   -0.0657   -0.1626    0.4400    0.2485    0.0397    0.3430    0.2434
           4   -0.0649   -0.0709    0.2559    0.1004    0.0000    0.1530   -0.1150    0.0952
           5    0.1973   -0.0286    0.1459    0.0616   -0.0046    0.0959   -0.0750    0.0435
           6   -0.0399    0.4871    0.1528   -0.1206   -0.0563   -0.0182   -0.3211   -0.3214
           7    0.1185   -0.0038   -0.0116   -0.0433    0.1151    0.3347   -0.1637    0.0967
           8   -0.0224   -0.0672    0.3021    0.1393   -0.0373    0.0146   -0.0261   -0.0033
           9    0.0302   -0.2903    0.0472   -0.3496   -0.2111   -0.0050    0.2313    0.4142
          10   -0.0335    0.0653   -0.2695   -0.1263    0.0763    0.1125   -0.0424    0.0333
          11   -0.2217   -0.0454    0.1521    0.0733   -0.0424   -0.0710    0.0247   -0.0275
          12   -0.0176   -0.2626   -0.2662    0.4692    0.0832    0.0001   -0.2445   -0.2768
          13    0.0320    0.0572   -0.2495   -0.1171    0.0450    0.0485   -0.0049   -0.0028
          14    0.0141    0.0310   -0.1577   -0.0842    0.0345   -0.0120    0.0409   -0.0681
          15   -0.0211    0.4712    0.1796   -0.1008    0.0865    0.0198    0.2249    0.1711
          16    0.1689    0.0030    0.0107    0.0122   -0.0170   -0.0169   -0.0044    0.0070
          17    0.0258    0.0746   -0.3019   -0.1341    0.0457   -0.0413    0.0749   -0.1084
          18    0.0508   -0.4436   -0.0039   -0.3177   -0.2430   -0.0327   -0.2869   -0.1887
          19    0.0472    0.0550   -0.1515   -0.0280   -0.0601   -0.1819    0.0837   -0.0366
          20    0.0998   -0.0001    0.1294    0.1111   -0.1250   -0.2039    0.0523    0.0213
          21    0.0028    0.0242    0.0527   -0.1323   -0.0654   -0.0085   -0.0649   -0.0394
          22   -0.2463    0.0326   -0.1734   -0.0863    0.0274   -0.0330    0.0488   -0.0664
          23    0.4520    0.0419   -0.0877   -0.0139   -0.0209   -0.0112   -0.0260    0.0709
          24    0.0108   -0.1560   -0.0488    0.0348    0.0090    0.0032    0.0598    0.0585
          25   -0.2837   -0.0505    0.1653    0.0627   -0.0121   -0.0021   -0.0065    0.0197
          26   -0.4298    0.0089   -0.0966   -0.0580    0.0282    0.0128    0.0049    0.0248
          27    0.0047    0.0748    0.0744   -0.1341   -0.0278   -0.0019    0.0401    0.0496
          28    0.0467   -0.0139    0.1134    0.0793   -0.0847   -0.1867    0.0937   -0.0857
          29   -0.1286   -0.0256   -0.0060   -0.0476    0.1104    0.2993   -0.1687    0.1612
          30    0.0053   -0.0826   -0.0295    0.0155   -0.0121   -0.0024   -0.0187   -0.0111
          31    0.4230    0.0149    0.0504    0.0564   -0.0895   -0.2087    0.1054   -0.0719
          32   -0.0149   -0.0445    0.1816    0.0799   -0.0230    0.0156   -0.0273    0.0300
          33   -0.0186    0.1314   -0.0017    0.0898    0.0597    0.0067    0.0521    0.0296
          34    0.0215   -0.0264   -0.0137   -0.0699    0.1363    0.2869   -0.1103    0.0581
          35   -0.0219   -0.0613    0.0738   -0.0520    0.0952   -0.0012    0.2452   -0.3786
          36    0.0817   -0.0485    0.0651   -0.0685    0.0789    0.1945    0.2466   -0.1881
          37   -0.0607   -0.0056   -0.0318    0.0000   -0.0798    0.0047    0.0026   -0.0109
          38   -0.0495    0.0056   -0.0412    0.0025   -0.0797    0.0138   -0.0003    0.0002
          39    0.0844    0.0074    0.0534    0.0053    0.1289   -0.0290   -0.0177   -0.0057
          40   -0.1314   -0.0335   -0.0784   -0.0298   -0.2927   -0.0476    0.2085   -0.0083
          41    0.0391    0.0019    0.0268    0.0038    0.0476   -0.0107   -0.0086   -0.0104
          42   -0.0210    0.0011   -0.0106   -0.0041    0.0085    0.0369   -0.0250    0.0049
          43    0.0485    0.0054    0.0188    0.0028    0.0597    0.0018   -0.0296    0.0077
          44   -0.0810    0.0103   -0.0903    0.0014   -0.2310    0.0687    0.0991    0.0556
          45   -0.0395   -0.0108   -0.0029   -0.0091   -0.0151   -0.0002    0.0215   -0.0299
          46    0.0673   -0.0044    0.0389   -0.0101    0.1283   -0.0424   -0.0622    0.0219
          47    0.0587   -0.0064    0.0427   -0.0129    0.1161   -0.0444   -0.0450    0.0103
          48    0.0374   -0.0004    0.0368   -0.0110    0.2133   -0.1843   -0.1913    0.0960
          49   -0.0443   -0.0820    0.0624   -0.1306    0.3248   -0.1742    0.0715   -0.0862
          50   -0.0184   -0.1228    0.0362   -0.2134    0.4359   -0.1858   -0.0410    0.0541
          51    0.0342    0.0552    0.0006    0.0885   -0.1972    0.3712    0.1660   -0.2094
          52   -0.0114    0.0242    0.0242    0.0426   -0.0311    0.0955    0.1462   -0.1952
          53   -0.0515    0.0939   -0.0679    0.1342   -0.2182   -0.1140   -0.1214    0.1248
          54   -0.1169    0.0556   -0.0377    0.0679   -0.0276   -0.2827   -0.0570    0.0366
          55   -0.0714    0.1091   -0.0832    0.1368   -0.1967   -0.1828   -0.1619    0.1565
          56    0.0338    0.0226   -0.0151    0.0264   -0.0816    0.2018    0.0463   -0.0583
          57   -0.0580    0.0399   -0.0719    0.0106   -0.0049   -0.1082   -0.1464    0.1548
          58   -0.0606   -0.0369    0.0887    0.0269   -0.0262   -0.0585    0.0311   -0.0209
          59    0.0096   -0.0241    0.0498   -0.0051    0.0309   -0.0205    0.0175   -0.0256
          60    0.0015    0.0396   -0.0530    0.0359   -0.0785    0.0060   -0.0355    0.0405
          61   -0.0032   -0.0071    0.0123   -0.0029    0.0084   -0.0064    0.0182   -0.0306
          62    0.0199    0.0304   -0.0458    0.0099   -0.0244    0.0208   -0.0459    0.0705
          63   -0.0019    0.0014   -0.0078    0.0033   -0.0075    0.0072   -0.0195    0.0345
          64    0.0014    0.0020   -0.0023    0.0012   -0.0023    0.0017   -0.0044    0.0080
          65    0.0116    0.0127   -0.0179    0.0026   -0.0044    0.0048   -0.0067    0.0097
          66   -0.0018   -0.0077    0.0071   -0.0005    0.0037   -0.0029    0.0082   -0.0144
          67   -0.0064   -0.0052    0.0085    0.0005   -0.0010    0.0015   -0.0071    0.0139
          68   -0.0347   -0.0408    0.0621   -0.0105    0.0234   -0.0269    0.0546   -0.0797
          69    0.0203    0.0225   -0.0358    0.0058   -0.0092    0.0060   -0.0019   -0.0064
          70    0.0070   -0.0031    0.0019   -0.0096    0.0156   -0.0018    0.0241   -0.0379
          71   -0.0451   -0.0443    0.0695   -0.0052    0.0150   -0.0291    0.0308   -0.0336
          72   -0.0027   -0.0093    0.0108   -0.0073    0.0117   -0.0111    0.0283   -0.0415
          73    0.0211    0.0255   -0.0448    0.0027   -0.0113    0.0161   -0.0203    0.0278
          74    0.1236    0.1384   -0.2051    0.0413   -0.0809    0.0929   -0.1528    0.1768
          75   -0.0182   -0.0337    0.0516   -0.0108    0.0237   -0.0042    0.0086   -0.0009


   Root No.      49        50        51        52        53        54        55        56

                49 A      50 A      51 A      52 A      53 A      54 A      55 A      56 A   

                   5.8       6.0       6.2       6.8       7.7       8.1       8.4       8.7
  
           1    0.0297    0.0251    0.0117   -0.2321    0.2273   -0.0366    0.0169   -0.0213
           2    0.1000   -0.1155   -0.1017    0.0856   -0.0241   -0.2006    0.1011   -0.0755
           3    0.0400   -0.0030    0.0059    0.0098   -0.0023    0.0002   -0.0005    0.0007
           4    0.1155   -0.0416   -0.0373   -0.1843    0.1730   -0.0908    0.0454   -0.0384
           5    0.1128   -0.1203   -0.1239    0.0407   -0.3055   -0.0373    0.0217   -0.0102
           6   -0.0787    0.0024   -0.0196   -0.0353    0.0006   -0.0104    0.0048   -0.0027
           7    0.0938   -0.0146   -0.0118    0.1062   -0.0590   -0.2250    0.0817   -0.0369
           8    0.1350   -0.1788   -0.1771   -0.0298   -0.2196    0.0908   -0.0295    0.0172
           9    0.1558    0.0005    0.0497    0.0876    0.0075    0.0302   -0.0140    0.0081
          10    0.0681    0.0719    0.1002   -0.2044   -0.1693    0.0964   -0.0159    0.0005
          11    0.0440   -0.1093   -0.1168   -0.0818   -0.2007    0.2496   -0.0960    0.0555
          12   -0.0703    0.0021   -0.0172   -0.0259   -0.0001   -0.0135    0.0054   -0.0024
          13    0.1137    0.0454    0.0917   -0.2660   -0.2589    0.1601   -0.0262   -0.0014
          14    0.1702   -0.1956   -0.1790   -0.0444    0.4086    0.0040   -0.0438    0.0441
          15    0.0297   -0.0008    0.0057    0.0046   -0.0029    0.0007   -0.0001    0.0000
          16    0.0540   -0.0091    0.0013   -0.2323    0.2117    0.2021   -0.1045    0.0724
          17    0.1925   -0.1771   -0.1395   -0.0039    0.0493   -0.0620    0.0289   -0.0202
          18   -0.0284    0.0020   -0.0042   -0.0052    0.0003   -0.0014    0.0004   -0.0002
          19   -0.1510    0.1070    0.0928    0.0595   -0.0501    0.0954   -0.0438    0.0318
          20   -0.2736    0.2139    0.1776    0.0538   -0.0880    0.1590   -0.0730    0.0528
          21   -0.0041    0.0003    0.0002   -0.0006    0.0007   -0.0004    0.0001   -0.0001
          22    0.0442   -0.0904   -0.0864    0.1305   -0.1863   -0.0063    0.0047    0.0006
          23   -0.1272    0.1972    0.1901   -0.1510    0.3346   -0.0184    0.0016   -0.0089
          24    0.0152   -0.0016    0.0037    0.0072   -0.0013    0.0012   -0.0011    0.0008
          25   -0.1270    0.0657    0.0399    0.1658    0.1216   -0.1320    0.0413   -0.0197
          26   -0.2026    0.1526    0.1203    0.2193    0.2606   -0.2201    0.0690   -0.0335
          27    0.0126    0.0005    0.0037    0.0047   -0.0001    0.0020   -0.0008    0.0004
          28    0.0580   -0.1374   -0.1348    0.0558    0.1422   -0.0128   -0.0108    0.0125
          29   -0.1458    0.2531    0.2364   -0.0794   -0.2508    0.0419    0.0081   -0.0140
          30   -0.0004    0.0006   -0.0001    0.0006   -0.0001   -0.0001   -0.0000    0.0001
          31   -0.1579    0.0161   -0.0103    0.3861   -0.2359   -0.1985    0.0931   -0.0590
          32   -0.0343    0.0239    0.0133   -0.0010    0.0302   -0.0057   -0.0006    0.0012
          33    0.0052   -0.0004    0.0006   -0.0010    0.0010    0.0006   -0.0004    0.0003
          34   -0.0232   -0.0552   -0.0746    0.3407    0.0611   -0.0530   -0.0230    0.0422
          35    0.3502    0.1244    0.4126   -0.0312   -0.0210   -0.1162    0.1380   -0.1029
          36   -0.1881   -0.0005   -0.0839   -0.2007   -0.0561   -0.2370    0.1011   -0.0393
          37    0.0551   -0.0039    0.0383    0.1494    0.0302    0.0579   -0.0326    0.0489
          38    0.0844    0.0103    0.0941    0.1588    0.0745    0.2240   -0.0614   -0.0598
          39   -0.1027   -0.0087   -0.0915   -0.1977   -0.0673   -0.2276    0.1184   -0.1101
          40   -0.1805    0.0071   -0.0908   -0.2406   -0.0334   -0.0457    0.0298   -0.0467
          41    0.0164    0.0029    0.0093   -0.0010   -0.0039   -0.0114    0.0028    0.0066
          42    0.0246   -0.0039    0.0123    0.0543    0.0101    0.0163   -0.0094    0.0093
          43    0.0146   -0.0000    0.0096    0.0179    0.0081    0.0191   -0.0055   -0.0077
          44   -0.2681   -0.0382   -0.2271   -0.1977   -0.0641   -0.1730    0.0367    0.0474
          45    0.0447    0.0100    0.0429    0.0220    0.0049    0.0138   -0.0017    0.0015
          46    0.0496    0.0044    0.0283    0.0315    0.0065    0.0236   -0.0151    0.0203
          47    0.0491    0.0064    0.0292    0.0231    0.0025    0.0109   -0.0105    0.0224
          48    0.1637    0.0123    0.0953    0.1290    0.0290    0.1109   -0.0589    0.0619
          49   -0.1805   -0.0174   -0.0773   -0.0537    0.0156    0.1053   -0.0428    0.0165
          50   -0.2531   -0.0443   -0.1705   -0.0342    0.0156    0.0883   -0.0433    0.0165
          51   -0.0565   -0.0245    0.0071    0.1636    0.0719    0.2608   -0.1123    0.0566
          52   -0.0592    0.0016    0.0153    0.0365    0.0461    0.1827   -0.0757    0.0359
          53    0.1578    0.0263    0.0701   -0.0267   -0.0332   -0.1207    0.0564   -0.0299
          54    0.0509    0.0241    0.0455   -0.0706   -0.0115   -0.0068    0.0116   -0.0100
          55    0.1615    0.0292    0.0741   -0.0466   -0.0391   -0.1566    0.0737   -0.0381
          56   -0.0545   -0.0222   -0.0353    0.0986    0.0409    0.1463   -0.0759    0.0448
          57   -0.0469   -0.0232   -0.0723    0.0417    0.0143    0.0592   -0.0412    0.0264
          58    0.0073   -0.0103    0.0008   -0.0186   -0.0065    0.0264    0.0067   -0.0163
          59    0.0313   -0.0247    0.0796   -0.0437   -0.0201   -0.0768    0.0290    0.0139
          60    0.0231    0.0204   -0.0173    0.0235    0.0055    0.0140   -0.0128   -0.0033
          61    0.0860    0.2340   -0.1626    0.0154    0.0063    0.0482    0.1668    0.1245
          62   -0.1649   -0.4148    0.2693   -0.0166    0.0081    0.0748    0.3938    0.3976
          63   -0.1113   -0.3124    0.2216   -0.0224   -0.0118   -0.0866   -0.3186   -0.2590
          64   -0.0290   -0.0859    0.0643   -0.0079   -0.0060   -0.0494   -0.1941   -0.1641
          65   -0.0307   -0.0890    0.0643   -0.0083   -0.0092   -0.0722   -0.2905   -0.2421
          66    0.0493    0.1458   -0.1063    0.0130    0.0115    0.0880    0.3503    0.2942
          67   -0.0471   -0.1335    0.0946   -0.0088   -0.0010   -0.0018    0.0210    0.0241
          68    0.1749    0.4236   -0.2653    0.0185    0.0010    0.0037   -0.0582   -0.1307
          69    0.0513    0.1608   -0.1235    0.0142    0.0015    0.0049   -0.0223   -0.0213
          70    0.0461    0.0452    0.0303   -0.0238   -0.0361   -0.2053   -0.2741    0.3561
          71    0.0248   -0.0114    0.0494   -0.0150   -0.0091   -0.0362   -0.0240    0.0476
          72    0.0524    0.0480    0.0349   -0.0262   -0.0362   -0.2012   -0.2662    0.3430
          73   -0.0419   -0.0534   -0.0074    0.0238    0.0321    0.1966    0.2830   -0.3367
          74   -0.0886    0.1065   -0.2796    0.0674    0.0235    0.0572   -0.0803   -0.0403
          75   -0.0310   -0.0509    0.0065    0.0100    0.0307    0.1821    0.2683   -0.3551


   Root No.      57        58        59        60        61        62        63        64

                57 A      58 A      59 A      60 A      61 A      62 A      63 A      64 A   

                   8.9       9.0       9.6      10.3      11.4      14.0      14.7      16.0
  
           1    0.0280   -0.0830    0.2168    0.0828    0.0003    0.3388    0.1151    0.4143
           2    0.0571   -0.1685    0.3587    0.1247    0.1262   -0.2484    0.2893    0.1826
           3   -0.0005    0.0014   -0.0023    0.0003   -0.0019   -0.0064   -0.0004   -0.0004
           4    0.0344   -0.0986    0.2156    0.0703    0.0947   -0.3108   -0.1892   -0.2968
           5    0.0289   -0.0212   -0.1369   -0.1179   -0.4040   -0.2444    0.1804    0.3578
           6    0.0016   -0.0052   -0.0081    0.0192    0.0022   -0.0060    0.0004   -0.0003
           7    0.0224   -0.0494   -0.1332   -0.1315   -0.2778   -0.0460   -0.3094   -0.3244
           8   -0.0007    0.0211   -0.0324   -0.0019   -0.0270    0.4644    0.0408   -0.2709
           9   -0.0121    0.0313    0.0363   -0.0520    0.0026    0.0107   -0.0027   -0.0013
          10   -0.0021   -0.0001    0.0346    0.0141   -0.0116    0.3266   -0.3553    0.3897
          11   -0.0141    0.0762   -0.0060    0.1085    0.4280   -0.2277   -0.2596    0.0083
          12    0.0014   -0.0045   -0.0092    0.0155   -0.0027   -0.0040    0.0018   -0.0005
          13   -0.0001   -0.0087    0.1078    0.0426    0.0625   -0.2745    0.1717   -0.1894
          14   -0.0282    0.0889   -0.2378   -0.0918   -0.0976   -0.1720   -0.3831    0.2004
          15   -0.0007    0.0021   -0.0003    0.0030    0.0010   -0.0044    0.0018   -0.0016
          16   -0.0475    0.1401   -0.2647   -0.0913   -0.1360   -0.0805    0.4953   -0.0989
          17    0.0106   -0.0431    0.0958    0.0261    0.0145    0.4153    0.1334   -0.3469
          18    0.0001   -0.0012   -0.0002    0.0005   -0.0004    0.0117   -0.0019    0.0020
          19   -0.0284    0.0770   -0.1397   -0.0390   -0.0084    0.0190   -0.0381   -0.0629
          20   -0.0426    0.1223   -0.2347   -0.0703   -0.0419    0.0047   -0.0893   -0.0604
          21   -0.0000   -0.0002    0.0010   -0.0004    0.0007    0.0003   -0.0001   -0.0001
          22    0.0022    0.0095   -0.0689   -0.0362   -0.0802   -0.0245    0.0407    0.0520
          23   -0.0059   -0.0184    0.1224    0.0654    0.1567    0.0059   -0.0675   -0.0878
          24   -0.0003    0.0010    0.0009   -0.0035   -0.0006    0.0006    0.0002    0.0004
          25    0.0073   -0.0275   -0.0028   -0.0245   -0.0768    0.0135    0.0696   -0.0400
          26    0.0085   -0.0443   -0.0024   -0.0479   -0.1462   -0.0030    0.1017   -0.0249
          27   -0.0008    0.0015    0.0020   -0.0028    0.0004   -0.0001   -0.0001    0.0001
          28   -0.0058    0.0206   -0.0483   -0.0113    0.0069   -0.0156   -0.0359    0.0114
          29    0.0069   -0.0234    0.0670    0.0214    0.0079   -0.0057    0.0680   -0.0157
          30   -0.0001   -0.0001    0.0001   -0.0004    0.0001    0.0001   -0.0005    0.0002
          31    0.0359   -0.1034    0.1658    0.0503    0.0658    0.0233   -0.1477    0.0173
          32    0.0004   -0.0002   -0.0015    0.0001   -0.0043    0.0107   -0.0042    0.0265
          33   -0.0002    0.0003   -0.0006   -0.0007   -0.0002   -0.0008    0.0004   -0.0001
          34   -0.0259    0.1325   -0.3283   -0.0177    0.5899    0.0572    0.2109    0.1301
          35   -0.1002    0.0277   -0.0661   -0.2030    0.1045    0.0039    0.0060    0.0493
          36   -0.0357    0.0753   -0.2823    0.6261   -0.0714   -0.0029    0.0045   -0.0010
          37   -0.2169    0.6193    0.3294    0.2283   -0.1851   -0.0222   -0.0155    0.0004
          38    0.6518    0.0403   -0.0451    0.3114   -0.1077   -0.0013   -0.0100   -0.0099
          39    0.3757    0.3816    0.0862   -0.4736    0.1469    0.0119    0.0087    0.0050
          40    0.2096   -0.3833   -0.1731   -0.0884    0.0455    0.0043   -0.0028   -0.0044
          41   -0.0573    0.0430    0.0297    0.0002   -0.0147   -0.0014   -0.0030   -0.0010
          42   -0.0293    0.0054   -0.0094    0.0201    0.0152    0.0018    0.0058    0.0032
          43    0.0799   -0.0354   -0.0280    0.0152    0.0053    0.0002    0.0014   -0.0004
          44   -0.4204    0.0350    0.0492   -0.1043    0.0202   -0.0014    0.0004    0.0004
          45   -0.0256   -0.0166   -0.0034    0.0070    0.0006    0.0001    0.0005    0.0017
          46   -0.0990   -0.1566   -0.0564    0.0293    0.0106    0.0006    0.0025    0.0010
          47   -0.1304   -0.1194   -0.0364    0.0231    0.0047    0.0007    0.0012    0.0009
          48   -0.2608   -0.3191   -0.0598    0.0603   -0.0095   -0.0004   -0.0008   -0.0011
          49    0.0334   -0.0287    0.1108   -0.0358   -0.0718   -0.0032   -0.0172   -0.0191
          50    0.0500   -0.0019    0.0828   -0.0086   -0.0480   -0.0075   -0.0051   -0.0001
          51   -0.0279   -0.1212    0.1627   -0.1687   -0.0261   -0.0033   -0.0081   -0.0107
          52   -0.0150   -0.0830    0.1611   -0.1121   -0.0695   -0.0158   -0.0066    0.0200
          53   -0.0042    0.0402   -0.0875    0.0382    0.0353    0.0078    0.0014   -0.0100
          54   -0.0013   -0.0103    0.0399   -0.0112   -0.0488   -0.0085   -0.0099    0.0036
          55   -0.0043    0.0590   -0.1112    0.0616    0.0471    0.0015    0.0071   -0.0010
          56   -0.0119   -0.0627    0.0971   -0.0905   -0.0143    0.0002    0.0003    0.0060
          57    0.0074   -0.0210    0.0478   -0.0358   -0.0084   -0.0004    0.0012    0.0014
          58   -0.0055   -0.0017    0.0167   -0.0035   -0.0130    0.0089    0.0030   -0.0004
          59   -0.0238    0.0129   -0.0254    0.0061   -0.0014   -0.0039   -0.0073   -0.0061
          60    0.0142   -0.0027    0.0039   -0.0065    0.0018    0.0000    0.0002   -0.0001
          61    0.0130   -0.0016    0.0008    0.0000   -0.0002    0.0000    0.0001    0.0001
          62    0.0462   -0.0068    0.0075   -0.0010    0.0001    0.0006    0.0009    0.0003
          63   -0.0288    0.0036   -0.0030    0.0002    0.0001    0.0000   -0.0002   -0.0001
          64   -0.0181    0.0023   -0.0019    0.0002    0.0004    0.0001   -0.0001   -0.0001
          65   -0.0261    0.0034   -0.0028    0.0001    0.0003    0.0002   -0.0002   -0.0000
          66    0.0320   -0.0042    0.0035   -0.0002   -0.0002    0.0001    0.0003    0.0001
          67    0.0019   -0.0000   -0.0000   -0.0000    0.0001   -0.0000    0.0001    0.0000
          68   -0.0200    0.0036   -0.0062   -0.0005   -0.0007   -0.0000   -0.0011   -0.0003
          69   -0.0001   -0.0002    0.0006    0.0003    0.0000    0.0001    0.0002    0.0002
          70    0.0740   -0.0089    0.0280   -0.0011    0.0035   -0.0000    0.0013    0.0008
          71    0.0061   -0.0001    0.0011   -0.0002   -0.0006    0.0004   -0.0004   -0.0006
          72    0.0718   -0.0103    0.0260    0.0004    0.0025    0.0004    0.0009   -0.0001
          73   -0.0733    0.0096   -0.0308   -0.0025   -0.0024   -0.0006   -0.0011    0.0007
          74    0.0194   -0.0045    0.0099    0.0125    0.0100    0.0018    0.0069    0.0021
          75   -0.0801    0.0133   -0.0323    0.0026   -0.0039   -0.0008   -0.0021   -0.0004


   Root No.      65        66        67        68        69

                65 A      66 A      67 A      68 A      69 A   

                  16.8      19.7      20.3      20.8      22.9
  
           1    0.0719   -0.3464    0.0606    0.3176   -0.0028
           2    0.3401    0.3650    0.0289   -0.0122   -0.0044
           3   -0.0002   -0.0007    0.0002    0.0007    0.0003
           4   -0.3781    0.1011   -0.0857   -0.3934    0.0160
           5   -0.2585   -0.2317   -0.0556   -0.1890    0.0220
           6   -0.0024    0.0011    0.0001   -0.0002    0.0007
           7    0.4941   -0.1036   -0.0163    0.1686   -0.0312
           8   -0.0822    0.4851    0.1018    0.2008   -0.0293
[...]
 TRAVEL (Ang.)       0.3684         C  6 -- H 11         +20.9% ( 50.2%)      0.0%
 REDUCED MASS        0.5249         C  4 -- C  5          +6.5% ( 27.9%)      0.0%
 EFFECTIVE MASS      3.7742
 FORCE CONSTANT      0.2770

 VIBRATION         36   36A           ATOM PAIR      ENERGY CONTRIBUTION    RADIAL
 FREQUENCY           953.21         C  4 -- H  9         +35.1% ( 69.4%)      0.2%
 TRANSITION DIPOLE   0.4519         C  3 -- C  4         +11.8% ( 40.2%)      0.0%
 TRAVEL (Ang.)       0.3070         C  6 -- H 11         +10.7% ( 38.3%)      0.5%
 REDUCED MASS        0.7508         C  2 -- H  8          +8.5% ( 34.2%)      0.9%
 EFFECTIVE MASS      4.9970
 FORCE CONSTANT      0.4019

 VIBRATION         37   37A           ATOM PAIR      ENERGY CONTRIBUTION    RADIAL
 FREQUENCY           965.48         C 13 -- H 16         +16.8% ( 63.8%)     32.7%
 TRANSITION DIPOLE   1.6968         C 13 -- H 14          +9.5% ( 48.0%)      0.9%
 TRAVEL (Ang.)       0.3384         C 12 -- N 17          +9.2% ( 47.1%)     99.8%
 REDUCED MASS        0.6098         O 18 -- O 19          +8.9% ( 46.3%)     99.8%
 EFFECTIVE MASS      7.9491
 FORCE CONSTANT      0.3349

 VIBRATION         38   38A           ATOM PAIR      ENERGY CONTRIBUTION    RADIAL
 FREQUENCY           999.77         C  2 -- C  3         +11.8% ( 58.2%)      7.9%
 TRANSITION DIPOLE   0.6483         C  3 -- C  4         +10.9% ( 55.8%)      9.3%
 TRAVEL (Ang.)       0.2392         C  4 -- C  5         +10.4% ( 54.5%)      0.6%
 REDUCED MASS        1.1783         C 13 -- H 14         +10.3% ( 54.2%)     23.7%
 EFFECTIVE MASS      9.6920         C  1 -- C  2         +10.1% ( 53.7%)      2.1%
 FORCE CONSTANT      0.6939

 VIBRATION         39   39A           ATOM PAIR      ENERGY CONTRIBUTION    RADIAL
 FREQUENCY          1024.14         C  1 -- H  7         +34.8% ( 64.4%)      0.0%
 TRANSITION DIPOLE   0.2393         C  2 -- H  8         +23.5% ( 52.9%)      0.0%
 TRAVEL (Ang.)       0.2615         C  1 -- C  2         +13.9% ( 40.7%)      0.0%
 REDUCED MASS        0.9626         C  1 -- C  6          +9.9% ( 34.4%)      0.0%
 EFFECTIVE MASS      4.7544
 FORCE CONSTANT      0.5949

 VIBRATION         40   40A           ATOM PAIR      ENERGY CONTRIBUTION    RADIAL
 FREQUENCY          1082.86         C 13 -- H 15         +21.8% ( 60.5%)     25.3%
 TRANSITION DIPOLE   0.4215         C 13 -- H 14         +14.5% ( 49.2%)      3.0%
 TRAVEL (Ang.)       0.2807         C 13 -- H 16         +14.2% ( 48.9%)      4.1%
 REDUCED MASS        0.7901         C 12 -- C 13         +13.5% ( 47.6%)      3.0%
 EFFECTIVE MASS      4.6883         C 12 -- H 20         +11.1% ( 43.2%)     44.6%
 FORCE CONSTANT      0.5459

 VIBRATION         41   41A           ATOM PAIR      ENERGY CONTRIBUTION    RADIAL
 FREQUENCY          1154.24         H 24 -- O 25         +17.2% ( 45.6%)      0.7%
 TRANSITION DIPOLE   2.7359         C 12 -- H 20         +14.5% ( 41.9%)      0.0%
 TRAVEL (Ang.)       0.3846         H 20 -- O 25         +12.9% ( 39.5%)     28.8%
 REDUCED MASS        0.3950         C 12 -- C 13          +7.1% ( 29.4%)     18.0%
 EFFECTIVE MASS      4.2225
 FORCE CONSTANT      0.3101

 VIBRATION         42   42A           ATOM PAIR      ENERGY CONTRIBUTION    RADIAL
 FREQUENCY          1164.15         C  4 -- H  9         +14.8% ( 52.1%)      3.3%
 TRANSITION DIPOLE   0.8163         C  1 -- H  7         +10.4% ( 43.8%)      2.1%
 TRAVEL (Ang.)       0.3677         C  2 -- C  3          +9.8% ( 42.5%)     98.9%
 REDUCED MASS        0.4283         C 12 -- H 20          +8.6% ( 39.7%)      0.7%
 EFFECTIVE MASS      5.5135
 FORCE CONSTANT      0.3420

 VIBRATION         43   43A           ATOM PAIR      ENERGY CONTRIBUTION    RADIAL
 FREQUENCY          1190.14         C 12 -- C 13         +24.9% ( 80.6%)     79.2%
 TRANSITION DIPOLE   0.4770         C 12 -- N 17         +15.5% ( 63.5%)     66.0%
 TRAVEL (Ang.)       0.1289         C  3 -- C 12         +14.2% ( 60.7%)      1.0%
 REDUCED MASS        3.4074         C 12 -- H 20         +14.0% ( 60.4%)      3.6%
 EFFECTIVE MASS     10.1360
 FORCE CONSTANT      2.8436

 VIBRATION         44   44A           ATOM PAIR      ENERGY CONTRIBUTION    RADIAL
 FREQUENCY          1202.59         C  6 -- H 11         +31.2% ( 71.1%)      0.4%
 TRANSITION DIPOLE   0.3607         C  2 -- H  8         +11.3% ( 42.9%)      6.0%
 TRAVEL (Ang.)       0.3293         C 12 -- C 13         +10.5% ( 41.2%)     99.6%
 REDUCED MASS        0.5172         C  3 -- C 12          +5.2% ( 29.1%)      5.0%
 EFFECTIVE MASS      4.7071
 FORCE CONSTANT      0.4407

 VIBRATION         45   45A           ATOM PAIR      ENERGY CONTRIBUTION    RADIAL
 FREQUENCY          1209.42         C  5 -- C  6         +11.0% ( 49.8%)     99.0%
 TRANSITION DIPOLE   0.4448         C 12 -- C 13         +10.3% ( 48.2%)     64.5%
 TRAVEL (Ang.)       0.2493         C  4 -- H  9          +7.6% ( 41.4%)     10.9%
 REDUCED MASS        0.8974         C  1 -- H  7          +7.6% ( 41.3%)     16.7%
 EFFECTIVE MASS      8.6723
 FORCE CONSTANT      0.7734

 VIBRATION         46   46A           ATOM PAIR      ENERGY CONTRIBUTION    RADIAL
 FREQUENCY          1232.75         C  2 -- H  8         +35.4% ( 68.6%)      0.0%
 TRANSITION DIPOLE   0.1859         C  1 -- H  7         +19.8% ( 51.4%)      2.0%
 TRAVEL (Ang.)       0.4121         C  6 -- H 11         +11.1% ( 38.4%)      6.1%
 REDUCED MASS        0.3221         C  4 -- H  9          +8.2% ( 33.0%)      4.4%
 EFFECTIVE MASS      2.5964
 FORCE CONSTANT      0.2884

 VIBRATION         47   47A           ATOM PAIR      ENERGY CONTRIBUTION    RADIAL
 FREQUENCY          1257.70         C 13 -- H 16         +47.4% ( 58.3%)      0.0%
 TRANSITION DIPOLE   0.7126         C 13 -- H 15         +27.3% ( 44.2%)      5.2%
 TRAVEL (Ang.)       0.3799         C 13 -- H 14         +20.6% ( 38.4%)      8.5%
 REDUCED MASS        0.3714         C 12 -- C 13          +3.1% ( 14.8%)      2.1%
 EFFECTIVE MASS      1.3776
 FORCE CONSTANT      0.3461

 VIBRATION         48   48A           ATOM PAIR      ENERGY CONTRIBUTION    RADIAL
 FREQUENCY          1270.14         C 13 -- H 15         +39.4% ( 54.0%)      1.0%
 TRANSITION DIPOLE   0.6231         C 13 -- H 14         +35.7% ( 51.4%)      1.4%
 TRAVEL (Ang.)       0.3876         C 13 -- H 16         +16.6% ( 35.0%)     19.3%
 REDUCED MASS        0.3535         C 12 -- C 13          +3.7% ( 16.5%)     34.4%
 EFFECTIVE MASS      1.5086
 FORCE CONSTANT      0.3360

 VIBRATION         49   49A           ATOM PAIR      ENERGY CONTRIBUTION    RADIAL
 FREQUENCY          1316.09         C  4 -- H  9         +29.2% ( 66.0%)      0.2%
 TRANSITION DIPOLE   0.2687         C  1 -- H  7         +12.6% ( 43.4%)      3.1%
 TRAVEL (Ang.)       0.3480         C  6 -- H 11         +10.9% ( 40.4%)      3.8%
 REDUCED MASS        0.4231         C  4 -- C  5          +9.4% ( 37.4%)     46.1%
 EFFECTIVE MASS      3.9288
 FORCE CONSTANT      0.4317

 VIBRATION         50   50A           ATOM PAIR      ENERGY CONTRIBUTION    RADIAL
 FREQUENCY          1360.94         C  3 -- C 12         +14.4% ( 48.6%)     95.1%
 TRANSITION DIPOLE   0.9249         C 13 -- H 15         +10.6% ( 41.7%)      1.0%
 TRAVEL (Ang.)       0.2982         C 13 -- H 16         +10.5% ( 41.5%)      0.3%
 REDUCED MASS        0.5571         C  2 -- C  3          +7.6% ( 35.2%)     83.0%
 EFFECTIVE MASS      6.3046
 FORCE CONSTANT      0.6079

 VIBRATION         51   51A           ATOM PAIR      ENERGY CONTRIBUTION    RADIAL
 FREQUENCY          1380.53         C  3 -- C 12         +16.0% ( 49.2%)     89.5%
 TRANSITION DIPOLE   0.8608         C 13 -- H 14         +11.0% ( 40.8%)      0.2%
 TRAVEL (Ang.)       0.2925         C 13 -- H 15          +9.1% ( 37.0%)      0.6%
 REDUCED MASS        0.5707         C  2 -- C  3          +6.6% ( 31.5%)     88.2%
 EFFECTIVE MASS      5.7295
 FORCE CONSTANT      0.6409

 VIBRATION         52   52A           ATOM PAIR      ENERGY CONTRIBUTION    RADIAL
 FREQUENCY          1435.80         C  1 -- C  2         +13.6% ( 57.8%)     99.7%
 TRANSITION DIPOLE   0.2855         C  3 -- C  4         +13.4% ( 57.3%)    100.0%
 TRAVEL (Ang.)       0.1733         C  2 -- C  3         +12.6% ( 55.5%)     94.9%
 REDUCED MASS        1.5640         C  1 -- C  6         +12.2% ( 54.7%)     97.5%
 EFFECTIVE MASS     10.0897
 FORCE CONSTANT      1.8996

 VIBRATION         53   53A           ATOM PAIR      ENERGY CONTRIBUTION    RADIAL
 FREQUENCY          1499.76         N 17 -- O 19         +19.7% ( 53.5%)     72.6%
 TRANSITION DIPOLE   1.3533         O 21 -- H 23         +19.0% ( 52.5%)      2.9%
 TRAVEL (Ang.)       0.1997         H 23 -- O 25         +17.0% ( 49.7%)      0.0%
 REDUCED MASS        1.1277         N 17 -- O 18         +16.2% ( 48.6%)     58.7%
 EFFECTIVE MASS      7.3429
 FORCE CONSTANT      1.4945

 VIBRATION         54   54A           ATOM PAIR      ENERGY CONTRIBUTION    RADIAL
 FREQUENCY          1508.32         C  4 -- C  5         +13.9% ( 52.3%)     99.1%
 TRANSITION DIPOLE   1.8305         C  1 -- C  2         +11.8% ( 48.1%)     99.9%
 TRAVEL (Ang.)       0.1810         C  1 -- C  6         +11.2% ( 47.0%)     19.7%
 REDUCED MASS        1.3644         C  5 -- C  6         +11.1% ( 46.8%)     23.4%
 EFFECTIVE MASS      9.8051         C  6 -- H 11         +11.1% ( 46.6%)      0.1%
 FORCE CONSTANT      1.8289

 VIBRATION         55   55A           ATOM PAIR      ENERGY CONTRIBUTION    RADIAL
 FREQUENCY          1539.65         N 17 -- O 18         +15.0% ( 48.9%)     66.4%
 TRANSITION DIPOLE   2.5964         N 17 -- O 19         +13.9% ( 47.1%)     60.2%
 TRAVEL (Ang.)       0.2104         C 12 -- N 17          +9.1% ( 38.2%)     97.0%
 REDUCED MASS        0.9891         O 21 -- H 23          +9.0% ( 37.9%)      1.7%
 EFFECTIVE MASS      8.8969
 FORCE CONSTANT      1.3815

 VIBRATION         56   56A           ATOM PAIR      ENERGY CONTRIBUTION    RADIAL
 FREQUENCY          1564.56         C  2 -- C  3         +15.8% ( 53.8%)     67.9%
 TRANSITION DIPOLE   1.7112         C  3 -- C  4         +11.0% ( 45.0%)     53.0%
 TRAVEL (Ang.)       0.1938         C  3 -- C 12          +9.0% ( 40.7%)     99.0%
 REDUCED MASS        1.1477         C  5 -- C  6          +6.9% ( 35.7%)     74.9%
 EFFECTIVE MASS     10.0533
 FORCE CONSTANT      1.6553

 VIBRATION         57   57A           ATOM PAIR      ENERGY CONTRIBUTION    RADIAL
 FREQUENCY          1625.97         N 17 -- O 18         +37.5% ( 86.9%)     91.2%
 TRANSITION DIPOLE  11.0275         N 17 -- O 19         +33.4% ( 82.0%)     84.4%
 TRAVEL (Ang.)       0.0790         C 12 -- N 17         +21.1% ( 65.2%)      0.3%
 REDUCED MASS        6.6473         O 18 -- O 19          +6.4% ( 36.0%)      1.9%
 EFFECTIVE MASS     14.5273
 FORCE CONSTANT     10.3543

 VIBRATION         58   58A           ATOM PAIR      ENERGY CONTRIBUTION    RADIAL
 FREQUENCY          1667.23         C  1 -- C  6         +19.2% ( 62.4%)     99.9%
 TRANSITION DIPOLE   2.1709         C  3 -- C  4         +17.8% ( 60.1%)     99.7%
 TRAVEL (Ang.)       0.1251         C  2 -- C  3         +10.6% ( 46.4%)     48.3%
 REDUCED MASS        2.5826         C  1 -- C  2          +9.6% ( 44.1%)     37.2%
 EFFECTIVE MASS     11.9800
 FORCE CONSTANT      4.2296

 VIBRATION         59   59A           ATOM PAIR      ENERGY CONTRIBUTION    RADIAL
 FREQUENCY          1710.42         C  4 -- C  5         +19.3% ( 62.5%)     90.1%
 TRANSITION DIPOLE   1.1487         C  5 -- C  6         +18.4% ( 61.1%)     86.0%
 TRAVEL (Ang.)       0.1225         C  1 -- C  2         +12.2% ( 49.7%)     94.1%
 REDUCED MASS        2.6274         C  2 -- C  3         +10.6% ( 46.3%)     82.6%
 EFFECTIVE MASS     11.9831         C  5 -- Cl10         +10.5% ( 46.1%)      0.0%
 FORCE CONSTANT      4.5288

 VIBRATION         60   60A           ATOM PAIR      ENERGY CONTRIBUTION    RADIAL
 FREQUENCY          2174.20         O 21 -- H 23         +51.1% ( 96.9%)     99.1%
 TRANSITION DIPOLE   3.6713         H 23 -- O 25         +44.6% ( 90.5%)     99.8%
 TRAVEL (Ang.)       0.1917         O 21 -- H 22          +2.6% ( 22.1%)     71.4%
 REDUCED MASS        0.8438         H 24 -- O 25          +1.7% ( 17.7%)     80.6%
 EFFECTIVE MASS      1.5513
 FORCE CONSTANT      2.3500

 VIBRATION         61   61A           ATOM PAIR      ENERGY CONTRIBUTION    RADIAL
 FREQUENCY          2651.47         C 13 -- H 15         +67.3% ( 84.6%)     99.5%
 TRANSITION DIPOLE   0.8168         C 13 -- H 16         +23.9% ( 50.5%)     91.8%
 TRAVEL (Ang.)       0.2190         C 13 -- H 14          +7.9% ( 28.9%)     72.1%
 REDUCED MASS        0.5305         C 12 -- C 13          +0.8% (  9.5%)      0.0%
 EFFECTIVE MASS      1.4379
 FORCE CONSTANT      2.1972

 VIBRATION         62   62A           ATOM PAIR      ENERGY CONTRIBUTION    RADIAL
 FREQUENCY          2659.62         C 13 -- H 14         +57.0% ( 77.9%)     98.9%
 TRANSITION DIPOLE   0.8540         C 13 -- H 16         +39.7% ( 65.0%)     96.5%
 TRAVEL (Ang.)       0.2255         C 13 -- H 15          +2.3% ( 15.8%)     33.2%
 REDUCED MASS        0.4986         C 12 -- C 13          +0.9% (  9.7%)      0.1%
 EFFECTIVE MASS      1.4468
 FORCE CONSTANT      2.0780

 VIBRATION         63   63A           ATOM PAIR      ENERGY CONTRIBUTION    RADIAL
 FREQUENCY          2713.60         C  2 -- H  8         +91.2% ( 96.5%)    100.0%
 TRANSITION DIPOLE   1.3345         C  1 -- H  7          +5.1% ( 22.8%)     99.4%
 TRAVEL (Ang.)       0.1750         C  4 -- H  9          +1.2% ( 10.9%)     99.9%
 REDUCED MASS        0.8112         C  2 -- C  3          +1.0% ( 10.0%)     18.1%
 EFFECTIVE MASS      1.3768
 FORCE CONSTANT      3.5193

 VIBRATION         64   64A           ATOM PAIR      ENERGY CONTRIBUTION    RADIAL
 FREQUENCY          2725.03         C  4 -- H  9         +74.9% ( 87.6%)    100.0%
 TRANSITION DIPOLE   1.7971         C  1 -- H  7         +22.8% ( 48.3%)    100.0%
 TRAVEL (Ang.)       0.2034         C  3 -- C  4          +0.8% (  9.3%)     21.0%
 REDUCED MASS        0.5982         C  4 -- C  5          +0.8% (  9.3%)     25.9%
 EFFECTIVE MASS      1.3889
 FORCE CONSTANT      2.6171

 VIBRATION         65   65A           ATOM PAIR      ENERGY CONTRIBUTION    RADIAL
 FREQUENCY          2729.18         C  1 -- H  7         +48.6% ( 70.4%)    100.0%
 TRANSITION DIPOLE   0.9004         C  6 -- H 11         +31.8% ( 56.9%)     99.9%
 TRAVEL (Ang.)       0.2664         C  4 -- H  9         +14.7% ( 38.7%)    100.0%
 REDUCED MASS        0.3482         C  2 -- H  8          +2.9% ( 17.3%)     99.2%
 EFFECTIVE MASS      1.3711
 FORCE CONSTANT      1.5282

 VIBRATION         66   66A           ATOM PAIR      ENERGY CONTRIBUTION    RADIAL
 FREQUENCY          2741.06         C  6 -- H 11         +65.7% ( 81.9%)    100.0%
 TRANSITION DIPOLE   1.3186         C  1 -- H  7         +21.4% ( 46.7%)     99.9%
 TRAVEL (Ang.)       0.2282         C  4 -- H  9          +6.8% ( 26.4%)    100.0%
 REDUCED MASS        0.4724         C  2 -- H  8          +3.5% ( 18.8%)     99.9%
 EFFECTIVE MASS      1.4349
 FORCE CONSTANT      2.0912

 VIBRATION         67   67A           ATOM PAIR      ENERGY CONTRIBUTION    RADIAL
 FREQUENCY          2773.11         C 13 -- H 16         +35.9% ( 57.4%)     96.0%
 TRANSITION DIPOLE   0.5777         C 13 -- H 14         +34.5% ( 56.3%)     95.8%
 TRAVEL (Ang.)       0.2725         C 13 -- H 15         +29.1% ( 51.7%)     94.6%
 REDUCED MASS        0.3274         C 12 -- C 13          +0.3% (  4.9%)     98.7%
 EFFECTIVE MASS      1.1368
 FORCE CONSTANT      1.4834

 VIBRATION         68   68A           ATOM PAIR      ENERGY CONTRIBUTION    RADIAL
 FREQUENCY          2782.31         O 21 -- H 22         +95.0% ( 96.7%)     99.5%
 TRANSITION DIPOLE   1.1624         H 24 -- O 25          +2.2% ( 14.8%)    100.0%
 TRAVEL (Ang.)       0.1678         H 23 -- O 25          +1.3% ( 11.5%)     74.8%
 REDUCED MASS        0.8605         O 21 -- H 23          +1.3% ( 11.5%)     37.0%
 EFFECTIVE MASS      1.3031
 FORCE CONSTANT      3.9249

 VIBRATION         69   69A           ATOM PAIR      ENERGY CONTRIBUTION    RADIAL
 FREQUENCY          2809.49         H 24 -- O 25         +95.1% ( 97.2%)     99.8%
 TRANSITION DIPOLE   1.4853         H 23 -- O 25          +1.6% ( 12.7%)     25.2%
 TRAVEL (Ang.)       0.1664         O 21 -- H 22          +1.5% ( 12.1%)     99.9%
 REDUCED MASS        0.8668         O 21 -- H 23          +1.4% ( 11.8%)     97.1%
 EFFECTIVE MASS      1.3396
 FORCE CONSTANT      4.0313

      SYMMETRY NUMBER FOR POINT-GROUP C1  =  1


          SYSTEM IS A GROUND STATE



 Title: ASE calculation


          MOLECULE IS NOT LINEAR

          THERE ARE 69 GENUINE VIBRATIONS IN THIS SYSTEM
          THIS THERMODYNAMICS CALCULATION IS LIMITED TO
          MOLECULES WHICH HAVE NO INTERNAL ROTATIONS




                    CALCULATED THERMODYNAMIC PROPERTIES
                                          *
   TEMP. (K)   PARTITION FUNCTION   H.O.F.    ENTHALPY  HEAT CAPACITY ENTROPY
                                   KCAL/MOL   CAL/MOLE    CAL/K/MOL  CAL/K/MOL


 298.00  VIB.     0.1076D+08                  8764.9034    52.0405    61.5880
         ROT.     0.3541D+07                   888.2803     2.9808    32.9476
         INT.     0.3810D+14                  9653.1837    55.0213    94.5356
         TRA.     0.3190D+28                  1480.4672     4.9680    42.0881
         TOT.                     -219.820   11133.6509    59.9893   136.6238

   *: NOTE: HEATS OF FORMATION ARE RELATIVE TO THE
            ELEMENTS IN THEIR STANDARD STATE AT 298K
              (=  Standard Enthalpy of Formation).

            Hvib:  Zero-point energy is not included.
                   frequencies of less than zero cm-1 are not included.
            Hrot = (3/2)RT
            Htra = (3/2)RT + pV = (5/2)RT

            Heat capacity is Cp, not Cv

          For more information, see: HTTP://OpenMOPAC.net/Manual/thermochemistry.html


           FORCE CONSTANT IN CARTESIAN COORDINATES (Millidynes/A)

    ATOM   CHEMICAL       X               Y               Z
   NUMBER   SYMBOL  FORCE CONSTANT  FORCE CONSTANT  FORCE CONSTANT

      1       C       11.128878       10.178256        2.337268
      2       C       11.205865        9.946185        2.368744
      3       C       10.880959       11.478232        2.791137
      4       C       11.280169        9.943650        2.309341
      5       C       11.211623        9.050355        1.823852
      6       C        9.924841       11.501527        2.196441
      7       H        1.738315        3.338816        0.390094
      8       H        1.694786        3.361633        0.393698
      9       H        1.722726        3.344015        0.369158
     10      Cl        1.283828        2.920515        0.182370
     11       H        4.193718        0.892568        0.349766
     12       C        8.254502        4.472721        7.045487
     13       C        6.426647        6.023696        6.661018
     14       H        4.003599        0.642568        0.683624
     15       H        0.690271        3.961176        0.692784
     16       H        1.066798        0.972846        3.283812
     17       N       11.322815        8.242594        9.509314
     18       O        8.902263        2.541198        2.246590
     19       O        3.708714        5.818761        4.012181
     20       H        0.779633       -0.380462        0.797656
     21       O        1.186335        4.544006        2.777039
     22       H        0.683590        2.056219        2.090358
     23       H        0.642650        2.519051        0.860098
     24       H        2.235708        0.353570        2.086873
     25       O        2.153580        2.125859        2.220571

 **********************
 *                    *
 * JOB ENDED NORMALLY *
 *                    *
 **********************



 TOTAL JOB TIME:            10.39 SECONDS

 == MOPAC DONE ==
