 *******************************************************************************
 **                                                                           **
 **                              MOPAC v22.0.6                                **
 **                                                                           **
 *******************************************************************************
 **          Digital Object Identifier (DOI): 10.5281/zenodo.6511958          **
 **    Visit the DOI location for information on how to cite this program.    **
 *******************************************************************************

                              PM7 CALCULATION RESULTS

 *******************************************************************************
 *  CALCULATION DONE:                                Mon Mar 25 22:32:20 2024  *
 *  PM7        - The PM7 Hamiltonian to be used
 *  SINGLET    - SPIN STATE DEFINED AS A SINGLET
 *
 *
 *
 *                 CHARGE ON SYSTEM = -1
 *
 *
 *
 *  EPS=78.4   - USE ANDREAS KLAMT'S COSMO IMPLICIT SOLVATION MODEL
 *  LET        - OVERRIDE SOME SAFETY CHECKS
 *  THREADS    - USE A MAXIMUM OF 30 THREADS
 *  T=         - A TIME OF 14.0 DAYS REQUESTED
 *  DUMP=N     - RESTART FILE WRITTEN EVERY 30.0 MINUTES REQUESTED
 *  RELSCF     - DEFAULT SCF CRITERION MULTIPLIED BY 1.0000
 *              (DEFAULT SCF CRITERION = 0.00010)
 *  ITRY=      - DO A MAXIMUM OF 15000 ITERATIONS FOR SCF
 *  AUX        - OUTPUT AUXILIARY INFORMATION
 *  ISOTOPE    - SAVE THE FORCE MATRIX FOR USE LATER
 *  BONDS      - FINAL BOND-ORDER MATRIX TO BE PRINTED
 *  LARGE      - EXPANDED OUTPUT TO BE PRINTED
 *  THERMO     - THERMODYNAMIC QUANTITIES TO BE CALCULATED
 *******************************************************************************
PM7 AUX LARGE THERMO(298,298) LET ISOTOPE BONDS DUMP=30M ITRY=15000 T=14D THREADS=30 CHARGE=-1 SINGLET eps=78.4 RELSCF=1
 Title: ASE calculation

   ATOM   CHEMICAL          X               Y               Z
  NUMBER   SYMBOL      (ANGSTROMS)     (ANGSTROMS)     (ANGSTROMS)

     1       C          0.88896399  *   3.27562149  *   1.95684653  *
     2       C          1.38127259  *   1.97359172  *   1.87903971  *
     3       C          0.50241992  *   0.89328412  *   1.77223590  *
     4       C         -0.87694434  *   1.10897581  *   1.73760168  *
     5       C         -1.33250299  *   2.41574310  *   1.81740849  *
     6       C         -0.48502268  *   3.50975430  *   1.92747070  *
     7       H          1.57890772  *   4.11921990  *   2.03998041  *
     8       H          2.46430321  *   1.79968541  *   1.90239478  *
     9       H         -1.56966546  *   0.26783110  *   1.64574444  *
    10      Cl         -3.02909011  *   2.69004765  *   1.77700879  *
    11       H         -0.87420179  *   4.52771779  *   1.98906783  *
    12       C          1.06703892  *  -0.49940604  *   1.71138984  *
    13       C          0.44624914  *  -1.42798674  *   2.74618955  *
    14       H          0.92680897  *  -2.41733659  *   2.76317606  *
    15       H         -0.62830048  *  -1.59213476  *   2.58457870  *
    16       H          0.54678350  *  -1.00558991  *   3.75905726  *
    17       N          0.81634451  *  -1.06874468  *   0.34376088  *
    18       O          1.77298990  *  -1.47287178  *  -0.29871304  *
    19       O         -0.32410303  *  -1.11560849  *  -0.08583272  *
    20       D          2.19886469  *  -0.46790252  *   1.86221710  *
    21       O          6.54596097  *   0.07100014  *   2.57367770  *
    22       H          6.86811431  *   0.68490917  *   1.96909017  *
    23       H          5.28182888  *  -0.05549475  *   2.22059855  *
    24       H          4.19579370  *  -0.74635654  *   1.18318232  *
    25       O          4.18898874  *  -0.15533578  *   1.90911760  *


                                Isotopes Used

              Atom:   20  H  Default mass  1.0079,  mass used:  2.0140 amu


          CARTESIAN COORDINATES 

    NO.       ATOM           X           Y           Z

     1         C          0.8890      3.2756      1.9568
     2         C          1.3813      1.9736      1.8790
     3         C          0.5024      0.8933      1.7722
     4         C         -0.8769      1.1090      1.7376
     5         C         -1.3325      2.4157      1.8174
     6         C         -0.4850      3.5098      1.9275
     7         H          1.5789      4.1192      2.0400
     8         H          2.4643      1.7997      1.9024
     9         H         -1.5697      0.2678      1.6457
    10        Cl         -3.0291      2.6900      1.7770
    11         H         -0.8742      4.5277      1.9891
    12         C          1.0670     -0.4994      1.7114
    13         C          0.4462     -1.4280      2.7462
    14         H          0.9268     -2.4173      2.7632
    15         H         -0.6283     -1.5921      2.5846
    16         H          0.5468     -1.0056      3.7591
    17         N          0.8163     -1.0687      0.3438
    18         O          1.7730     -1.4729     -0.2987
    19         O         -0.3241     -1.1156     -0.0858
    20         H          2.1989     -0.4679      1.8622
    21         O          6.5460      0.0710      2.5737
    22         H          6.8681      0.6849      1.9691
    23         H          5.2818     -0.0555      2.2206
    24         H          4.1958     -0.7464      1.1832
    25         O          4.1890     -0.1553      1.9091

 General Reference for PM7:
 "Optimization of Parameters for Semiempirical Methods VI: More Modifications to the 
 NDDO Approximations and Re-optimization of Parameters", J. J. P. Stewart, J. Mol. Mod., 1:32, 19 (2013)
 https://link.springer.com/article/10.1007/s00894-012-1667-x

           Empirical Formula: C8 H11 N O4 Cl  =    25 atoms



      MOLECULAR POINT GROUP   :   C1  


 SINGLET STATE CALCULATION


      RHF CALCULATION, NO. OF DOUBLY OCCUPIED LEVELS = 40

  SCF CRITERION =    0.1000E-03


          HEAT OF FORMATION =    -223.499590 KCALS/MOLE


          CARTESIAN COORDINATE DERIVATIVES

   NUMBER  ATOM         X            Y            Z

     1       C     -0.099379    -0.043936     0.092368
     2       C      0.046239     0.078687     0.007478
     3       C     -0.095954    -0.272106    -0.026436
     4       C      0.050266     0.255366     0.020984
     5       C      0.257943     0.086361    -0.041330
     6       C      0.100066    -0.156832    -0.014610
     7       H     -0.209558     0.039685     0.010662
     8       H     -0.052306     0.036444     0.076733
     9       H      0.196192    -0.040433    -0.086456
    10      Cl      0.050757    -0.113523    -0.057701
    11       H      0.044281     0.130129    -0.053204
    12       C      0.046569    -0.181186     0.044742
    13       C      0.205250    -0.282827     0.118729
    14       H     -0.000772     0.129542    -0.044609
    15       H     -0.079299    -0.354691     0.017107
    16       H     -0.121682     0.314228    -0.067278
    17       N     -0.131382    -0.190054     0.057180
    18       O     -0.153767    -0.014296     0.071846
    19       O     -0.030947     0.105782    -0.056639
    20       H     -0.342108    -0.376105     0.150860
    21       O     -0.278463     0.416701    -0.032854
    22       H     -0.091259    -0.144635    -0.054640
    23       H     -0.095679     0.415657    -0.297016
    24       H      0.581665    -0.020375    -0.095992
    25       O      0.203772     0.185242     0.260524

 DIPOLE           X         Y         Z       TOTAL
 POINT-CHG.   -22.869    10.455    -1.036    25.167
 HYBRID         0.024     0.473     0.836     0.961
 SUM          -22.845    10.928    -0.200    25.325


          GRADIENT NORM =   1.51858


                              **** WARNING ****

           GRADIENT IS VERY LARGE FOR A THERMO CALCULATION
           RESULTS ARE LIKELY TO BE INACCURATE IF THERE ARE
           ANY LOW-LYING VIBRATIONS (LESS THAN ABOUT 400CM-1)
           GRADIENT NORM SHOULD BE LESS THAN ABOUT 1.0 FOR THERMO
           TO GIVE ACCURATE RESULTS


          TIME FOR SCF CALCULATION =    0.12

          TIME FOR DERIVATIVES     =    0.03

          MOLECULAR WEIGHT =  221.64



          ROTATIONAL CONSTANTS IN CM(-1)

          A =    0.02628419   B =    0.00945194   C =    0.00761578



           PRINCIPAL MOMENTS OF INERTIA IN UNITS OF 10**(-40)*GRAM-CM**2

          A =     1065.0036   B =     2961.5867   C =     3675.6264


          ORIENTATION OF MOLECULE IN FORCE CALCULATION

    NO.       ATOM         X         Y         Z

     1          C      -2.2450   -1.1233   -0.2077
     2          C      -0.8508   -1.1233   -0.2077
     3          C      -0.1463    0.0828   -0.2077
     4          C      -0.8329    1.2989   -0.2028
     5          C      -2.2186    1.2627   -0.2033
     6          C      -2.9472    0.0811   -0.2066
     7          H      -2.7938   -2.0684   -0.2073
     8          H      -0.3073   -2.0763   -0.2081
     9          H      -0.2868    2.2463   -0.1944
    10         Cl      -3.0716    2.7553   -0.1988
    11          H      -4.0387    0.0850   -0.2075
    12          C       1.3571    0.0459   -0.2288
    13          C       1.9474    0.8937   -1.3475
    14          H       3.0401    0.7898   -1.4199
    15          H       1.7303    1.9649   -1.2333
    16          H       1.5319    0.5951   -2.3235
    17          N       1.8766    0.5562    1.0854
    18          O       2.6277   -0.1607    1.7281
    19          O       1.5417    1.6630    1.4730
    20          H       1.7190   -1.0318   -0.3399
    21          O       2.7110   -5.3249   -0.8681
    22          H       2.2852   -5.8073   -0.2107
    23          H       2.4025   -4.0789   -0.5666
    24          H       2.7221   -2.7634    0.3824
    25          O       2.1272   -3.0047   -0.2990


    FIRST DERIVATIVES WILL BE USED IN THE CALCULATION OF SECOND DERIVATIVES

          ESTIMATED TIME TO COMPLETE CALCULATION =       22.27 SECONDS

    FOR POINT-GROUP C1   THERE ARE   1 UNIQUE SYMMETRY FUNCTIONS.

 STEP:   1 TIME =     0.08 SECS, INTEGRAL =      0.08 TIME LEFT:1209599.77
 STEP:   2 TIME =     0.08 SECS, INTEGRAL =      0.16 TIME LEFT:1209599.70
 STEP:   3 TIME =     0.08 SECS, INTEGRAL =      0.23 TIME LEFT:1209599.62
 STEP:   4 TIME =     0.08 SECS, INTEGRAL =      0.31 TIME LEFT:1209599.54
 STEP:   5 TIME =     0.09 SECS, INTEGRAL =      0.40 TIME LEFT:1209599.45
 STEP:   6 TIME =     0.08 SECS, INTEGRAL =      0.48 TIME LEFT:1209599.38
 STEP:   7 TIME =     0.08 SECS, INTEGRAL =      0.55 TIME LEFT:1209599.30
 STEP:   8 TIME =     0.08 SECS, INTEGRAL =      0.63 TIME LEFT:1209599.22
 STEP:   9 TIME =     0.08 SECS, INTEGRAL =      0.71 TIME LEFT:1209599.14
 STEP:  10 TIME =     0.09 SECS, INTEGRAL =      0.80 TIME LEFT:1209599.05
 STEP:  11 TIME =     0.08 SECS, INTEGRAL =      0.88 TIME LEFT:1209598.98
 STEP:  12 TIME =     0.08 SECS, INTEGRAL =      0.95 TIME LEFT:1209598.90
 STEP:  13 TIME =     0.08 SECS, INTEGRAL =      1.03 TIME LEFT:1209598.82
 STEP:  14 TIME =     0.09 SECS, INTEGRAL =      1.12 TIME LEFT:1209598.73
 STEP:  15 TIME =     0.08 SECS, INTEGRAL =      1.20 TIME LEFT:1209598.66
 STEP:  16 TIME =     0.08 SECS, INTEGRAL =      1.27 TIME LEFT:1209598.58
 STEP:  17 TIME =     0.08 SECS, INTEGRAL =      1.35 TIME LEFT:1209598.50
 STEP:  18 TIME =     0.08 SECS, INTEGRAL =      1.43 TIME LEFT:1209598.42
 STEP:  19 TIME =     0.08 SECS, INTEGRAL =      1.51 TIME LEFT:1209598.34
 STEP:  20 TIME =     0.08 SECS, INTEGRAL =      1.59 TIME LEFT:1209598.27
 STEP:  21 TIME =     0.07 SECS, INTEGRAL =      1.66 TIME LEFT:1209598.20
 STEP:  22 TIME =     0.08 SECS, INTEGRAL =      1.73 TIME LEFT:1209598.12
 STEP:  23 TIME =     0.08 SECS, INTEGRAL =      1.81 TIME LEFT:1209598.04
 STEP:  24 TIME =     0.07 SECS, INTEGRAL =      1.88 TIME LEFT:1209597.97
 STEP:  25 TIME =     0.08 SECS, INTEGRAL =      1.96 TIME LEFT:1209597.89
 STEP:  26 TIME =     0.08 SECS, INTEGRAL =      2.04 TIME LEFT:1209597.81
 STEP:  27 TIME =     0.07 SECS, INTEGRAL =      2.11 TIME LEFT:1209597.74
 STEP:  28 TIME =     0.08 SECS, INTEGRAL =      2.19 TIME LEFT:1209597.66
 STEP:  29 TIME =     0.08 SECS, INTEGRAL =      2.27 TIME LEFT:1209597.59
 STEP:  30 TIME =     0.08 SECS, INTEGRAL =      2.34 TIME LEFT:1209597.51
 STEP:  31 TIME =     0.07 SECS, INTEGRAL =      2.41 TIME LEFT:1209597.44
 STEP:  32 TIME =     0.08 SECS, INTEGRAL =      2.49 TIME LEFT:1209597.36
 STEP:  33 TIME =     0.08 SECS, INTEGRAL =      2.57 TIME LEFT:1209597.28
 STEP:  34 TIME =     0.08 SECS, INTEGRAL =      2.65 TIME LEFT:1209597.20
 STEP:  35 TIME =     0.08 SECS, INTEGRAL =      2.73 TIME LEFT:1209597.12
 STEP:  36 TIME =     0.52 SECS, INTEGRAL =      3.25 TIME LEFT:1209596.60
 STEP:  37 TIME =     0.58 SECS, INTEGRAL =      3.83 TIME LEFT:1209596.02
 STEP:  38 TIME =     0.54 SECS, INTEGRAL =      4.37 TIME LEFT:1209595.48
 STEP:  39 TIME =     0.32 SECS, INTEGRAL =      4.69 TIME LEFT:1209595.16
 STEP:  40 TIME =     0.18 SECS, INTEGRAL =      4.87 TIME LEFT:1209594.98
 STEP:  41 TIME =     0.38 SECS, INTEGRAL =      5.24 TIME LEFT:1209594.61
 STEP:  42 TIME =     0.22 SECS, INTEGRAL =      5.46 TIME LEFT:1209594.39
 STEP:  43 TIME =     0.23 SECS, INTEGRAL =      5.69 TIME LEFT:1209594.16
 STEP:  44 TIME =     0.65 SECS, INTEGRAL =      6.34 TIME LEFT:1209593.52
 STEP:  45 TIME =     0.79 SECS, INTEGRAL =      7.12 TIME LEFT:1209592.73
 STEP:  46 TIME =     0.52 SECS, INTEGRAL =      7.65 TIME LEFT:1209592.20
 STEP:  47 TIME =     0.88 SECS, INTEGRAL =      8.52 TIME LEFT:1209591.33
 STEP:  48 TIME =     0.08 SECS, INTEGRAL =      8.60 TIME LEFT:1209591.25
 STEP:  49 TIME =     0.08 SECS, INTEGRAL =      8.68 TIME LEFT:1209591.17
 STEP:  50 TIME =     0.09 SECS, INTEGRAL =      8.77 TIME LEFT:1209591.09
 STEP:  51 TIME =     0.08 SECS, INTEGRAL =      8.84 TIME LEFT:1209591.01
 STEP:  52 TIME =     0.09 SECS, INTEGRAL =      8.93 TIME LEFT:1209590.92
 STEP:  53 TIME =     0.08 SECS, INTEGRAL =      9.01 TIME LEFT:1209590.84
 STEP:  54 TIME =     0.09 SECS, INTEGRAL =      9.09 TIME LEFT:1209590.76
 STEP:  55 TIME =     0.08 SECS, INTEGRAL =      9.17 TIME LEFT:1209590.68
 STEP:  56 TIME =     0.09 SECS, INTEGRAL =      9.26 TIME LEFT:1209590.59
 STEP:  57 TIME =     0.08 SECS, INTEGRAL =      9.34 TIME LEFT:1209590.52
 STEP:  58 TIME =     0.08 SECS, INTEGRAL =      9.41 TIME LEFT:1209590.44
 STEP:  59 TIME =     0.08 SECS, INTEGRAL =      9.49 TIME LEFT:1209590.36
 STEP:  60 TIME =     0.08 SECS, INTEGRAL =      9.57 TIME LEFT:1209590.28
 STEP:  61 TIME =     0.08 SECS, INTEGRAL =      9.65 TIME LEFT:1209590.20
 STEP:  62 TIME =     0.08 SECS, INTEGRAL =      9.73 TIME LEFT:1209590.12
 STEP:  63 TIME =     0.08 SECS, INTEGRAL =      9.80 TIME LEFT:1209590.05
 STEP:  64 TIME =     0.09 SECS, INTEGRAL =      9.89 TIME LEFT:1209589.96
 STEP:  65 TIME =     0.07 SECS, INTEGRAL =      9.96 TIME LEFT:1209589.89
 STEP:  66 TIME =     0.09 SECS, INTEGRAL =     10.05 TIME LEFT:1209589.80
 STEP:  67 TIME =     0.08 SECS, INTEGRAL =     10.12 TIME LEFT:1209589.73
 STEP:  68 TIME =     0.08 SECS, INTEGRAL =     10.20 TIME LEFT:1209589.65
 STEP:  69 TIME =     0.08 SECS, INTEGRAL =     10.28 TIME LEFT:1209589.57
 STEP:  70 TIME =     0.08 SECS, INTEGRAL =     10.36 TIME LEFT:1209589.49
 STEP:  71 TIME =     0.08 SECS, INTEGRAL =     10.44 TIME LEFT:1209589.41
 STEP:  72 TIME =     0.08 SECS, INTEGRAL =     10.52 TIME LEFT:1209589.34
 STEP:  73 TIME =     0.08 SECS, INTEGRAL =     10.59 TIME LEFT:1209589.26
 STEP:  74 TIME =     0.08 SECS, INTEGRAL =     10.67 TIME LEFT:1209589.18
 STEP:  75 TIME =     0.08 SECS, INTEGRAL =     10.75 TIME LEFT:1209589.10

(To convert to Hartree/Bohr^2, multiply by (10^(-21) x N x a0^2)/(4.184 x 627.51) =  0.0642)


           FORCE MATRIX IN MILLIDYNES/ANGSTROM


                  C  1       C  2       C  3       C  4       C  5       C  6
 ------------------------------------------------------------------------------
     C    1  15.215041
     C    2   6.140253  15.262156
     C    3   2.022903   6.044237  16.087435
     C    4   1.353573   1.984558   6.041220  15.381738
     C    5   2.134438   1.333174   2.075911   6.373221  14.691998
     C    6   6.157703   2.005117   1.295301   1.948328   6.265124  15.308740
     H    7   3.396836   0.731370   0.082951   0.013871   0.088483   0.755300
     H    8   0.735167   3.374377   0.740390   0.079788   0.017673   0.083652
     H    9   0.008014   0.079070   0.732002   3.381441   0.743398   0.076162
    Cl   10   0.095054   0.014869   0.081695   0.813946   2.468005   0.808480
     H   11   0.726105   0.088838   0.009648   0.079150   0.737352   3.387717
     C   12   0.090182   0.777944   3.323249   0.744115   0.090983   0.016393
     C   13   0.013396   0.030783   0.675667   0.052650   0.022251   0.007478
     H   14   0.001892   0.004050   0.044592   0.002771   0.002078   0.001161
     H   15   0.001293   0.004584   0.015543   0.015739   0.008018   0.002831
     H   16   0.001647   0.003831   0.021863   0.002830   0.006067   0.003030
     N   17   0.020770   0.178726   0.890039   0.029137   0.045091   0.021195
     O   18   0.005300   0.102085   0.087115   0.012891   0.025945   0.011554
     O   19   0.002955   0.092165   0.061420   0.032886   0.019003   0.007985
     H   20   0.006013   0.059786   0.679480   0.036144   0.011587   0.005312
     O   21   0.003920   0.066716   0.006814   0.003205   0.003638   0.002802
     H   22   0.000893   0.024306   0.001108   0.000743   0.001003   0.000651
     H   23   0.005274   0.118961   0.011120   0.006692   0.008209   0.004226
     H   24   0.001460   0.032741   0.002980   0.002554   0.002540   0.000823
     O   25   0.007447   0.082851   0.017204   0.012593   0.013739   0.005127


                  H  7       H  8       H  9      Cl 10       H 11       C 12
 ------------------------------------------------------------------------------
     H    7   4.272429
     H    8   0.036653   4.221996
     H    9   0.009746   0.009421   4.277858
    Cl   10   0.014395   0.014046   0.045461   3.859238
     H   11   0.036369   0.011371   0.009304   0.041898   4.271120
     C   12   0.009009   0.041347   0.029241   0.014404   0.011940  12.075752
     C   13   0.004339   0.009496   0.013775   0.007855   0.005469   2.928203
     H   14   0.000770   0.002729   0.003371   0.001427   0.000789   0.685358
     H   15   0.001389   0.001637   0.022115   0.005060   0.001830   0.677664
     H   16   0.001659   0.003374   0.004056   0.002952   0.001953   0.688185
     N   17   0.011833   0.021525   0.058466   0.023249   0.011397   2.554658
     O   18   0.005751   0.011379   0.018936   0.009105   0.005842   1.016548
     O   19   0.004565   0.008925   0.023264   0.010187   0.005424   1.011131
     H   20   0.003998   0.029861   0.005820   0.002503   0.003135   2.834614
     O   21   0.002493   0.051969   0.000956   0.003642   0.002440   0.028407
     H   22   0.000856   0.018924   0.000318   0.000557   0.000502   0.005309
     H   23   0.003719   0.093355   0.001351   0.006114   0.003451   0.055092
     H   24   0.000832   0.021037   0.001298   0.001655   0.000756   0.010955
     O   25   0.005727   0.072004   0.003744   0.008490   0.004140   0.149391


                  C 13       H 14       H 15       H 16       N 17       O 18
 ------------------------------------------------------------------------------
     C   13  11.024053
     H   14   3.350501   4.136469
     H   15   3.352749   0.452556   4.144096
     H   16   3.340221   0.456015   0.453692   4.139310
     N   17   0.783710   0.054113   0.075764   0.072389  18.894097
     O   18   0.099686   0.017502   0.025019   0.016102   9.606129  12.174584
     O   19   0.061858   0.013314   0.016411   0.012149   9.706027   2.607315
     H   20   0.631440   0.025465   0.042798   0.044710   0.853212   0.073327
     O   21   0.026792   0.013321   0.001339   0.025542   0.018198   0.013912
     H   22   0.003705   0.001569   0.000579   0.003150   0.005609   0.002839
     H   23   0.065153   0.030920   0.002957   0.059888   0.046310   0.030946
     H   24   0.019278   0.008555   0.001236   0.016622   0.042164   0.043675
     O   25   0.046327   0.019393   0.003252   0.033938   0.095349   0.066839


                  O 19       H 20       O 21       H 22       H 23       H 24
 ------------------------------------------------------------------------------
     O   19  12.356169
     H   20   0.087736   3.896317
     O   21   0.010527   0.055859   5.803686
     H   22   0.002676   0.010740   4.098682   4.305658
     H   23   0.023453   0.123553   0.828812   0.661688   1.718942
     H   24   0.028240   0.065469   0.183860   0.039723   0.533404   4.349895
     O   25   0.050638   0.102965   3.852383   0.286207   0.899507   4.014419


                  O 25
 ------------------
     O   25   6.572017


          HEAT OF FORMATION =    -223.499590 KCALS/MOLE


          TRIVIAL VIBRATIONS, SHOULD BE ZERO

  -5.2404=TX  32.8112=TY  15.4678=TZ -16.6611=RX -13.6870=RY -12.6985=RZ


      MOLECULAR POINT GROUP   :   C1  


           EIGENVECTORS  


   Root No.       1         2         3         4         5         6         7         8

                 1 A       2 A       3 A       4 A       5 A       6 A       7 A       8 A   

                  -0.1      -0.1      -0.0      -0.0      -0.0       0.0       0.0       0.0
  
           1   -0.0022   -0.0132    0.0376   -0.0720   -0.1359    0.0193   -0.0075   -0.0027
           2    0.0174   -0.0039   -0.0491    0.0766    0.0847   -0.0245    0.0202   -0.0217
           3    0.0100   -0.0327   -0.0482    0.0755   -0.0773   -0.0329    0.0229    0.1106
           4   -0.0019   -0.0132    0.0379   -0.0720   -0.1352    0.0193   -0.0071   -0.0030
           5    0.0206   -0.0133   -0.0492    0.0391    0.0050   -0.0243    0.0076   -0.0216
           6    0.0195   -0.0501   -0.0875    0.0565   -0.0838   -0.0265   -0.0002    0.0984
           7   -0.0024   -0.0063    0.0329   -0.0389   -0.0684    0.0186    0.0029   -0.0010
           8    0.0193   -0.0174   -0.0449    0.0192   -0.0334   -0.0235    0.0014   -0.0229
           9   -0.0013   -0.0213   -0.0522   -0.0296    0.0099    0.0304   -0.0165   -0.0204
          10   -0.0038    0.0034    0.0301   -0.0052   -0.0014    0.0185    0.0119    0.0009
          11    0.0181   -0.0125   -0.0460    0.0382    0.0048   -0.0237    0.0068   -0.0217
          12   -0.0179    0.0339    0.0108   -0.0698    0.0693    0.0748   -0.0032   -0.1255
          13   -0.0040    0.0032    0.0308   -0.0065   -0.0025    0.0188    0.0120    0.0005
          14    0.0169   -0.0037   -0.0484    0.0761    0.0831   -0.0244    0.0197   -0.0215
          15   -0.0197    0.0504    0.0322   -0.0473    0.0658    0.0644    0.0153   -0.0997
          16   -0.0034   -0.0046    0.0344   -0.0390   -0.0685    0.0191    0.0021   -0.0010
          17    0.0162    0.0012   -0.0503    0.0957    0.1236   -0.0246    0.0258   -0.0206
          18   -0.0090    0.0177    0.0098    0.0197    0.0062    0.0131    0.0300    0.0150
          19   -0.0008   -0.0191    0.0378   -0.0977   -0.1887    0.0199   -0.0161   -0.0039
          20    0.0157   -0.0003   -0.0481    0.0908    0.1147   -0.0244    0.0251   -0.0212
          21    0.0221   -0.0604   -0.0713    0.1305   -0.1326   -0.0755    0.0338    0.1962
          22   -0.0109   -0.0193    0.0505   -0.1015   -0.1888    0.0234   -0.0156   -0.0060
          23    0.0159   -0.0159   -0.0437    0.0231   -0.0238   -0.0229    0.0030   -0.0223
          24    0.0744   -0.0990   -0.1915    0.1166   -0.1801   -0.0772   -0.0057    0.1945
          25   -0.0049    0.0117    0.0291    0.0204    0.0519    0.0197    0.0172    0.0025
          26    0.0186   -0.0176   -0.0458    0.0235   -0.0260   -0.0242    0.0041   -0.0227
          27   -0.0245    0.0586    0.0341   -0.1101    0.1102    0.1033   -0.0039   -0.2023
          28   -0.0052    0.0126    0.0279    0.0323    0.0825    0.0183    0.0272    0.0017
          29    0.0149    0.0018   -0.0486    0.0981    0.1315   -0.0247    0.0283   -0.0202
          30   -0.0289    0.0914    0.0660   -0.0861    0.1147    0.0903    0.0158   -0.1634
          31   -0.0037   -0.0044    0.0346   -0.0390   -0.0678    0.0192    0.0022   -0.0007
          32    0.0146    0.0085   -0.0510    0.1254    0.1863   -0.0248    0.0363   -0.0197
          33   -0.0111    0.0293    0.0293    0.0316    0.0196    0.0049    0.0475    0.0371
          34   -0.0021   -0.0092    0.0317   -0.0413   -0.0705    0.0197    0.0023   -0.0039
          35    0.0183   -0.0315   -0.0338   -0.0281   -0.1033   -0.0221   -0.0067   -0.0349
          36    0.0025   -0.0518   -0.0890   -0.0679    0.0386    0.0174   -0.0341    0.0127
          37    0.0001   -0.0111    0.0084   -0.0255   -0.0211   -0.0039   -0.0027    0.0565
          38    0.0148    0.0261    0.0615    0.0320   -0.1970   -0.1040    0.0287   -0.0734
          39    0.0023   -0.0079   -0.0288   -0.0124   -0.0091   -0.0551   -0.0082    0.0155
          40    0.0006   -0.0122    0.0040   -0.0324   -0.0224   -0.0012    0.0627    0.0520
          41    0.0163    0.0154    0.0537   -0.0187   -0.2332   -0.0823    0.4803   -0.1439
          42    0.0017   -0.0166   -0.0733   -0.0481    0.0245   -0.0410    0.3417    0.0333
          43    0.0039   -0.0069    0.0281    0.0353    0.0043   -0.0374   -0.4792    0.1166
          44    0.0156    0.0202    0.0543    0.0347   -0.1834   -0.1014   -0.0388   -0.0610
          45    0.0020    0.0437    0.0806    0.0793   -0.0915   -0.1501   -0.2721   -0.0054
          46   -0.0032   -0.0090   -0.0268   -0.0643   -0.0075    0.0082    0.4068    0.0580
          47    0.0245    0.0586    0.1644    0.1365   -0.2602   -0.2081   -0.3243   -0.0723
          48    0.0022   -0.0226   -0.0434   -0.0273    0.0047   -0.0293   -0.0744    0.0127
          49   -0.0123    0.0194    0.0621   -0.0067   -0.0463    0.0204    0.0187   -0.0308
          50    0.0140   -0.1460   -0.1333   -0.1507   -0.0385    0.0608   -0.0549   -0.0342
          51    0.0109   -0.0205   -0.0643   -0.0307    0.0008   -0.0172   -0.0212    0.0198
          52   -0.0539   -0.0035    0.1659   -0.0330    0.0815   -0.3266    0.0876    0.2080
          53   -0.0125   -0.2237   -0.1268   -0.2364    0.0570   -0.0758   -0.0504    0.0963
          54    0.0290   -0.0857   -0.1830   -0.1036   -0.0383    0.2402   -0.0985   -0.1154
          55    0.0042    0.0660    0.0073    0.0416   -0.1313    0.3458   -0.0269   -0.2906
          56    0.0212   -0.1582   -0.1897   -0.1638   -0.0682    0.2506   -0.0956   -0.1629
          57    0.0011    0.0616    0.0610    0.0555    0.0116   -0.2803    0.0565    0.1674
          58    0.0026   -0.0246    0.0349   -0.0752   -0.1172    0.0148   -0.0033   -0.0089
          59    0.0303   -0.0332   -0.0344   -0.0282   -0.1328   -0.0356   -0.0042   -0.0457
          60    0.0052   -0.1369   -0.1874   -0.1560    0.1091    0.0852   -0.0716    0.0298
          61   -0.3747    0.0123   -0.2281    0.5099    0.1121    0.0468    0.0038   -0.1363
          62   -0.1836   -0.0229    0.2582    0.0145    0.1351    0.2157   -0.0098    0.1880
          63   -0.2314    0.2418   -0.0748    0.0784   -0.0735   -0.1344   -0.0074   -0.1890
          64    0.5758   -0.1721    0.1545    0.3088    0.3195   -0.0304    0.0012   -0.2482
          65   -0.2099    0.3531    0.2043   -0.1957    0.1687    0.1606   -0.0353    0.1714
          66    0.2759    0.4320    0.1573   -0.2243    0.1000   -0.2133   -0.0289   -0.2784
          67   -0.1134    0.2615   -0.1997    0.1632    0.1493    0.0703   -0.0106    0.0638
          68    0.2900   -0.0308    0.0625   -0.0088    0.0472    0.1086   -0.0170    0.2177
          69   -0.1819   -0.1640    0.1139    0.1019   -0.0373   -0.0481    0.0117   -0.0857
          70   -0.1535   -0.2913   -0.0566   -0.2901    0.3459   -0.2961   -0.0588   -0.0444
          71   -0.2162    0.0785    0.1143    0.0277    0.0786   -0.0211   -0.0246   -0.0357
          72    0.2198    0.0866    0.1462    0.2040   -0.0808    0.3571    0.0474    0.3312
          73    0.1693    0.2301   -0.3691   -0.0711    0.1266   -0.0445   -0.0307    0.2207
          74   -0.0112    0.1675    0.0700   -0.1209    0.0795    0.1199   -0.0258    0.2265
          75   -0.1527   -0.3774    0.4537    0.0637    0.1193    0.0998    0.0233    0.0111


   Root No.       9        10        11        12        13        14        15        16

                 9 A      10 A      11 A      12 A      13 A      14 A      15 A      16 A   

                   0.0       0.0       0.0       0.1       0.1       0.2       0.2       0.2
  
           1   -0.0466   -0.0120    0.0005   -0.0181    0.0134    0.0801    0.0844   -0.0660
           2    0.0079   -0.0124    0.0193   -0.0132   -0.0199    0.0113    0.0298   -0.0363
           3    0.0380    0.0821   -0.1145    0.0250   -0.0523   -0.0815    0.1393    0.0686
           4   -0.0464   -0.0115    0.0013   -0.0101    0.0137    0.0779    0.0784   -0.0614
           5   -0.0121   -0.0114    0.0272   -0.1444   -0.0493    0.0402    0.0631   -0.0743
           6    0.0586   -0.1177   -0.1861    0.0007    0.0686   -0.1143    0.0057   -0.0951
           7   -0.0249   -0.0110   -0.0040    0.0641    0.0280    0.0432    0.0323   -0.0194
           8   -0.0250   -0.0112    0.0273   -0.1962   -0.0606    0.0521    0.0856   -0.0962
           9   -0.0002   -0.1821   -0.1004   -0.0060   -0.0576    0.0227   -0.0197   -0.0077
          10   -0.0093   -0.0113   -0.0115    0.1560    0.0545    0.0381    0.0253   -0.0021
          11   -0.0157   -0.0110    0.0241   -0.1398   -0.0482    0.0498    0.0790   -0.0880
          12   -0.0385   -0.1858    0.0277   -0.0518    0.0075   -0.0232    0.1298    0.1749
          13   -0.0100   -0.0109   -0.0108    0.1641    0.0561    0.0404    0.0254   -0.0016
          14    0.0063   -0.0120    0.0179   -0.0114   -0.0183    0.0194    0.0416   -0.0448
          15   -0.0626    0.0073    0.1195   -0.0517    0.1153   -0.0345   -0.0042   -0.0046
          16   -0.0289   -0.0113   -0.0059    0.0760    0.0363    0.0658    0.0623   -0.0393
          17    0.0181   -0.0127    0.0144    0.0419   -0.0050    0.0003    0.0189   -0.0206
          18   -0.0367    0.1955    0.0672    0.0124   -0.0715    0.0848   -0.0355    0.0203
          19   -0.0610   -0.0133    0.0071   -0.1081   -0.0066    0.1102    0.1184   -0.1021
          20    0.0153   -0.0123    0.0157    0.0379   -0.0088   -0.0031    0.0143   -0.0196
          21    0.0771    0.1662   -0.1848    0.0537   -0.1100   -0.1905    0.3826    0.2394
          22   -0.0661   -0.0102    0.0020   -0.0893   -0.0083    0.1115    0.1332   -0.1180
          23   -0.0216   -0.0115    0.0281   -0.1896   -0.0617    0.0575    0.0936   -0.1080
          24    0.1374   -0.2010   -0.2704   -0.0265    0.3414   -0.2144   -0.1054   -0.2582
          25    0.0045   -0.0086   -0.0178    0.2515    0.0843    0.0270    0.0075    0.0272
          26   -0.0236   -0.0118    0.0279   -0.1922   -0.0648    0.0573    0.0898   -0.1088
          27   -0.0532   -0.2958    0.0650   -0.0850    0.0050   -0.0597    0.3727    0.4771
          28    0.0133   -0.0110   -0.0181    0.3442    0.1095    0.0028   -0.0186    0.0642
          29    0.0196   -0.0120    0.0130    0.0878    0.0082   -0.0023    0.0166   -0.0078
          30   -0.1104    0.0461    0.2640   -0.1116    0.5026   -0.2344   -0.1302   -0.3141
          31   -0.0287   -0.0122   -0.0063    0.0785    0.0374    0.0669    0.0647   -0.0400
          32    0.0341   -0.0106    0.0099    0.1441    0.0168   -0.0194   -0.0118    0.0124
          33   -0.0725    0.4425    0.1739    0.0519   -0.2316    0.3394   -0.2280   -0.0003
          34   -0.0245   -0.0090   -0.0016    0.0669    0.0250    0.0384    0.0273   -0.0162
          35   -0.0408   -0.0058    0.0412   -0.0816   -0.0241    0.0246    0.0614   -0.0464
          36   -0.0528   -0.0753   -0.0875    0.0250   -0.0992    0.0969   -0.0693   -0.0573
          37   -0.0673    0.1626   -0.0114   -0.1327    0.0435   -0.0843    0.0051    0.0562
          38    0.0725    0.0099    0.0725    0.0640   -0.0220   -0.0542   -0.0018    0.0066
          39    0.0099    0.0318   -0.0695    0.0232   -0.0857   -0.0156   -0.1193    0.0118
          40   -0.0623    0.1698   -0.0153   -0.1352    0.0468   -0.0998   -0.0031    0.0681
          41    0.1465   -0.0452    0.0581    0.2245   -0.0247   -0.0186   -0.0343   -0.0136
          42    0.0016    0.1749   -0.1011   -0.1250   -0.0680   -0.1751   -0.1862    0.1164
          43   -0.1229    0.2145    0.0069   -0.2688    0.0535   -0.1363    0.0201    0.0916
          44    0.0530    0.0178    0.0723    0.0301   -0.0202   -0.0564    0.0071    0.0066
          45    0.1018    0.0520   -0.0254    0.1446   -0.1046   -0.1237   -0.2312    0.0918
          46   -0.0549    0.2802   -0.0388   -0.2324    0.0666   -0.2360   -0.0424    0.1515
          47    0.1323    0.0771    0.1181    0.1063   -0.0105   -0.1959   -0.0944    0.1200
          48   -0.0107   -0.0361   -0.0727    0.0506   -0.0985    0.0817   -0.0832   -0.0520
          49    0.0178   -0.1770   -0.0553   -0.0787   -0.1039    0.0117   -0.1388    0.0176
          50   -0.1622   -0.0136    0.0645    0.0527   -0.0216   -0.0742   -0.0463    0.0408
          51   -0.0198    0.0042   -0.0717    0.0371   -0.0443    0.1382    0.0359   -0.0996
          52   -0.2434   -0.3791    0.0140   -0.0934   -0.1790   -0.0438   -0.3100    0.0964
          53   -0.3552   -0.0708    0.1321    0.1711   -0.0190   -0.1767   -0.1451    0.1307
          54    0.0595    0.1707   -0.0757    0.1849    0.0365    0.0900    0.1101   -0.0874
          55    0.3185   -0.1536   -0.2036   -0.2382   -0.2565   -0.0067   -0.3175    0.0205
          56   -0.0385    0.0301    0.0045    0.0444   -0.0681   -0.1269   -0.1356    0.0695
          57   -0.0988   -0.0938   -0.0295   -0.0711   -0.0342    0.2702    0.1556   -0.1859
          58   -0.0337   -0.0007    0.0356    0.2264    0.0695    0.0332    0.0348    0.0043
          59   -0.0364   -0.0054    0.0517   -0.0168    0.0028    0.0256    0.0581   -0.0260
          60   -0.1645   -0.0432   -0.0742    0.0430   -0.1144    0.1024   -0.0964   -0.0656
          61   -0.1529   -0.0104   -0.0004    0.0162   -0.0110   -0.0368    0.0037   -0.0402
          62    0.0150    0.0230   -0.1633    0.0123    0.0398    0.0162   -0.0094   -0.0033
          63   -0.0159   -0.0135    0.0883   -0.0522    0.1686    0.1452   -0.0743    0.1327
          64   -0.1228    0.0557   -0.1790    0.0010   -0.0078   -0.0186    0.0165   -0.0355
          65   -0.0043    0.0504   -0.2094    0.1034   -0.1963   -0.2504    0.1042   -0.2472
          66   -0.0271    0.0567   -0.0759    0.0234   -0.0533   -0.0891    0.0416   -0.0896
          67    0.0080   -0.0213    0.1181    0.0552   -0.1562   -0.1206    0.0503   -0.0655
          68    0.1213   -0.0092   -0.0734   -0.0629    0.2564    0.2414   -0.1189    0.2186
          69    0.0935   -0.0261    0.1404   -0.0765    0.1501    0.1371   -0.0508    0.1051
          70    0.5232    0.0559    0.0961   -0.0559   -0.0305   -0.0206    0.0694   -0.0704
          71   -0.0112    0.0652   -0.2984   -0.0479    0.2713    0.2459   -0.0958    0.2133
          72    0.0307   -0.1422    0.4194   -0.0020   -0.0724   -0.0492   -0.0115   -0.0023
          73    0.3214   -0.0641    0.2981   -0.0395    0.0217    0.0562   -0.0286    0.0800
          74    0.1048    0.0056   -0.0953   -0.0245    0.1478    0.1365   -0.0696    0.1224
          75    0.1558   -0.0175    0.1740   -0.0160   -0.0980   -0.1034    0.0717   -0.1182


   Root No.      17        18        19        20        21        22        23        24

                17 A      18 A      19 A      20 A      21 A      22 A      23 A      24 A   

                   0.3       0.4       0.4       0.6       0.6       0.7       0.8       0.8
  
           1    0.0042    0.1010    0.0321    0.0341    0.0158    0.0533    0.0028   -0.0074
           2    0.0035    0.0306    0.0095   -0.0357   -0.0257   -0.0714   -0.0075    0.0313
           3    0.0776   -0.0217    0.0383    0.1734   -0.1533   -0.0548    0.0396   -0.0245
           4    0.0030    0.0814    0.0258    0.0228    0.0074    0.0431    0.0024    0.0019
           5    0.0096    0.0885    0.0194   -0.0112    0.0115   -0.1011   -0.0126    0.0378
           6   -0.1346   -0.0387    0.0850    0.1589   -0.1398   -0.0412    0.0125    0.0004
           7    0.0023    0.0130   -0.0059   -0.0451   -0.0307   -0.0921   -0.0054    0.0468
           8    0.0095    0.1117    0.0355    0.0213    0.0324   -0.0355   -0.0069    0.0030
           9   -0.0613   -0.0557    0.0539    0.1995   -0.1704   -0.0253   -0.0316    0.0378
          10   -0.0006    0.0512    0.0120   -0.0411   -0.0762    0.0802    0.0061   -0.0098
          11    0.0082    0.1346    0.0454   -0.0086   -0.0266    0.0468   -0.0019   -0.0060
          12   -0.1200   -0.0219    0.0338    0.1872   -0.1710   -0.0517    0.0270   -0.0124
          13   -0.0018    0.0491    0.0120   -0.0410   -0.0820    0.1035    0.0083   -0.0101
          14    0.0027    0.0676    0.0276   -0.0210   -0.0430    0.0552    0.0017   -0.0155
          15   -0.0349   -0.0302    0.0502    0.2986   -0.2699   -0.1003    0.0844   -0.0562
          16    0.0007    0.1034    0.0353   -0.0132   -0.0704    0.1743    0.0132   -0.0412
          17    0.0016    0.0296    0.0121   -0.0398   -0.0484   -0.0008   -0.0014    0.0105
          18   -0.0957   -0.0205    0.0378    0.2089   -0.1875   -0.0724    0.0617   -0.0429
          19    0.0094    0.1799    0.0509    0.1288    0.1295   -0.0233   -0.0090    0.0479
          20    0.0006   -0.0023    0.0032   -0.0914   -0.0962   -0.0276   -0.0015    0.0050
          21    0.4780    0.0285   -0.0861   -0.1626    0.1407    0.0508   -0.0377    0.0238
          22    0.0046    0.2208    0.0780    0.1272    0.0848    0.1885    0.0002    0.0365
          23    0.0087    0.1667    0.0507    0.0415    0.0569   -0.0357   -0.0163    0.0639
          24   -0.4586    0.0425    0.0185   -0.2038    0.1665    0.0281    0.0039   -0.0139
          25   -0.0081    0.0143    0.0069   -0.0707   -0.1988    0.4046    0.0306   -0.2529
          26    0.0139    0.1659    0.0534    0.0121    0.0374   -0.1304   -0.0158    0.1310
          27   -0.3017    0.0716   -0.0507   -0.2816    0.2375    0.0525   -0.0192   -0.0042
          28   -0.0146   -0.1148   -0.0368    0.4430    0.5422   -0.1174   -0.0073   -0.0017
          29   -0.0055   -0.0239    0.0002    0.2542    0.3134   -0.0879   -0.0092   -0.0013
          30    0.3643    0.0108   -0.0396   -0.1617    0.1474    0.0552   -0.0440    0.0286
          31    0.0012    0.1110    0.0384   -0.0104   -0.0765    0.1947    0.0155   -0.0463
          32   -0.0059    0.0071    0.0068   -0.1706   -0.2221    0.0877    0.0080    0.1446
          33   -0.3700    0.0340   -0.0343   -0.2311    0.2072    0.0682   -0.0524    0.0331
          34    0.0030   -0.0103   -0.0156   -0.0837   -0.0500   -0.1733   -0.0186    0.0358
          35   -0.0124   -0.2190   -0.0507    0.0282    0.0303    0.0842    0.0204   -0.0610
          36    0.0802   -0.0417   -0.0130   -0.0102    0.0100    0.0114   -0.0517    0.0186
          37   -0.0333   -0.0339   -0.0175   -0.0621   -0.0208   -0.1486   -0.0157   -0.0723
          38   -0.0206   -0.1302   -0.0310    0.0162   -0.0002    0.0547   -0.0584   -0.0314
          39    0.0631    0.0428    0.0091    0.0016    0.0135    0.0247   -0.1101    0.0079
          40   -0.0395   -0.0331   -0.0159   -0.0621   -0.0269   -0.1602   -0.0290   -0.0956
          41    0.0211    0.0152   -0.0115   -0.1154   -0.0283   -0.2524   -0.1296   -0.4686
          42    0.0120    0.0271    0.0291    0.1695    0.0458    0.4428   -0.1807    0.2862
          43   -0.0828   -0.2495   -0.0578    0.0021   -0.0364   -0.0367   -0.2667   -0.3069
          44   -0.0295   -0.2015   -0.0456    0.0347    0.0006    0.1105   -0.1190   -0.0880
          45    0.0799    0.3952    0.0908   -0.0603    0.0090   -0.2371    0.0831   -0.0280
          46   -0.0983   -0.0234    0.0036    0.0020   -0.0411   -0.1442    0.3189    0.0169
          47   -0.0521    0.0407    0.0183    0.0590    0.0039    0.1465    0.3697    0.1523
          48    0.0993   -0.0058   -0.0127   -0.0365    0.0199   -0.0060   -0.3863   -0.0892
          49    0.0456   -0.0277   -0.0216   -0.0365   -0.0283   -0.0964   -0.0141    0.0401
          50   -0.0024   -0.1071   -0.0114    0.0121    0.0232    0.0703    0.0891   -0.0431
          51    0.0617   -0.1003   -0.0325   -0.0348   -0.0005   -0.0283   -0.0190    0.0290
          52    0.0982    0.0229   -0.0275   -0.0458    0.0011   -0.0553   -0.0909    0.0518
          53   -0.0029    0.0969    0.0419    0.0104   -0.0267   -0.0215   -0.1217    0.0242
          54    0.0112    0.0532    0.0269   -0.0389   -0.0840   -0.1835   -0.1551    0.0942
          55    0.1363   -0.1645   -0.0821   -0.0606    0.0672    0.0465    0.0474    0.0061
          56    0.0206   -0.0582   -0.0006    0.0109    0.0323    0.0828    0.0175   -0.0298
          57    0.0615   -0.3414   -0.1104   -0.0403    0.0455    0.0571    0.2111   -0.0428
          58   -0.0085   -0.2503   -0.0945   -0.1958   -0.1185   -0.2556    0.0132    0.5638
          59   -0.0216   -0.3058   -0.0740    0.0028   -0.0064    0.0590   -0.0309    0.1384
          60    0.1483   -0.0197   -0.0425   -0.1323    0.1219   -0.0040    0.5667   -0.2419
          61   -0.0379    0.0840   -0.3016    0.0299   -0.0232    0.0003    0.0070   -0.0030
          62   -0.0110    0.0608   -0.1881    0.0393   -0.0328   -0.0032   -0.0134    0.0047
          63    0.0428    0.0749   -0.2271    0.0502   -0.0412   -0.0004   -0.0057    0.0009
          64   -0.0088    0.0159   -0.0303    0.0074   -0.0037   -0.0010   -0.0125    0.0034
          65   -0.1172    0.0278   -0.1511   -0.0260    0.0181   -0.0020    0.0205   -0.0035
          66   -0.0285   -0.0009   -0.0088   -0.0122    0.0096    0.0006    0.0003    0.0004
          67    0.0192   -0.1382    0.4526   -0.0536    0.0425    0.0018    0.0018   -0.0021
          68    0.0554    0.0672   -0.1734    0.0293   -0.0308   -0.0065    0.0300   -0.0077
          69    0.0347    0.0117   -0.0437    0.0063   -0.0039    0.0015   -0.0038    0.0034
          70   -0.0309    0.0102   -0.1167    0.0262   -0.0140    0.0096    0.0053    0.0006
          71    0.0898   -0.1358    0.5945   -0.1035    0.0691   -0.0183    0.0067    0.0049
          72    0.0170   -0.0104    0.0268   -0.0022    0.0079    0.0065   -0.0018   -0.0062
          73    0.0374   -0.0124    0.0763   -0.0018    0.0069    0.0039   -0.0037   -0.0023
          74    0.0359    0.0728   -0.1812    0.0513   -0.0418   -0.0034   -0.0176    0.0045
          75   -0.0263   -0.0834    0.2014   -0.0456    0.0393    0.0059    0.0088   -0.0021


   Root No.      25        26        27        28        29        30        31        32

                25 A      26 A      27 A      28 A      29 A      30 A      31 A      32 A   

                   0.9       1.0       1.0       1.1       1.1       1.2       1.3       1.4
  
           1   -0.0503   -0.0723   -0.0215   -0.0327   -0.0143   -0.1240   -0.0259    0.0446
           2   -0.0383   -0.1648   -0.0048   -0.0937   -0.0529    0.0755   -0.0377    0.0513
           3    0.0038    0.0245   -0.0115   -0.0313   -0.0420   -0.0033   -0.2431   -0.0749
           4   -0.0338   -0.0419   -0.0210   -0.0150   -0.0077   -0.1121   -0.0236    0.0464
           5    0.0471   -0.0826   -0.0049   -0.0365   -0.0213    0.1319    0.0261   -0.0508
           6    0.0007   -0.0107    0.0371    0.0793   -0.0387    0.0003   -0.3879   -0.2062
           7    0.0135   -0.0544   -0.0672    0.0259   -0.0180   -0.0139    0.0096    0.0083
           8   -0.0019   -0.0519    0.0039   -0.0202   -0.0083    0.0232    0.0143   -0.0259
           9   -0.0009   -0.0615    0.0628    0.1683    0.0428    0.0129   -0.2237   -0.2718
          10    0.0178   -0.0164   -0.0407    0.0194    0.0001   -0.1222    0.0239   -0.0499
          11   -0.0013   -0.0610    0.0086   -0.0471   -0.0125   -0.0616    0.0096   -0.0581
          12   -0.0001    0.0045   -0.0110   -0.0039    0.0332    0.0031    0.1275   -0.0311
          13    0.0394    0.0112   -0.0361    0.0312    0.0069   -0.1513    0.0251   -0.0519
          14   -0.0783   -0.1221    0.0325   -0.1041   -0.0345   -0.0042   -0.0441    0.0363
          15    0.0023    0.0636   -0.0813   -0.1664    0.0067   -0.0034    0.3974    0.2441
          16   -0.0514   -0.0095   -0.0216   -0.0011    0.0071   -0.2643   -0.0037   -0.0174
          17   -0.0490   -0.0935    0.0018   -0.0664   -0.0341    0.0208   -0.0271    0.0251
          18   -0.0016    0.0457   -0.0554   -0.1203   -0.0220   -0.0063    0.0987    0.1296
          19    0.5796   -0.2767    0.1367   -0.2385   -0.0765    0.1698   -0.0637    0.0599
          20   -0.4168   -0.0843   -0.1007   -0.0001   -0.0326   -0.0935   -0.0347    0.0688
          21   -0.0011   -0.0180    0.0104    0.0274    0.0270    0.0047    0.1654    0.0424
          22   -0.3044    0.5268   -0.0029    0.1387    0.0886    0.2527   -0.0186    0.0451
          23   -0.0987    0.2213    0.0079    0.0394    0.0268    0.3915    0.0444   -0.0757
          24   -0.0017    0.0241   -0.0209   -0.0599   -0.0277   -0.0014    0.2118    0.1797
          25   -0.0639   -0.1955    0.2432   -0.1327    0.0185    0.4114    0.0335   -0.0516
          26    0.0456    0.0229   -0.1574    0.0304   -0.0256   -0.4031    0.0124   -0.0874
          27   -0.0003    0.0078   -0.0002   -0.0159   -0.0243   -0.0051   -0.0995    0.0138
          28    0.0367    0.1104   -0.0153    0.0775    0.0374   -0.0589    0.0402   -0.0490
          29   -0.0770   -0.0769    0.0481   -0.0945   -0.0267    0.0716   -0.0465    0.0521
          30   -0.0000   -0.0299    0.0350    0.0711    0.0130    0.0012   -0.1549   -0.0918
          31   -0.0513   -0.0078   -0.0270   -0.0003    0.0072   -0.3380   -0.0036   -0.0210
          32    0.5600    0.5004    0.0235    0.1796    0.0692   -0.0192    0.0029    0.0485
          33   -0.0016   -0.0383    0.0413    0.0861    0.0153    0.0022   -0.0793   -0.0824
          34   -0.0013   -0.0568   -0.0859    0.0662   -0.0134    0.0362    0.0192    0.0210
          35    0.0073    0.0071    0.1327    0.0147    0.0308   -0.0669    0.0216    0.0228
          36   -0.0019   -0.0329    0.0388    0.0796    0.0364    0.0079    0.0178   -0.0013
          37    0.0030   -0.0161   -0.0523    0.0407    0.0104    0.0264    0.0688    0.1186
          38    0.0098   -0.0001    0.0715    0.0383   -0.0141   -0.0400    0.0356    0.0587
          39   -0.0034   -0.0042    0.0268    0.0197    0.0159   -0.0009    0.0585    0.0880
          40    0.0073   -0.0067   -0.1038    0.0211    0.0007    0.0421    0.0579    0.1141
          41    0.0498    0.1155   -0.2092   -0.0466   -0.0644    0.0655   -0.1047   -0.1171
          42    0.0239   -0.0140   -0.2829   -0.2033   -0.1118    0.0041   -0.0534   -0.0740
          43    0.0427    0.1306   -0.1418   -0.0878   -0.0614    0.0240   -0.1416   -0.1829
          44    0.0289    0.0145    0.0194    0.0440   -0.0385   -0.0354    0.0107    0.0275
          45   -0.0796    0.1459    0.4120   -0.2671    0.0653   -0.1338   -0.0449   -0.0699
          46   -0.0409   -0.0240    0.3395    0.1791    0.1064   -0.0336   -0.0035   -0.0266
          47    0.0416   -0.1807   -0.3036    0.2716   -0.0465    0.1285    0.0312    0.0404
          48    0.0059    0.0529   -0.0253   -0.1042   -0.0008   -0.0260    0.1041    0.1833
          49   -0.0003   -0.0795   -0.0554    0.1316    0.0143    0.0545   -0.0065   -0.0421
          50    0.0060    0.0401    0.1165   -0.0597    0.0241   -0.0889   -0.0027   -0.0160
          51   -0.0023   -0.0639    0.0392    0.1479    0.0528    0.0298    0.0626    0.0369
          52   -0.0070   -0.0629   -0.0449    0.1222    0.0297    0.0738    0.0536    0.0282
          53   -0.0028   -0.0698    0.0477    0.1423    0.0470    0.0187    0.0588    0.0256
          54   -0.0043   -0.2066   -0.0590    0.3935    0.0599    0.1356    0.0758    0.0084
          55   -0.0034    0.0157    0.0587    0.0155    0.0271   -0.0098    0.0606    0.0545
          56    0.0012    0.0388    0.1184   -0.0512    0.0272   -0.0737    0.0206    0.0189
          57    0.0083    0.0038    0.1598    0.0600    0.0583   -0.0757    0.0513    0.0262
          58   -0.1255    0.1159   -0.0641   -0.3818   -0.1162    0.1406   -0.0898   -0.0724
          59   -0.0397    0.0442    0.2097   -0.1059    0.0786   -0.0500    0.0112   -0.0217
          60    0.0515    0.1118   -0.3197   -0.1608   -0.1788    0.0599   -0.0808   -0.0299
          61    0.0090   -0.0217   -0.0546   -0.0513    0.1837    0.0052    0.0899   -0.1690
          62   -0.0165    0.0363    0.0998    0.0960   -0.3504   -0.0135   -0.1033    0.1882
          63   -0.0061    0.0058    0.0004    0.0224    0.0213   -0.0015   -0.1669    0.1782
          64   -0.0085    0.0178    0.0549    0.0425   -0.1894   -0.0044    0.0446   -0.0254
          65    0.0184   -0.0330   -0.0677   -0.0763    0.1911    0.0054    0.1745   -0.2339
          66    0.0027   -0.0070   -0.0148   -0.0100    0.0506    0.0022   -0.0087    0.0045
          67   -0.0036    0.0052   -0.0040    0.0204    0.0456    0.0005   -0.3129    0.4508
          68    0.0189   -0.0504   -0.1750   -0.1316    0.6289    0.0160   -0.1872    0.1158
          69   -0.0035    0.0118    0.0483    0.0269   -0.1911   -0.0076    0.1302   -0.1292
          70   -0.0012    0.0013    0.0012   -0.0057    0.0360   -0.0054   -0.0414    0.0339
          71    0.0054   -0.0107   -0.0226   -0.0269    0.0070    0.0120    0.1889   -0.2328
          72    0.0003    0.0030    0.0101    0.0048   -0.0392   -0.0006    0.0861   -0.1211
          73   -0.0022    0.0073    0.0259    0.0147   -0.1229    0.0008    0.2079   -0.2661
          74   -0.0196    0.0406    0.1037    0.1046   -0.3685   -0.0108   -0.0751    0.1393
          75    0.0089   -0.0181   -0.0399   -0.0440    0.1778    0.0019   -0.0439    0.0484


   Root No.      33        34        35        36        37        38        39        40

                33 A      34 A      35 A      36 A      37 A      38 A      39 A      40 A   

                   1.4       1.5       1.6       1.7       1.8       1.9       2.3       2.6
  
           1   -0.1772    0.0924   -0.0106   -0.0024   -0.0039   -0.0934   -0.0104    0.0633
           2   -0.1705    0.0890   -0.0231    0.0061   -0.0095   -0.1865   -0.1372    0.0503
           3    0.2176    0.3715    0.0703   -0.1533    0.0130   -0.0004   -0.0033   -0.0056
           4   -0.1789    0.0992   -0.0187    0.0010   -0.0044   -0.1027    0.0065    0.0892
           5    0.1958   -0.0946   -0.0194    0.0167   -0.0099   -0.1052    0.0099   -0.1227
           6    0.0725    0.1436   -0.0347    0.1283   -0.0023    0.0086    0.0068   -0.0163
           7    0.0110    0.0210   -0.0531    0.0182   -0.0186   -0.2237   -0.0109   -0.1370
           8    0.1102   -0.0575   -0.0035    0.0035   -0.0018   -0.0060    0.0644    0.0422
           9   -0.1611   -0.1940   -0.0949    0.2934    0.0053    0.0190   -0.0034    0.0059
          10    0.1697   -0.0897   -0.0029    0.0084   -0.0098   -0.1078   -0.1160    0.0286
          11    0.1808   -0.1199    0.0379   -0.0057    0.0045    0.1128    0.0048    0.1574
          12   -0.1884   -0.2981   -0.0934    0.2537   -0.0062    0.0113    0.0026   -0.0155
          13    0.1680   -0.0885   -0.0028    0.0084   -0.0094   -0.1158   -0.1155    0.0240
          14   -0.1693    0.0586    0.0479   -0.0215    0.0169    0.2495    0.0700   -0.1204
          15   -0.0593   -0.1453    0.0088   -0.0571   -0.0110   -0.0054    0.0007    0.0032
          16   -0.0017   -0.0228    0.0451   -0.0168    0.0117    0.1929    0.0823   -0.1368
          17   -0.0969    0.0380    0.0121   -0.0054    0.0023    0.0203   -0.0594   -0.0468
          18    0.1563    0.2265    0.0956   -0.2562    0.0081   -0.0075   -0.0116    0.0208
          19   -0.2081    0.0766    0.0168   -0.0086   -0.0094   -0.0563   -0.1498    0.0565
          20   -0.2508    0.1506   -0.0506    0.0112   -0.0134   -0.3524   -0.1814    0.1491
          21   -0.1375   -0.2247   -0.0391    0.0862   -0.0150    0.0012   -0.0001    0.0026
          22   -0.2174    0.1219    0.0101   -0.0113    0.0059    0.0373   -0.0626    0.1304
          23    0.2871   -0.1423   -0.0059    0.0162   -0.0094   -0.0567   -0.0234   -0.3087
          24   -0.0303   -0.0994    0.0148   -0.0652   -0.0235   -0.0025   -0.0015    0.0081
          25    0.2273   -0.1104   -0.0010    0.0136    0.0021    0.0311    0.0175    0.1984
          26    0.2468   -0.1752    0.0521   -0.0041   -0.0031    0.0618   -0.1191    0.2656
          27    0.1190    0.1842    0.0503   -0.1256    0.0085   -0.0023   -0.0042    0.0083
          28    0.1682   -0.0748   -0.0209    0.0125   -0.0047   -0.1472   -0.0573    0.1104
          29   -0.2202    0.0812    0.0566   -0.0275    0.0256    0.3753    0.1831   -0.1477
          30    0.0176    0.0506   -0.0026    0.0219    0.0144    0.0044   -0.0008   -0.0000
          31   -0.0042   -0.0295    0.0654   -0.0263    0.0179    0.2981    0.1476   -0.2960
          32   -0.1594    0.1079   -0.0200   -0.0030    0.0088   -0.0201    0.0591    0.0339
          33   -0.0858   -0.1214   -0.0504    0.1364   -0.0021    0.0047    0.0037   -0.0080
          34    0.0159    0.0321   -0.0543    0.0279   -0.0152   -0.1589    0.0881   -0.1740
          35    0.0153    0.0297   -0.0531    0.0206   -0.0077   -0.0818    0.2146    0.1192
          36   -0.0129   -0.0030    0.0239    0.0040    0.0054    0.0732   -0.1099    0.0947
          37    0.1019    0.1648   -0.1926    0.2201   -0.0076    0.0664    0.1295    0.0207
          38    0.0240    0.0317    0.2566    0.1152   -0.0012   -0.1541    0.1116   -0.1070
          39    0.0468    0.0891    0.1508    0.1819    0.0127    0.1136   -0.2330    0.0221
          40    0.1103    0.1802   -0.3378    0.2477   -0.0132    0.1003    0.2484    0.0490
          41   -0.0797   -0.1099   -0.1512   -0.1427   -0.0049    0.1497   -0.1076    0.0789
          42   -0.0269   -0.0768   -0.1499   -0.1737   -0.0233   -0.1599    0.1380   -0.0495
          43   -0.1451   -0.2057    0.0750   -0.2367    0.0043    0.0392   -0.1361    0.0215
          44   -0.0127   -0.0208    0.4405    0.0932    0.0039   -0.2214    0.0726   -0.2230
          45   -0.0216   -0.0683   -0.1138   -0.1222   -0.0110   -0.1416    0.1898   -0.0058
          46   -0.0551   -0.0549    0.3172    0.0328    0.0199    0.0449   -0.2019   -0.0033
          47    0.0200    0.0548   -0.1274    0.0629    0.0017    0.1774   -0.1437    0.0714
          48    0.1336    0.2142    0.1073    0.3929    0.0113    0.0711   -0.1309   -0.0307
          49   -0.0342   -0.0390    0.0015   -0.0514    0.0018   -0.1630    0.3204   -0.1211
          50    0.0179    0.0228   -0.2410    0.0222   -0.0367   -0.0877   -0.0719   -0.2112
          51    0.0046    0.0131    0.0229   -0.1473    0.0041    0.1007   -0.0950    0.1280
          52   -0.0059    0.0001    0.1390   -0.1154    0.0215    0.0719    0.0578    0.1318
          53    0.0058    0.0119   -0.0385   -0.1607   -0.0173    0.0574   -0.0779   -0.0545
          54   -0.0425   -0.0491    0.1056   -0.3073    0.0034    0.0039    0.2226    0.0211
          55    0.0252    0.0344   -0.0503   -0.1482   -0.0073    0.0896   -0.1207   -0.0207
          56    0.0311    0.0457   -0.1559    0.0070   -0.0264    0.0264   -0.1986   -0.0713
          57    0.0206    0.0179   -0.3210   -0.2138   -0.0449   -0.0099   -0.1649   -0.2528
          58    0.0288   -0.1019    0.0885    0.0286   -0.0015    0.1975   -0.1192   -0.0420
          59    0.0301   -0.0058   -0.0252   -0.0057    0.0296    0.0480    0.3321    0.4571
          60   -0.0243   -0.0413    0.2532    0.1218    0.0073   -0.0775    0.1881    0.0667
          61   -0.0253    0.0837    0.0277    0.0104   -0.1305    0.0057   -0.0005   -0.0041
          62    0.0281   -0.0928   -0.0315   -0.0080   -0.0770    0.0107    0.0101    0.0199
          63    0.0244   -0.0752    0.0101   -0.0040   -0.2728    0.0115    0.0077    0.0074
          64   -0.0026    0.0088   -0.0102   -0.0004    0.0303    0.0013    0.0003    0.0019
          65   -0.0313    0.1028    0.0023    0.0082    0.2253   -0.0111   -0.0063   -0.0091
          66    0.0017   -0.0007    0.0039   -0.0012   -0.0453    0.0006    0.0017   -0.0008
          67    0.0646   -0.2129   -0.0415   -0.0275    0.2771   -0.0218   -0.0012   -0.0014
          68    0.0135   -0.0440    0.0330   -0.0002    0.1650   -0.0286   -0.0131   -0.0338
          69   -0.0133    0.0474   -0.0546   -0.0004    0.7705   -0.0338   -0.0199   -0.0205
          70    0.0037   -0.0111    0.0023    0.0030   -0.0877    0.0007    0.0052    0.0041
          71   -0.0350    0.1046    0.0341    0.0077   -0.1888    0.0103    0.0017   -0.0027
          72   -0.0180    0.0598    0.0130    0.0086   -0.1667    0.0128    0.0045    0.0081
          73   -0.0391    0.1260    0.0079    0.0125   -0.0692    0.0140   -0.0017    0.0067
          74    0.0195   -0.0665   -0.0269   -0.0060   -0.0764    0.0119    0.0057    0.0141
          75    0.0073   -0.0207    0.0240   -0.0016   -0.2398    0.0042    0.0123    0.0085


   Root No.      41        42        43        44        45        46        47        48

                41 A      42 A      43 A      44 A      45 A      46 A      47 A      48 A   

                   2.9       3.1       3.3       3.4       3.7       4.3       4.9       5.5
  
           1   -0.0796    0.0114   -0.0648   -0.2863    0.0535    0.0512    0.0410    0.1256
           2   -0.0262   -0.0413    0.0475    0.1604   -0.0196   -0.0476   -0.0105   -0.0365
           3    0.0293   -0.0920    0.3347   -0.1656   -0.3487    0.0874   -0.4107    0.1169
           4   -0.0066    0.0523   -0.0752   -0.2882    0.0548    0.1282    0.0633    0.1455
           5   -0.1752   -0.0090   -0.0372   -0.1591    0.0339    0.0773    0.0420    0.0626
           6    0.0653   -0.3317   -0.4320    0.0536    0.0037   -0.0408    0.4111   -0.1843
           7   -0.0517    0.0219   -0.0203   -0.0118   -0.0151    0.3336    0.1229    0.1842
           8   -0.0463    0.0345   -0.0807   -0.3183    0.0494   -0.0075    0.0068   -0.0084
           9   -0.0598    0.2913    0.0104    0.1216    0.3879   -0.0392   -0.3498    0.3143
          10    0.0775   -0.0281    0.0639    0.2846   -0.0646    0.1436    0.0641    0.1414
          11    0.1414    0.0531   -0.0499   -0.1777    0.0411   -0.0905   -0.0385   -0.0641
          12    0.0586   -0.1257    0.5245   -0.1969   -0.2084    0.0013    0.3241   -0.1650
          13    0.0027   -0.0420    0.0717    0.2834   -0.0507    0.0816    0.0486    0.1226
          14    0.0585    0.0025    0.0345    0.1634   -0.0324    0.0200    0.0028   -0.0251
          15    0.0201   -0.2134   -0.4615    0.0646   -0.1103    0.0467   -0.2890    0.0877
          16   -0.1299   -0.0331    0.0076    0.0019    0.0020   -0.0146    0.0054    0.0434
          17    0.0433   -0.0444    0.0805    0.3336   -0.0718    0.0082    0.0029   -0.0309
          18   -0.0936    0.4212    0.1385    0.1041    0.3947   -0.0796    0.3598   -0.0917
          19   -0.0425   -0.0701    0.0629    0.1724   -0.0113   -0.1784   -0.0618   -0.0951
          20   -0.1790   -0.0717    0.0029   -0.1111    0.0454   -0.2370   -0.0791   -0.0911
          21   -0.0097    0.0267   -0.1046    0.0496    0.0937   -0.0200    0.0724   -0.0156
          22    0.2383    0.0248    0.0311    0.1697   -0.0327   -0.0128   -0.0141   -0.0668
          23   -0.3356   -0.1002    0.0491    0.1032   -0.0041   -0.0218    0.0037    0.0690
          24   -0.0196    0.1014    0.1386   -0.0178    0.0035    0.0067   -0.0752    0.0350
          25    0.1901    0.0707   -0.0584   -0.1978    0.0350   -0.0245   -0.0249   -0.0538
          26    0.3782    0.0698    0.0010    0.0555   -0.0096    0.0015   -0.0260   -0.0535
          27   -0.0161    0.0334   -0.1516    0.0566    0.0649   -0.0006   -0.0558    0.0295
          28   -0.1165   -0.0379   -0.0049   -0.0871    0.0296   -0.1846   -0.0606   -0.1159
          29    0.1918    0.0922   -0.0409   -0.0564   -0.0091    0.2744    0.0875    0.1751
          30   -0.0047    0.0377    0.0808   -0.0117    0.0184   -0.0030    0.0256   -0.0047
          31   -0.3493   -0.0903    0.0202   -0.0119    0.0205   -0.2176   -0.0874   -0.1897
          32   -0.0318    0.0253   -0.0468   -0.1899    0.0359   -0.0053    0.0011    0.0064
          33    0.0307   -0.1346   -0.0359   -0.0304   -0.1037    0.0168   -0.0628    0.0133
          34    0.0630    0.0816   -0.0324   -0.0149   -0.0286    0.3122    0.0640    0.0142
          35   -0.0851    0.0229   -0.0056    0.0314   -0.0454    0.0819    0.0211   -0.0115
          36   -0.1539    0.1352   -0.0396    0.0319   -0.0049    0.2557   -0.1694   -0.3141
          37    0.0486   -0.0629    0.0380    0.0209    0.0691   -0.0003    0.0077    0.0176
          38    0.1159   -0.0823    0.0436    0.0135    0.0949    0.0057    0.0001    0.0322
          39   -0.0858    0.1089   -0.0602   -0.0290   -0.1302   -0.0175    0.0089   -0.0488
          40    0.1079   -0.1396    0.1063    0.0791    0.2537   -0.0923   -0.1818   -0.1562
          41   -0.0722    0.0381   -0.0191   -0.0016   -0.0417   -0.0091    0.0044    0.0013
          42    0.0342   -0.0147    0.0030   -0.0065    0.0011    0.0399    0.0248    0.0230
          43   -0.0597    0.0507   -0.0281   -0.0101   -0.0631    0.0099    0.0243    0.0219
          44    0.2212   -0.1287    0.0721    0.0017    0.2288   -0.0052   -0.1356   -0.1552
          45    0.0371   -0.0477    0.0242    0.0117    0.0487    0.0113   -0.0106   -0.0063
          46   -0.0605    0.0993   -0.0496   -0.0189   -0.1083   -0.0234    0.0435    0.0584
          47   -0.0895    0.0854   -0.0399   -0.0061   -0.0879   -0.0071    0.0256    0.0308
          48   -0.0200    0.1333   -0.0717   -0.0287   -0.2121   -0.1581    0.1369    0.2108
          49    0.0907    0.3952   -0.1458    0.0579   -0.3565   -0.1772   -0.0494   -0.2420
          50    0.0860    0.2338   -0.0799    0.0115   -0.1553   -0.0067   -0.0451   -0.1787
          51   -0.1042   -0.2039    0.0596   -0.0062    0.1621    0.3447   -0.0377   -0.2387
          52   -0.0550   -0.1265    0.0376    0.0044    0.0557    0.0915   -0.0068   -0.0891
          53    0.1029   -0.1562    0.0505   -0.0412    0.0749   -0.2151    0.0740    0.2857
          54    0.0932   -0.0518    0.0087    0.0045   -0.0612   -0.2032    0.0297    0.0369
          55    0.0668   -0.1879    0.0589   -0.0330    0.0962   -0.1222    0.0572    0.2006
          56   -0.0103   -0.0053   -0.0041   -0.0160    0.0504    0.2019   -0.0437   -0.1925
          57    0.2008   -0.0159    0.0012   -0.0348   -0.0134   -0.1932    0.0339    0.1117
          58    0.0671    0.0095   -0.0179   -0.1161    0.0641   -0.1032   -0.0562   -0.0680
          59   -0.2969   -0.0213    0.0240    0.2039   -0.1759   -0.0137    0.1074    0.1852
          60    0.0008   -0.0618    0.0296    0.0264    0.0162   -0.0551    0.0333    0.0901
          61    0.0088   -0.0088   -0.0072    0.0011    0.0028   -0.0036    0.0037   -0.0025
          62   -0.0218    0.0164    0.0067    0.0020   -0.0110    0.0060   -0.0029    0.0030
          63   -0.0091    0.0080    0.0041   -0.0000   -0.0037    0.0026   -0.0018    0.0013
          64   -0.0014    0.0015    0.0006   -0.0000   -0.0013    0.0003   -0.0007    0.0008
          65    0.0089   -0.0054   -0.0047    0.0006    0.0009   -0.0015    0.0009   -0.0007
          66    0.0000    0.0022    0.0018   -0.0006    0.0000   -0.0019    0.0001    0.0006
          67   -0.0103    0.0153    0.0150   -0.0058   -0.0014    0.0023   -0.0067    0.0048
          68    0.0264   -0.0125   -0.0052   -0.0037    0.0114   -0.0036    0.0001   -0.0054
          69    0.0184   -0.0096   -0.0067   -0.0003    0.0047   -0.0028    0.0025   -0.0031
          70   -0.0012    0.0008   -0.0036    0.0016   -0.0021   -0.0002    0.0029   -0.0032
          71    0.0068   -0.0045   -0.0021   -0.0007    0.0023   -0.0039    0.0013   -0.0003
          72   -0.0005   -0.0037   -0.0045    0.0043   -0.0010   -0.0008    0.0047   -0.0040
          73    0.0026   -0.0077   -0.0056    0.0050   -0.0015    0.0008    0.0019    0.0011
          74   -0.0112    0.0090    0.0036    0.0010   -0.0054   -0.0013   -0.0003    0.0028
          75   -0.0113    0.0072    0.0085   -0.0003   -0.0020    0.0028   -0.0049    0.0052


   Root No.      49        50        51        52        53        54        55        56

                49 A      50 A      51 A      52 A      53 A      54 A      55 A      56 A   

                   6.0       6.8       6.8       7.6       7.8       8.2       8.3       8.8
  
           1    0.0504   -0.0894   -0.2075   -0.1395    0.1911   -0.0610   -0.0024   -0.1007
           2   -0.1992    0.0211    0.0578    0.1258    0.0638   -0.1284    0.0015   -0.2573
           3   -0.0138    0.0067    0.0092   -0.0010   -0.0024   -0.0033    0.0008   -0.0006
           4   -0.0722   -0.0753   -0.1726   -0.0731    0.1669   -0.0744   -0.0009   -0.1424
           5   -0.1930   -0.0035    0.0038    0.1882   -0.2601   -0.0620    0.0015   -0.0385
           6    0.0209   -0.0215   -0.0329    0.0236    0.0130    0.0265   -0.0051   -0.0043
           7   -0.0231    0.0276    0.0690    0.1961    0.0251   -0.1443   -0.0001   -0.1203
           8   -0.2789   -0.0247   -0.0504    0.0537   -0.2167    0.0184    0.0019    0.0481
           9   -0.0373    0.0391    0.0966   -0.0598   -0.0235   -0.0571    0.0018    0.0298
          10    0.0798   -0.0576   -0.1490   -0.0349   -0.2075    0.0717    0.0011   -0.0012
          11   -0.1772   -0.0367   -0.0843   -0.0581   -0.2680    0.1136    0.0026    0.1581
          12    0.0125   -0.0124   -0.0302    0.0195    0.0064    0.0182   -0.0002   -0.0020
          13    0.0078   -0.0740   -0.1943   -0.0651   -0.3081    0.1250    0.0022   -0.0132
          14   -0.2986   -0.0375   -0.0721   -0.1666    0.3605   -0.0275   -0.0046    0.1396
          15   -0.0093    0.0036    0.0067   -0.0014    0.0005    0.0004    0.0005    0.0011
          16   -0.0205   -0.0812   -0.1956   -0.2506    0.1003    0.1082   -0.0034    0.2278
          17   -0.3039   -0.0091   -0.0155    0.0016    0.0887   -0.0362   -0.0007   -0.0644
          18    0.0100   -0.0040   -0.0073    0.0008    0.0018    0.0026   -0.0003    0.0009
          19    0.1765    0.0323    0.0710   -0.0174   -0.0761    0.0724    0.0002    0.1132
          20    0.3606    0.0360    0.0743   -0.0350   -0.1392    0.1139   -0.0000    0.1834
          21    0.0026   -0.0005    0.0001   -0.0006    0.0004    0.0004   -0.0007    0.0007
          22   -0.1481    0.0367    0.1016    0.1226   -0.1468   -0.0090    0.0004    0.0084
          23    0.3169   -0.0379   -0.1031   -0.1879    0.2803    0.0104   -0.0015   -0.0246
          24   -0.0054    0.0072    0.0057   -0.0026   -0.0037   -0.0046    0.0018    0.0011
          25    0.1328    0.0575    0.1381    0.0582    0.1595   -0.0667   -0.0009   -0.0550
          26    0.2778    0.0801    0.1914    0.0553    0.3139   -0.1057   -0.0025   -0.0940
          27   -0.0003    0.0028    0.0074   -0.0036    0.0006   -0.0046    0.0006    0.0003
          28   -0.2104    0.0078    0.0277   -0.0367    0.1434   -0.0246   -0.0012    0.0391
          29    0.3949   -0.0068   -0.0336    0.0602   -0.2584    0.0503    0.0019   -0.0454
          30    0.0016    0.0006    0.0007   -0.0003   -0.0010   -0.0005    0.0008   -0.0000
          31    0.0441    0.1362    0.3260    0.2944   -0.1047   -0.1009    0.0033   -0.1742
          32    0.0483   -0.0007   -0.0016   -0.0079    0.0250   -0.0065   -0.0005    0.0017
          33   -0.0019    0.0011    0.0017    0.0005   -0.0002   -0.0008    0.0001   -0.0007
          34   -0.0400    0.1219    0.2975    0.2029    0.1638    0.0366    0.0006    0.2476
          35   -0.0713    0.0964    0.1355   -0.1064    0.0403    0.4682   -0.0010   -0.1687
          36    0.0368   -0.0735   -0.2291    0.3729    0.1766    0.4504   -0.0033    0.0288
          37   -0.0278    0.0650    0.1485   -0.0286    0.0324    0.0962    0.0012    0.5399
          38   -0.0239    0.0857    0.1723   -0.1772    0.0115    0.3324    0.0075   -0.2659
          39    0.0294   -0.0866   -0.2004    0.2149    0.0349   -0.0962    0.0061    0.0020
          40    0.0714   -0.1110   -0.2574    0.0465   -0.0293   -0.0607   -0.0007   -0.3780
          41    0.0002   -0.0050   -0.0123    0.0071   -0.0011   -0.0084    0.0000    0.0378
          42   -0.0137    0.0246    0.0593   -0.0130    0.0062    0.0126   -0.0001    0.0339
          43   -0.0042    0.0112    0.0214   -0.0169    0.0026    0.0281    0.0009   -0.0644
          44    0.0536   -0.1111   -0.2148    0.1716   -0.0047   -0.2596   -0.0056    0.2392
          45   -0.0043    0.0050    0.0104   -0.0083   -0.0013    0.0076   -0.0004    0.0169
          46   -0.0106    0.0169    0.0417   -0.0418   -0.0124   -0.0108   -0.0019   -0.0535
          47   -0.0060    0.0095    0.0186   -0.0147   -0.0052   -0.0111   -0.0006   -0.0080
          48   -0.0362    0.0664    0.1654   -0.1785   -0.0563   -0.0550   -0.0035   -0.0731
          49    0.0522   -0.0430   -0.0934   -0.1181   -0.0605   -0.0729   -0.0011   -0.0293
          50    0.0346   -0.0214   -0.0273   -0.0932   -0.0504   -0.1116    0.0001    0.0058
          51   -0.0029    0.0516    0.1512   -0.3288   -0.1277   -0.2295    0.0006   -0.0173
          52   -0.0033    0.0243    0.0585   -0.1596   -0.0566   -0.0716    0.0019   -0.0207
          53   -0.0205   -0.0130   -0.0377    0.2034    0.0777    0.1195    0.0017    0.0119
          54    0.0035   -0.0066   -0.0133   -0.0736   -0.0308   -0.0093    0.0006   -0.0334
          55   -0.0140   -0.0011   -0.0064    0.1194    0.0485    0.0645    0.0007    0.0128
          56    0.0093    0.0196    0.0678   -0.1970   -0.0811   -0.1741   -0.0006    0.0082
          57    0.0087   -0.0163   -0.0225    0.0434    0.0068   -0.0392   -0.0006    0.0209
          58   -0.0408   -0.0051   -0.0250   -0.0603   -0.0302    0.0939   -0.0011   -0.0368
          59    0.0747   -0.0443   -0.0639    0.1761    0.0225   -0.2882    0.0017    0.1299
          60   -0.0019    0.0086    0.0244   -0.0052   -0.0011   -0.0165   -0.0008   -0.0058
          61   -0.0011    0.2451   -0.1032    0.0000   -0.0013   -0.0100   -0.2733    0.0022
          62    0.0044   -0.2992    0.1224    0.0002    0.0005   -0.0136   -0.2124    0.0098
          63    0.0028   -0.3383    0.1423   -0.0006    0.0032    0.0196    0.4077   -0.0051
          64    0.0009   -0.1367    0.0579    0.0001    0.0013    0.0114    0.2447   -0.0035
          65    0.0015   -0.1527    0.0646   -0.0005    0.0024    0.0151    0.2919   -0.0049
          66   -0.0016    0.2151   -0.0915    0.0010   -0.0025   -0.0184   -0.3847    0.0061
          67   -0.0031    0.0365   -0.0155    0.0022   -0.0026   -0.0049    0.0352    0.0011
          68    0.0011   -0.0287    0.0148   -0.0020    0.0013    0.0128   -0.0866   -0.0035
          69    0.0007    0.0113   -0.0039   -0.0010    0.0010    0.0038   -0.0366   -0.0010
          70   -0.0009    0.2465   -0.1087   -0.0001    0.0024   -0.0227    0.2875    0.0088
          71   -0.0006    0.0878   -0.0384   -0.0000    0.0013   -0.0064    0.1261    0.0031
          72   -0.0005    0.2854   -0.1245   -0.0013    0.0030   -0.0264    0.3325    0.0106
          73    0.0042   -0.3910    0.1697    0.0003   -0.0011    0.0265   -0.2928   -0.0075
          74   -0.0048    0.3961   -0.1680    0.0033   -0.0049   -0.0154   -0.1216   -0.0013
          75   -0.0003   -0.1697    0.0746    0.0029   -0.0039    0.0193   -0.3177   -0.0097


   Root No.      57        58        59        60        61        62        63        64

                57 A      58 A      59 A      60 A      61 A      62 A      63 A      64 A   

                   9.0       9.4       9.8      10.1      10.8      13.6      14.6      16.0
  
           1    0.0025    0.1636    0.0174   -0.0868    0.0939    0.3820    0.1221    0.3758
           2    0.0076    0.3021    0.0325   -0.0890    0.2258   -0.2173    0.3043    0.1098
           3    0.0001    0.0010    0.0005   -0.0012   -0.0011   -0.0060    0.0002    0.0002
           4    0.0046    0.1769    0.0178   -0.0501    0.1480   -0.3455   -0.1669   -0.2128
           5    0.0056   -0.0912   -0.0127   -0.0042   -0.3865   -0.1939    0.2675    0.3979
           6   -0.0125   -0.0011   -0.0041   -0.0076    0.0034   -0.0055    0.0011    0.0006
           7    0.0055   -0.0472   -0.0180    0.0358   -0.3912   -0.0565   -0.3353   -0.3468
           8   -0.0007   -0.0403    0.0018   -0.0113   -0.0242    0.4272   -0.0033   -0.2648
           9    0.0432    0.0100   -0.0030    0.0235    0.0054    0.0147    0.0006   -0.0000
          10   -0.0002    0.0424    0.0058   -0.0090    0.0196    0.3215   -0.3307    0.3954
          11   -0.0030   -0.0785    0.0135   -0.0550    0.3931   -0.2092   -0.2914   -0.0525
          12   -0.0107   -0.0009    0.0013   -0.0066    0.0011   -0.0068   -0.0017    0.0000
          13    0.0016    0.0957    0.0109    0.0075    0.1129   -0.2940    0.1859   -0.1348
          14   -0.0037   -0.2092   -0.0247    0.0415   -0.1750   -0.2090   -0.3520    0.2820
          15   -0.0001   -0.0001    0.0006   -0.0007    0.0001   -0.0055    0.0000    0.0003
          16   -0.0062   -0.2405   -0.0277    0.0613   -0.1875   -0.0419    0.4790   -0.1843
          17    0.0006    0.0813    0.0062   -0.0034    0.0337    0.4248    0.0834   -0.3599
          18   -0.0010   -0.0015   -0.0003    0.0003   -0.0009    0.0110    0.0005   -0.0009
          19   -0.0035   -0.1177   -0.0117    0.0387   -0.0480    0.0091   -0.0463   -0.0552
          20   -0.0052   -0.1984   -0.0190    0.0580   -0.1041   -0.0105   -0.0932   -0.0407
          21    0.0003   -0.0003   -0.0011    0.0005    0.0004    0.0004   -0.0002   -0.0004
          22    0.0012   -0.0506   -0.0053    0.0085   -0.0941   -0.0149    0.0498    0.0482
          23   -0.0013    0.0950    0.0095   -0.0125    0.1753   -0.0099   -0.0835   -0.0880
          24    0.0022   -0.0006    0.0015    0.0018   -0.0014    0.0001    0.0005    0.0006
          25    0.0011    0.0139   -0.0036    0.0109   -0.0812    0.0133    0.0685   -0.0383
          26    0.0018    0.0298   -0.0082    0.0254   -0.1519   -0.0046    0.1086   -0.0131
          27    0.0018    0.0004    0.0004    0.0020   -0.0007    0.0005    0.0008   -0.0000
          28   -0.0012   -0.0540   -0.0049    0.0038   -0.0126   -0.0162   -0.0392    0.0129
          29    0.0014    0.0727    0.0081   -0.0073    0.0363   -0.0032    0.0727   -0.0245
          30    0.0002    0.0001    0.0012    0.0004    0.0004    0.0002    0.0000    0.0000
          31    0.0045    0.1558    0.0168   -0.0341    0.0939    0.0118   -0.1447    0.0356
          32   -0.0001   -0.0032   -0.0000   -0.0036   -0.0038    0.0119   -0.0033    0.0231
          33    0.0002    0.0007    0.0001    0.0002    0.0005   -0.0005   -0.0004    0.0001
          34   -0.0158   -0.3900   -0.0248    0.1239    0.4994    0.0452    0.1601    0.0942
          35   -0.0218    0.2152   -0.0428    0.6295   -0.0396   -0.0075   -0.0203    0.0492
          36   -0.2657    0.0386    0.0470   -0.2907   -0.0677   -0.0062   -0.0063   -0.0067
          37    0.1856    0.4863    0.0365   -0.1991   -0.1297   -0.0220   -0.0017    0.0074
          38    0.3520   -0.1903    0.0595   -0.4956   -0.0388    0.0019    0.0015   -0.0071
          39    0.6881   -0.0454   -0.0444    0.2928    0.0540    0.0070   -0.0024   -0.0001
          40   -0.0727   -0.2715   -0.0169    0.0691    0.0342    0.0049   -0.0047   -0.0051
          41   -0.0121    0.0465   -0.0004    0.0107   -0.0165   -0.0018   -0.0030   -0.0008
          42   -0.0293    0.0034    0.0014   -0.0068    0.0146    0.0015    0.0046    0.0023
          43    0.0355   -0.0596    0.0030   -0.0366    0.0088    0.0004    0.0015   -0.0007
          44   -0.2319    0.1440   -0.0225    0.1709    0.0023   -0.0025   -0.0010    0.0001
          45   -0.0562    0.0283   -0.0015    0.0323   -0.0029   -0.0004   -0.0004    0.0018
          46   -0.1789   -0.0447   -0.0001    0.0015    0.0117    0.0007    0.0014    0.0005
          47   -0.1448   -0.0047   -0.0003    0.0144    0.0040    0.0003    0.0005    0.0005
          48   -0.4137   -0.0390    0.0040   -0.0132    0.0052    0.0007    0.0006   -0.0001
          49    0.0496    0.0611    0.0026   -0.0492   -0.0513   -0.0081   -0.0094   -0.0098
          50    0.0345    0.0041    0.0036   -0.0593   -0.0126   -0.0025    0.0015    0.0045
          51    0.0187    0.0018   -0.0079    0.0177    0.0045    0.0004   -0.0063   -0.0154
          52    0.0046    0.0245   -0.0030    0.0279   -0.0054   -0.0038    0.0104    0.0219
          53   -0.0129   -0.0223    0.0037    0.0192    0.0087    0.0035   -0.0114   -0.0217
          54    0.0059    0.0474   -0.0001    0.0222   -0.0304   -0.0062    0.0026    0.0159
          55   -0.0134   -0.0196    0.0019    0.0150    0.0133    0.0000   -0.0015   -0.0053
          56    0.0258   -0.0130   -0.0044   -0.0464    0.0159    0.0024    0.0151    0.0156
          57    0.0059   -0.0224    0.0028   -0.0519    0.0100    0.0007    0.0064    0.0028
          58   -0.0035    0.0758   -0.0010    0.0593   -0.0342    0.0140    0.0014    0.0008
          59    0.0056   -0.1362    0.0029   -0.1748    0.0556   -0.0007    0.0068   -0.0098
          60    0.0222   -0.0192   -0.0020   -0.0137    0.0050   -0.0006   -0.0001   -0.0010
          61    0.0035   -0.0034    0.0373    0.0018    0.0011    0.0004   -0.0006   -0.0007
          62    0.0053   -0.0292    0.5475    0.0601   -0.0128   -0.0007    0.0012    0.0012
          63   -0.0059    0.0103   -0.1376   -0.0115    0.0014    0.0002   -0.0002   -0.0001
          64   -0.0037    0.0087   -0.1414   -0.0138    0.0022    0.0002   -0.0001   -0.0001
          65   -0.0041    0.0116   -0.1807   -0.0176    0.0033    0.0004   -0.0005   -0.0004
          66    0.0058   -0.0144    0.2285    0.0221   -0.0042   -0.0003    0.0004    0.0005
          67   -0.0017   -0.0011   -0.0132   -0.0023   -0.0020   -0.0010    0.0014    0.0018
          68    0.0073    0.0002    0.0615    0.0096   -0.0017    0.0006   -0.0011   -0.0012
          69    0.0020    0.0007    0.0103    0.0020    0.0005    0.0005   -0.0007   -0.0008
          70   -0.0012   -0.0142    0.2078    0.0212   -0.0051   -0.0003    0.0006    0.0009
          71    0.0002   -0.0066    0.1125    0.0120   -0.0031    0.0002    0.0002    0.0002
          72   -0.0030   -0.0168    0.2562    0.0266   -0.0057    0.0003    0.0005    0.0006
          73    0.0022    0.0093   -0.0862   -0.0049    0.0031    0.0005   -0.0011   -0.0016
          74   -0.0062    0.0207   -0.5470   -0.0712    0.0163    0.0002    0.0005    0.0005
          75    0.0017    0.0191   -0.3540   -0.0406    0.0084   -0.0002   -0.0002   -0.0001


   Root No.      65        66        67        68        69

                65 A      66 A      67 A      68 A      69 A   

                  16.7      20.0      20.1      20.8      24.4
  
           1    0.1095   -0.2754   -0.1853    0.3309   -0.0096
           2    0.3962    0.2590    0.2224   -0.0120    0.0022
           3    0.0002   -0.0001    0.0001    0.0006   -0.0003
           4   -0.4034    0.0904    0.0328   -0.4108    0.0137
           5   -0.2041   -0.1818   -0.1619   -0.2098   -0.0072
           6   -0.0018    0.0017   -0.0016    0.0000    0.0063
           7    0.4083   -0.0536   -0.1014    0.1683    0.0065
           8   -0.1430    0.3787    0.3615    0.2255    0.0178
           9    0.0002    0.0043   -0.0030    0.0012    0.0065
[...]
 TRAVEL (Ang.)       0.3308         C  5 -- C  6          +6.7% ( 28.6%)      0.0%
 REDUCED MASS        0.6485         C  2 -- C  3          +5.3% ( 25.5%)      0.0%
 EFFECTIVE MASS      4.6538
 FORCE CONSTANT      0.3448

 VIBRATION         36   36A           ATOM PAIR      ENERGY CONTRIBUTION    RADIAL
 FREQUENCY           971.00         C  4 -- H  9         +63.6% ( 89.4%)      0.0%
 TRANSITION DIPOLE   0.6060         C  3 -- C  4         +13.3% ( 40.9%)      0.0%
 TRAVEL (Ang.)       0.2290         C  4 -- C  5         +10.5% ( 36.4%)      0.0%
 REDUCED MASS        1.3239         C  2 -- C  3          +2.5% ( 17.7%)      0.1%
 EFFECTIVE MASS      4.2952
 FORCE CONSTANT      0.7354

 VIBRATION         37   37A           ATOM PAIR      ENERGY CONTRIBUTION    RADIAL
 FREQUENCY           998.01         H 23 -- O 25         +14.3% ( 55.2%)     81.5%
 TRANSITION DIPOLE   3.2205         O 21 -- H 23          +9.9% ( 46.0%)      0.0%
 TRAVEL (Ang.)       0.2634         C  2 -- C  3          +7.8% ( 40.9%)      5.4%
 REDUCED MASS        0.9735         C  3 -- C  4          +7.7% ( 40.6%)      7.1%
 EFFECTIVE MASS      9.3739
 FORCE CONSTANT      0.5713

 VIBRATION         38   38A           ATOM PAIR      ENERGY CONTRIBUTION    RADIAL
 FREQUENCY          1003.40         H 23 -- O 25         +10.7% ( 49.7%)     84.5%
 TRANSITION DIPOLE   3.8770         C  3 -- C  4          +9.4% ( 46.5%)     10.0%
 TRAVEL (Ang.)       0.2601         C  2 -- C  3          +9.4% ( 46.5%)      6.8%
 REDUCED MASS        0.9932         C  4 -- C  5          +8.9% ( 45.3%)      0.8%
 EFFECTIVE MASS     10.0849
 FORCE CONSTANT      0.5892

 VIBRATION         39   39A           ATOM PAIR      ENERGY CONTRIBUTION    RADIAL
 FREQUENCY          1023.63         C  1 -- H  7         +29.2% ( 60.6%)      0.0%
 TRANSITION DIPOLE   0.9696         C  2 -- H  8         +15.9% ( 44.7%)      0.1%
 TRAVEL (Ang.)       0.2961         C  1 -- C  2         +11.2% ( 37.5%)      0.0%
 REDUCED MASS        0.7513         C  1 -- C  6          +9.3% ( 34.2%)      0.0%
 EFFECTIVE MASS      4.6386
 FORCE CONSTANT      0.4638

 VIBRATION         40   40A           ATOM PAIR      ENERGY CONTRIBUTION    RADIAL
 FREQUENCY          1102.75         C 13 -- H 15         +22.3% ( 65.3%)     21.8%
 TRANSITION DIPOLE   0.5152         C 12 -- C 13         +17.1% ( 57.1%)      0.5%
 TRAVEL (Ang.)       0.2460         C 13 -- H 16         +14.2% ( 51.9%)      7.8%
 REDUCED MASS        1.0103         C 13 -- H 14         +11.7% ( 47.2%)      1.9%
 EFFECTIVE MASS      5.6555
 FORCE CONSTANT      0.7239

 VIBRATION         41   41A           ATOM PAIR      ENERGY CONTRIBUTION    RADIAL
 FREQUENCY          1125.71         C 12 -- C 13         +25.1% ( 80.2%)     65.3%
 TRANSITION DIPOLE   1.1042         C 12 -- N 17         +14.2% ( 60.2%)     61.6%
 TRAVEL (Ang.)       0.1370         C 12 -- H 20         +14.1% ( 60.2%)      2.3%
 REDUCED MASS        3.1935         C  3 -- C 12         +13.7% ( 59.2%)      3.6%
 EFFECTIVE MASS      9.1879         C 13 -- H 14         +11.3% ( 53.8%)      0.5%
 FORCE CONSTANT      2.3844

 VIBRATION         42   42A           ATOM PAIR      ENERGY CONTRIBUTION    RADIAL
 FREQUENCY          1149.68         H 23 -- O 25         +31.8% ( 65.1%)     24.4%
 TRANSITION DIPOLE   2.1909         O 21 -- H 23         +28.8% ( 62.0%)      5.2%
 TRAVEL (Ang.)       0.3788         C 12 -- C 13          +6.5% ( 29.6%)     95.0%
 REDUCED MASS        0.4088         H 24 -- O 25          +5.3% ( 26.6%)      0.0%
 EFFECTIVE MASS      3.0413
 FORCE CONSTANT      0.3184

 VIBRATION         43   43A           ATOM PAIR      ENERGY CONTRIBUTION    RADIAL
 FREQUENCY          1164.04         C 12 -- C 13         +18.6% ( 66.3%)     66.5%
 TRANSITION DIPOLE   0.8522         C 12 -- H 20         +12.1% ( 53.5%)      0.3%
 TRAVEL (Ang.)       0.1888         C 12 -- N 17         +11.4% ( 51.8%)      3.2%
 REDUCED MASS        1.6246         C  3 -- C 12         +10.1% ( 48.7%)     71.4%
 EFFECTIVE MASS      8.2910
 FORCE CONSTANT      1.2970

 VIBRATION         44   44A           ATOM PAIR      ENERGY CONTRIBUTION    RADIAL
 FREQUENCY          1201.58         C  6 -- H 11         +24.3% ( 62.4%)      0.8%
 TRANSITION DIPOLE   0.3419         C  4 -- H  9         +10.4% ( 40.8%)     25.6%
 TRAVEL (Ang.)       0.3895         C  2 -- H  8         +10.1% ( 40.2%)      3.9%
 REDUCED MASS        0.3699         C  4 -- C  5          +7.6% ( 34.9%)     99.8%
 EFFECTIVE MASS      4.6286
 FORCE CONSTANT      0.3147

 VIBRATION         45   45A           ATOM PAIR      ENERGY CONTRIBUTION    RADIAL
 FREQUENCY          1209.14         C  4 -- H  9         +14.0% ( 48.4%)      0.2%
 TRANSITION DIPOLE   0.7540         C  5 -- C  6         +12.8% ( 46.3%)     94.9%
 TRAVEL (Ang.)       0.3863         C  6 -- H 11         +11.9% ( 44.6%)     30.4%
 REDUCED MASS        0.3736         C  2 -- H  8         +11.2% ( 43.2%)      6.8%
 EFFECTIVE MASS      5.1756         C  1 -- H  7         +10.8% ( 42.5%)     17.1%
 FORCE CONSTANT      0.3218

 VIBRATION         46   46A           ATOM PAIR      ENERGY CONTRIBUTION    RADIAL
 FREQUENCY          1238.11         C  2 -- H  8         +27.7% ( 62.5%)      0.2%
 TRANSITION DIPOLE   0.2607         C  6 -- H 11         +19.5% ( 52.4%)      1.1%
 TRAVEL (Ang.)       0.4328         C  1 -- H  7         +19.1% ( 51.8%)      0.2%
 REDUCED MASS        0.2907         C  3 -- C  4          +7.0% ( 31.4%)     96.0%
 EFFECTIVE MASS      2.6834
 FORCE CONSTANT      0.2626

 VIBRATION         47   47A           ATOM PAIR      ENERGY CONTRIBUTION    RADIAL
 FREQUENCY          1246.45         C 13 -- H 15         +44.1% ( 57.9%)      0.0%
 TRANSITION DIPOLE   0.7139         C 13 -- H 16         +21.3% ( 40.3%)      8.0%
 TRAVEL (Ang.)       0.3959         C 13 -- H 14         +21.0% ( 40.0%)      4.9%
 REDUCED MASS        0.3451         C 12 -- C 13          +3.0% ( 15.0%)      6.7%
 EFFECTIVE MASS      1.5829
 FORCE CONSTANT      0.3159

 VIBRATION         48   48A           ATOM PAIR      ENERGY CONTRIBUTION    RADIAL
 FREQUENCY          1259.72         C 13 -- H 16         +43.5% ( 56.4%)      0.3%
 TRANSITION DIPOLE   0.2837         C 13 -- H 14         +32.6% ( 48.8%)      1.8%
 TRAVEL (Ang.)       0.3854         C 13 -- H 15         +17.3% ( 35.6%)     19.0%
 REDUCED MASS        0.3604         C 12 -- C 13          +3.3% ( 15.6%)      2.2%
 EFFECTIVE MASS      1.4107
 FORCE CONSTANT      0.3370

 VIBRATION         49   49A           ATOM PAIR      ENERGY CONTRIBUTION    RADIAL
 FREQUENCY          1319.98         C  4 -- H  9         +25.0% ( 64.1%)      0.7%
 TRANSITION DIPOLE   0.7379         C  1 -- H  7         +11.3% ( 43.1%)     12.2%
 TRAVEL (Ang.)       0.3266         C  4 -- C  5          +9.9% ( 40.3%)     55.3%
 REDUCED MASS        0.4788         C  1 -- C  6          +9.7% ( 39.9%)     95.0%
 EFFECTIVE MASS      5.3285
 FORCE CONSTANT      0.4915

 VIBRATION         50   50A           ATOM PAIR      ENERGY CONTRIBUTION    RADIAL
 FREQUENCY          1340.11         C  3 -- C 12         +16.0% ( 55.4%)     97.9%
 TRANSITION DIPOLE   0.8777         C  2 -- C  3         +11.4% ( 46.8%)     81.0%
 TRAVEL (Ang.)       0.2258         C  3 -- C  4         +11.2% ( 46.4%)     38.7%
 REDUCED MASS        0.9868         C  1 -- C  2          +8.8% ( 41.1%)     83.9%
 EFFECTIVE MASS      8.0424
 FORCE CONSTANT      1.0442

 VIBRATION         51   51A           ATOM PAIR      ENERGY CONTRIBUTION    RADIAL
 FREQUENCY          1374.39         C 13 -- H 14         +25.0% ( 51.7%)      0.8%
 TRANSITION DIPOLE   0.8565         C 13 -- H 15         +19.6% ( 45.7%)      0.8%
 TRAVEL (Ang.)       0.3902         C 13 -- H 16         +18.5% ( 44.5%)      0.9%
 REDUCED MASS        0.3223         C  3 -- C 12          +7.9% ( 29.0%)     80.5%
 EFFECTIVE MASS      2.9361
 FORCE CONSTANT      0.3587

 VIBRATION         52   52A           ATOM PAIR      ENERGY CONTRIBUTION    RADIAL
 FREQUENCY          1415.72         C  1 -- C  2         +13.6% ( 56.4%)     98.2%
 TRANSITION DIPOLE   1.1215         C  1 -- C  6         +12.4% ( 54.0%)     95.2%
 TRAVEL (Ang.)       0.1971         C  3 -- C  4         +10.7% ( 50.1%)     99.7%
 REDUCED MASS        1.2265         C  2 -- C  3          +9.9% ( 48.1%)     97.8%
 EFFECTIVE MASS      8.7865
 FORCE CONSTANT      1.4484

 VIBRATION         53   53A           ATOM PAIR      ENERGY CONTRIBUTION    RADIAL
 FREQUENCY          1419.95         H 23 -- O 25         +42.8% ( 86.4%)     11.7%
 TRANSITION DIPOLE   2.1245         O 21 -- H 23         +42.0% ( 85.6%)     11.5%
 TRAVEL (Ang.)       0.2719         H 24 -- O 25          +3.2% ( 23.5%)     50.4%
 REDUCED MASS        0.6424         C  1 -- C  2          +1.6% ( 16.7%)     98.1%
 EFFECTIVE MASS      1.9795
 FORCE CONSTANT      0.7631

 VIBRATION         54   54A           ATOM PAIR      ENERGY CONTRIBUTION    RADIAL
 FREQUENCY          1497.70         N 17 -- O 18         +32.4% ( 77.0%)     69.4%
 TRANSITION DIPOLE   3.6625         N 17 -- O 19         +29.9% ( 74.1%)     65.3%
 TRAVEL (Ang.)       0.0968         O 18 -- O 19         +19.9% ( 60.3%)    100.0%
 REDUCED MASS        4.8029         C 12 -- N 17         +13.8% ( 50.3%)     99.8%
 EFFECTIVE MASS     14.8523
 FORCE CONSTANT      6.3475

 VIBRATION         55   55A           ATOM PAIR      ENERGY CONTRIBUTION    RADIAL
 FREQUENCY          1514.82         C  5 -- C  6         +12.3% ( 49.3%)     30.4%
 TRANSITION DIPOLE   2.0741         C  4 -- C  5         +12.2% ( 49.1%)     98.4%
 TRAVEL (Ang.)       0.1761         C  1 -- C  6         +12.2% ( 49.0%)     28.3%
 REDUCED MASS        1.4350         C  6 -- H 11         +11.4% ( 47.5%)      0.0%
 EFFECTIVE MASS      9.8952         C  1 -- C  2         +10.4% ( 45.4%)     99.4%
 FORCE CONSTANT      1.9401

 VIBRATION         56   56A           ATOM PAIR      ENERGY CONTRIBUTION    RADIAL
 FREQUENCY          1553.95         C  2 -- C  3         +17.8% ( 59.0%)     67.4%
 TRANSITION DIPOLE   0.8174         C  3 -- C  4         +13.0% ( 50.4%)     59.5%
 TRAVEL (Ang.)       0.1700         C  5 -- C  6          +9.2% ( 42.4%)     78.2%
 REDUCED MASS        1.5017         C  1 -- C  2          +8.9% ( 41.7%)      3.0%
 EFFECTIVE MASS      9.9887
 FORCE CONSTANT      2.1365

 VIBRATION         57   57A           ATOM PAIR      ENERGY CONTRIBUTION    RADIAL
 FREQUENCY          1678.16         N 17 -- O 19         +26.2% ( 72.5%)     89.4%
 TRANSITION DIPOLE   8.1531         N 17 -- O 18         +25.3% ( 71.3%)     88.5%
 TRAVEL (Ang.)       0.1041         C 12 -- N 17         +15.3% ( 55.5%)      0.0%
 REDUCED MASS        3.7091         C  3 -- C  4          +5.7% ( 33.7%)    100.0%
 EFFECTIVE MASS     13.8176
 FORCE CONSTANT      6.1543

 VIBRATION         58   58A           ATOM PAIR      ENERGY CONTRIBUTION    RADIAL
 FREQUENCY          1682.93         C  3 -- C  4         +14.2% ( 53.5%)     98.9%
 TRANSITION DIPOLE   6.6706         C  1 -- C  6         +11.8% ( 48.8%)     99.9%
 TRAVEL (Ang.)       0.1452         N 17 -- O 19         +10.4% ( 45.7%)     89.5%
 REDUCED MASS        1.9010         N 17 -- O 18          +9.9% ( 44.6%)     87.9%
 EFFECTIVE MASS     12.7023
 FORCE CONSTANT      3.1723

 VIBRATION         59   59A           ATOM PAIR      ENERGY CONTRIBUTION    RADIAL
 FREQUENCY          1712.57         C  4 -- C  5         +19.2% ( 61.9%)     91.6%
 TRANSITION DIPOLE   0.5041         C  5 -- C  6         +17.0% ( 58.4%)     83.4%
 TRAVEL (Ang.)       0.1230         C  1 -- C  2         +12.9% ( 50.9%)     94.0%
 REDUCED MASS        2.6012         C  2 -- C  3         +11.3% ( 47.7%)     83.3%
 EFFECTIVE MASS     11.9785         C  5 -- Cl10         +10.1% ( 44.9%)      0.1%
 FORCE CONSTANT      4.4950

 VIBRATION         60   60A           ATOM PAIR      ENERGY CONTRIBUTION    RADIAL
 FREQUENCY          1863.14         C 12 -- H 20         +88.0% ( 98.6%)    100.0%
 TRANSITION DIPOLE   1.1404         C 12 -- N 17          +3.4% ( 19.5%)      0.1%
 TRAVEL (Ang.)       0.1477         C 12 -- C 13          +3.3% ( 19.2%)      8.2%
 REDUCED MASS        1.6595         C  3 -- C 12          +3.3% ( 19.1%)      5.8%
 EFFECTIVE MASS      3.0286
 FORCE CONSTANT      3.3940

 VIBRATION         61   61A           ATOM PAIR      ENERGY CONTRIBUTION    RADIAL
 FREQUENCY          2644.88         C 13 -- H 16         +62.7% ( 81.8%)     99.4%
 TRANSITION DIPOLE   0.9680         C 13 -- H 15         +28.9% ( 55.6%)     93.4%
 TRAVEL (Ang.)       0.2263         C 13 -- H 14          +7.4% ( 28.1%)     68.4%
 REDUCED MASS        0.4978         C 12 -- C 13          +0.9% (  9.7%)      0.1%
 EFFECTIVE MASS      1.4472
 FORCE CONSTANT      2.0515

 VIBRATION         62   62A           ATOM PAIR      ENERGY CONTRIBUTION    RADIAL
 FREQUENCY          2646.79         C 13 -- H 14         +59.0% ( 79.4%)     99.0%
 TRANSITION DIPOLE   1.0153         C 13 -- H 15         +36.7% ( 62.6%)     95.9%
 TRAVEL (Ang.)       0.2255         C 13 -- H 16          +3.3% ( 18.7%)     43.5%
 REDUCED MASS        0.5012         C 12 -- C 13          +0.9% (  9.8%)      0.0%
 EFFECTIVE MASS      1.4529
 FORCE CONSTANT      2.0686

 VIBRATION         63   63A           ATOM PAIR      ENERGY CONTRIBUTION    RADIAL
 FREQUENCY          2707.28         C  2 -- H  8         +93.4% ( 97.7%)    100.0%
 TRANSITION DIPOLE   1.3928         C  1 -- H  7          +2.7% ( 16.8%)     99.1%
 TRAVEL (Ang.)       0.1713         C  4 -- H  9          +1.4% ( 11.8%)     99.9%
 REDUCED MASS        0.8490         C  2 -- C  3          +1.0% ( 10.3%)     20.2%
 EFFECTIVE MASS      1.3865
 FORCE CONSTANT      3.6663

 VIBRATION         64   64A           ATOM PAIR      ENERGY CONTRIBUTION    RADIAL
 FREQUENCY          2721.59         C  4 -- H  9         +65.5% ( 81.8%)    100.0%
 TRANSITION DIPOLE   1.5225         C  6 -- H 11         +29.8% ( 55.1%)    100.0%
 TRAVEL (Ang.)       0.2220         C  1 -- H  7          +1.8% ( 13.5%)     99.2%
 REDUCED MASS        0.5029         C  2 -- H  8          +0.8% (  9.0%)     99.2%
 EFFECTIVE MASS      1.3736
 FORCE CONSTANT      2.1949

 VIBRATION         65   65A           ATOM PAIR      ENERGY CONTRIBUTION    RADIAL
 FREQUENCY          2722.60         C  6 -- H 11         +36.5% ( 61.1%)     99.9%
 TRANSITION DIPOLE   1.2614         C  1 -- H  7         +36.0% ( 60.7%)    100.0%
 TRAVEL (Ang.)       0.2791         C  4 -- H  9         +25.4% ( 51.0%)    100.0%
 REDUCED MASS        0.3179         C  1 -- C  6          +0.7% (  8.4%)      0.0%
 EFFECTIVE MASS      1.3872
 FORCE CONSTANT      1.3883

 VIBRATION         66   66A           ATOM PAIR      ENERGY CONTRIBUTION    RADIAL
 FREQUENCY          2740.71         C  1 -- H  7         +57.4% ( 76.4%)    100.0%
 TRANSITION DIPOLE   1.4546         C  6 -- H 11         +31.2% ( 56.3%)    100.0%
 TRAVEL (Ang.)       0.2417         C  4 -- H  9          +5.3% ( 23.2%)    100.0%
 REDUCED MASS        0.4212         C  2 -- H  8          +3.5% ( 18.9%)     99.7%
 EFFECTIVE MASS      1.4329
 FORCE CONSTANT      1.8639

 VIBRATION         67   67A           ATOM PAIR      ENERGY CONTRIBUTION    RADIAL
 FREQUENCY          2767.66         H 24 -- O 25         +77.4% ( 86.8%)     99.5%
 TRANSITION DIPOLE   0.8815         C 13 -- H 15          +6.8% ( 25.7%)     95.8%
 TRAVEL (Ang.)       0.2078         C 13 -- H 14          +6.5% ( 25.2%)     95.3%
 REDUCED MASS        0.5640         C 13 -- H 16          +5.7% ( 23.5%)     94.1%
 EFFECTIVE MASS      1.3098
 FORCE CONSTANT      2.5453

 VIBRATION         68   68A           ATOM PAIR      ENERGY CONTRIBUTION    RADIAL
 FREQUENCY          2770.69         C 13 -- H 16         +26.8% ( 49.9%)     95.6%
 TRANSITION DIPOLE   0.8845         C 13 -- H 15         +26.0% ( 49.2%)     95.4%
 TRAVEL (Ang.)       0.3177         C 13 -- H 14         +25.4% ( 48.6%)     95.3%
 REDUCED MASS        0.2412         H 24 -- O 25         +20.0% ( 43.1%)     99.5%
 EFFECTIVE MASS      1.1832
 FORCE CONSTANT      1.0908

 VIBRATION         69   69A           ATOM PAIR      ENERGY CONTRIBUTION    RADIAL
 FREQUENCY          2800.40         O 21 -- H 22         +95.4% ( 96.2%)     99.9%
 TRANSITION DIPOLE   0.7473         H 24 -- O 25          +3.5% ( 18.5%)     99.9%
 TRAVEL (Ang.)       0.1690         O 21 -- H 23          +0.7% (  8.5%)     20.6%
 REDUCED MASS        0.8430         H 23 -- O 25          +0.3% (  5.1%)     88.9%
 EFFECTIVE MASS      1.3529
 FORCE CONSTANT      3.8951

      SYMMETRY NUMBER FOR POINT-GROUP C1  =  1


          SYSTEM IS A GROUND STATE



 Title: ASE calculation


          MOLECULE IS NOT LINEAR

          THERE ARE 69 GENUINE VIBRATIONS IN THIS SYSTEM
          THIS THERMODYNAMICS CALCULATION IS LIMITED TO
          MOLECULES WHICH HAVE NO INTERNAL ROTATIONS




                    CALCULATED THERMODYNAMIC PROPERTIES
                                          *
   TEMP. (K)   PARTITION FUNCTION   H.O.F.    ENTHALPY  HEAT CAPACITY ENTROPY
                                   KCAL/MOL   CAL/MOLE    CAL/K/MOL  CAL/K/MOL


 298.00  VIB.     0.3671D+07                  8649.2098    51.9378    59.0625
         ROT.     0.3841D+07                   888.2803     2.9808    33.1093
         INT.     0.1410D+14                  9537.4901    54.9186    92.1718
         TRA.     0.3190D+28                  1480.4672     4.9680    42.0881
         TOT.                     -223.500   11017.9573    59.8867   134.2599

   *: NOTE: HEATS OF FORMATION ARE RELATIVE TO THE
            ELEMENTS IN THEIR STANDARD STATE AT 298K
              (=  Standard Enthalpy of Formation).

            Hvib:  Zero-point energy is not included.
                   frequencies of less than zero cm-1 are not included.
            Hrot = (3/2)RT
            Htra = (3/2)RT + pV = (5/2)RT

            Heat capacity is Cp, not Cv

          For more information, see: HTTP://OpenMOPAC.net/Manual/thermochemistry.html


           FORCE CONSTANT IN CARTESIAN COORDINATES (Millidynes/A)

    ATOM   CHEMICAL       X               Y               Z
   NUMBER   SYMBOL  FORCE CONSTANT  FORCE CONSTANT  FORCE CONSTANT

      1       C       11.023776       10.133030        2.337794
      2       C       11.178630       10.086067        2.413831
      3       C       10.540815       11.853522        2.715707
      4       C       11.284525       10.100996        2.327442
      5       C       11.203752        9.115873        1.902981
      6       C        9.902588       11.358015        2.300437
      7       H        1.732089        3.376259        0.388139
      8       H        1.677130        3.351651        0.380234
      9       H        1.736397        3.353189        0.402079
     10      Cl        1.309776        2.995468        0.188145
     11       H        4.164751        0.894690        0.360924
     12       C        7.492450        7.266912        6.138991
     13       C        6.316409        6.380648        6.386439
     14       H        3.989439        0.618314        0.681623
     15       H        0.697307        3.912282        0.696378
     16       H        1.050182        0.822917        3.419086
     17       N        6.908226       12.863391        8.872802
     18       O        4.700126        5.198880        4.047403
     19       O        1.687078       10.231856        2.140238
     20       H        1.188758        3.307859        0.840372
     21       O        1.307183        4.386126        2.913492
     22       H        0.859410        1.574098        2.123433
     23       H        0.656834        0.488003        0.899938
     24       H        1.541007        0.725303        2.272691
     25       O        2.387342        4.823173        2.679289

 **********************
 *                    *
 * JOB ENDED NORMALLY *
 *                    *
 **********************



 TOTAL JOB TIME:            10.98 SECONDS

 == MOPAC DONE ==
