 *******************************************************************************
 **                                                                           **
 **                              MOPAC v22.0.6                                **
 **                                                                           **
 *******************************************************************************
 **          Digital Object Identifier (DOI): 10.5281/zenodo.6511958          **
 **    Visit the DOI location for information on how to cite this program.    **
 *******************************************************************************

                              PM7 CALCULATION RESULTS

 *******************************************************************************
 *  CALCULATION DONE:                                Sat Mar 23 12:26:08 2024  *
 *  PM7        - The PM7 Hamiltonian to be used
 *  SINGLET    - SPIN STATE DEFINED AS A SINGLET
 *
 *
 *
 *                 CHARGE ON SYSTEM = 0
 *
 *
 *
 *  EPS=78.4   - USE ANDREAS KLAMT'S COSMO IMPLICIT SOLVATION MODEL
 *  T=         - A TIME OF 14.0 DAYS REQUESTED
 *  DUMP=N     - RESTART FILE WRITTEN EVERY 30.0 MINUTES REQUESTED
 *  RELSCF     - DEFAULT SCF CRITERION MULTIPLIED BY 1.0000
 *              (DEFAULT SCF CRITERION = 0.00010)
 *  ITRY=      - DO A MAXIMUM OF 15000 ITERATIONS FOR SCF
 *  AUX        - OUTPUT AUXILIARY INFORMATION
 *  BONDS      - FINAL BOND-ORDER MATRIX TO BE PRINTED
 *******************************************************************************
PM7 BONDS AUX DUMP=30M ITRY=15000 T=14D CHARGE=0 SINGLET eps=78.4 RELSCF=1
 Title: ASE calculation

   ATOM   CHEMICAL          X               Y               Z
  NUMBER   SYMBOL      (ANGSTROMS)     (ANGSTROMS)     (ANGSTROMS)

     1       C          0.43972596     -0.77614932      0.55697501   
     2       H          0.72228174  *  -0.16570548  *  -0.28431174  *
     3       H          0.32085526  *  -0.26567406  *   1.49574173  *
     4       H          2.26809190     -0.99189915  *   0.80282226  *
     5       N          0.00815692  *  -2.02522830  *   0.38945232  *
     6       O         -0.43224451  *  -2.69975975  *   1.35315256  *
     7       O          0.05388344  *  -2.58945323  *  -0.73186634  *
     8       H          3.69615260  *  -1.69116500  *   1.09437823  *
     9       O          2.95342176     -1.18192759      1.58223166   
    10       H          3.40392659  *  -0.27024045  *   1.69339325  *



          CARTESIAN COORDINATES 

    NO.       ATOM           X           Y           Z

     1         C          0.4397     -0.7761      0.5570
     2         H          0.7223     -0.1657     -0.2843
     3         H          0.3209     -0.2657      1.4957
     4         H          2.2681     -0.9919      0.8028
     5         N          0.0082     -2.0252      0.3895
     6         O         -0.4322     -2.6998      1.3532
     7         O          0.0539     -2.5895     -0.7319
     8         H          3.6962     -1.6912      1.0944
     9         O          2.9534     -1.1819      1.5822
    10         H          3.4039     -0.2702      1.6934

 General Reference for PM7:
 "Optimization of Parameters for Semiempirical Methods VI: More Modifications to the 
 NDDO Approximations and Re-optimization of Parameters", J. J. P. Stewart, J. Mol. Mod., 1:32, 19 (2013)
 https://link.springer.com/article/10.1007/s00894-012-1667-x

           Empirical Formula: C H5 N O3  =    10 atoms



      MOLECULAR POINT GROUP   :   C1  


 SINGLET STATE CALCULATION


      RHF CALCULATION, NO. OF DOUBLY OCCUPIED LEVELS = 16


          Geometry optimization using EF
  SCF CRITERION =    0.1000E-03

          DIAGONAL MATRIX USED AS START HESSIAN

 CYCLE:     1 TIME:   0.016 TIME LEFT:  2.00W  GRAD.:     5.679 HEAT: -68.97844
 CYCLE:     2 TIME:   0.012 TIME LEFT:  2.00W  GRAD.:    20.552 HEAT: -68.97907
 CYCLE:     3 TIME:   0.008 TIME LEFT:  2.00W  GRAD.:    19.918 HEAT: -68.98027
 CYCLE:     4 TIME:   0.070 TIME LEFT:  2.00W  GRAD.:     9.669 HEAT: -69.03983
 CYCLE:     5 TIME:   0.012 TIME LEFT:  2.00W  GRAD.:     4.940 HEAT: -69.06044
 CYCLE:     6 TIME:   0.016 TIME LEFT:  2.00W  GRAD.:     4.014 HEAT: -69.06699
 CYCLE:     7 TIME:   0.020 TIME LEFT:  2.00W  GRAD.:     2.805 HEAT: -69.05967
 CYCLE:     8 TIME:   0.012 TIME LEFT:  2.00W  GRAD.:     1.365 HEAT: -69.04990
 CYCLE:     9 TIME:   0.016 TIME LEFT:  2.00W  GRAD.:     1.047 HEAT: -69.05278
 CYCLE:    10 TIME:   0.004 TIME LEFT:  2.00W  GRAD.:     1.703 HEAT: -69.04792
 CYCLE:    11 TIME:   0.008 TIME LEFT:  2.00W  GRAD.:     1.283 HEAT: -69.05039
 CYCLE:    12 TIME:   0.004 TIME LEFT:  2.00W  GRAD.:     1.125 HEAT: -69.06304
 CYCLE:    13 TIME:   0.004 TIME LEFT:  2.00W  GRAD.:     0.504 HEAT: -69.07004

     GRADIENT =  0.50401 IS LESS THAN CUTOFF =  1.00000



 -------------------------------------------------------------------------------
 PM7 BONDS AUX DUMP=30M ITRY=15000 T=14D CHARGE=0 SINGLET eps=78.4 RELSCF=1
 Title: ASE calculation



     GEOMETRY OPTIMISED USING EIGENVECTOR FOLLOWING (EF).     
     SCF FIELD WAS ACHIEVED                                   


                              PM7 CALCULATION
                                                       MOPAC v22.0.6 Linux
                                                       Sat Mar 23 12:26:08 2024




          FINAL HEAT OF FORMATION =        -69.07004 KCAL/MOL =    -288.98904 KJ/MOL
          VAN DER WAALS AREA      =        115.55 SQUARE ANGSTROMS



          DIELECTRIC ENERGY       =         -3.02513 EV
          COSMO AREA              =        115.55 SQUARE ANGSTROMS
          COSMO VOLUME            =         95.77 CUBIC ANGSTROMS

          GRADIENT NORM           =          0.50401          =       0.15938 PER ATOM
          IONIZATION POTENTIAL    =          9.584714 EV
          HOMO LUMO ENERGIES (EV) =         -9.585  0.615
          NO. OF FILLED LEVELS    =         16
          MOLECULAR WEIGHT        =         79.0554         POINT GROUP:  C1  

          MOLECULAR DIMENSIONS (Angstroms)

            Atom       Atom       Distance
            H    10    O     7     4.74824
            H     3    H     8     3.37543
            H     2    O     6     2.98101


          SCF CALCULATIONS        =         27

          WALL-CLOCK TIME         =      0.215 SECONDS
          COMPUTATION TIME        =     10.523 SECONDS




   ATOM   CHEMICAL          X               Y               Z
  NUMBER   SYMBOL      (ANGSTROMS)     (ANGSTROMS)     (ANGSTROMS)

     1       C          0.43972596     -0.77614932      0.55697501   
     2       H          0.72309591  *  -0.16304548  *  -0.28210046  *
     3       H          0.32387304  *  -0.26879111  *   1.49824140  *
     4       H          2.26809190     -0.99325252  *   0.78575314  *
     5       N          0.00831858  *  -2.02344040  *   0.38681763  *
     6       O         -0.43322733  *  -2.70038499  *   1.34923824  *
     7       O          0.05113698  *  -2.58487741  *  -0.73668613  *
     8       H          3.70744905  *  -1.69859534  *   1.11878033  *
     9       O          2.95342176     -1.18192759      1.58223166   
    10       H          3.40428057  *  -0.27109504  *   1.70229988  *

                             CARTESIAN COORDINATES

   1    C        0.439725960    -0.776149320     0.556975010
   2    H        0.723095914    -0.163045476    -0.282100461
   3    H        0.323873043    -0.268791108     1.498241397
   4    H        2.268091900    -0.993252516     0.785753138
   5    N        0.008318578    -2.023440396     0.386817628
   6    O       -0.433227334    -2.700384993     1.349238236
   7    O        0.051136983    -2.584877407    -0.736686133
   8    H        3.707449050    -1.698595342     1.118780332
   9    O        2.953421760    -1.181927590     1.582231660
  10    H        3.404280573    -0.271095037     1.702299880


           Empirical Formula: C H5 N O3  =    10 atoms



      MOLECULAR POINT GROUP   :   C1  


                  EIGENVALUES  
 -36.14772 -32.39724 -28.45206 -26.49065 -21.30042 -18.76122 -18.73034 -17.69885
 -17.18396 -16.33645 -15.73987 -13.73697 -11.29304 -11.14429 -10.99401  -9.58471
   0.61513   1.51135   1.91969   4.32946   4.52278   4.70045   5.72531   6.31914
   6.60865


              NET ATOMIC CHARGES AND DIPOLE CONTRIBUTIONS

  ATOM NO.   TYPE          CHARGE      No. of ELECS.   s-Pop       p-Pop       
    1          C          -0.676521        4.6765     1.07341     3.60311
    2          H           0.194779        0.8052     0.80522
    3          H           0.192783        0.8072     0.80722
    4          H           0.428270        0.5717     0.57173
    5          N           0.759812        4.2402     1.40758     2.83261
    6          O          -0.693531        6.6935     1.94461     4.74892
    7          O          -0.693168        6.6932     1.94465     4.74852
    8          H           0.438723        0.5613     0.56128
    9          O          -0.386404        6.3864     1.80132     4.58509
   10          H           0.435257        0.5647     0.56474
 DIPOLE           X         Y         Z       TOTAL
 POINT-CHG.    14.965     8.342     3.280    17.444
 HYBRID        -0.170    -0.298    -0.323     0.471
 SUM           14.795     8.044     2.956    17.098


          ATOMIC ORBITAL ELECTRON POPULATIONS

     Atom    s        px        py        pz   
    1  C   1.07341   1.42831   0.96847   1.20634
    2  H   0.80522
    3  H   0.80722
    4  H   0.57173
    5  N   1.40758   0.92582   0.99005   0.91673
    6  O   1.94461   1.66895   1.68945   1.39052
    7  O   1.94465   1.77708   1.76804   1.20340
    8  H   0.56128
    9  O   1.80132   1.49163   1.50069   1.59277
   10  H   0.56474

          BONDING CONTRIBUTION OF EACH M.O.

  1.4248  1.0817  0.9369  1.2178  1.0818  1.4538  1.5102  1.1018  1.6106  1.1810
  0.7447  1.8638  0.4997  0.4231  0.2420  0.8977 -2.2194 -1.9500 -2.1535 -1.6410
 -1.6030 -1.9179 -1.9014 -1.9584 -1.9267





            (VALENCIES)   BOND ORDERS

     1  C     (3.643)     5  N 1.345     3  H 0.946     2  H 0.942     7  O 0.143     6  O 0.143     4  H 0.091
                          9  O 0.028

     2  H     (0.962)     1  C 0.942     6  O 0.010

     3  H     (0.963)     1  C 0.946

     4  H     (0.817)     9  O 0.702     1  C 0.091

     5  N     (3.817)     1  C 1.345     6  O 1.226     7  O 1.226

     6  O     (1.550)     5  N 1.226     7  O 0.162     1  C 0.143     2  H 0.010

     7  O     (1.550)     5  N 1.226     6  O 0.162     1  C 0.143

     8  H     (0.808)     9  O 0.800

     9  O     (2.352)    10  H 0.803     8  H 0.800     4  H 0.702     1  C 0.028

    10  H     (0.811)     9  O 0.803


 **********************
 *                    *
 * JOB ENDED NORMALLY *
 *                    *
 **********************



 TOTAL JOB TIME:             0.21 SECONDS

 == MOPAC DONE ==
