 *******************************************************************************
 **                                                                           **
 **                              MOPAC v22.0.6                                **
 **                                                                           **
 *******************************************************************************
 **          Digital Object Identifier (DOI): 10.5281/zenodo.6511958          **
 **    Visit the DOI location for information on how to cite this program.    **
 *******************************************************************************

                              PM7 CALCULATION RESULTS

 *******************************************************************************
 *  CALCULATION DONE:                                Sat Mar 23 12:26:09 2024  *
 *  PM7        - The PM7 Hamiltonian to be used
 *  SINGLET    - SPIN STATE DEFINED AS A SINGLET
 *
 *
 *
 *                 CHARGE ON SYSTEM = 0
 *
 *
 *
 *  EPS=78.4   - USE ANDREAS KLAMT'S COSMO IMPLICIT SOLVATION MODEL
 *  LET        - OVERRIDE SOME SAFETY CHECKS
 *  T=         - A TIME OF 14.0 DAYS REQUESTED
 *  DUMP=N     - RESTART FILE WRITTEN EVERY 30.0 MINUTES REQUESTED
 *  RELSCF     - DEFAULT SCF CRITERION MULTIPLIED BY 1.0000
 *              (DEFAULT SCF CRITERION = 0.00010)
 *  ITRY=      - DO A MAXIMUM OF 15000 ITERATIONS FOR SCF
 *  AUX        - OUTPUT AUXILIARY INFORMATION
 *  ISOTOPE    - SAVE THE FORCE MATRIX FOR USE LATER
 *  BONDS      - FINAL BOND-ORDER MATRIX TO BE PRINTED
 *  LARGE      - EXPANDED OUTPUT TO BE PRINTED
 *  THERMO     - THERMODYNAMIC QUANTITIES TO BE CALCULATED
 *******************************************************************************
PM7 AUX LARGE THERMO(298,298) LET ISOTOPE BONDS DUMP=30M ITRY=15000 T=14D CHARGE=0 SINGLET eps=78.4 RELSCF=1
 Title: ASE calculation

   ATOM   CHEMICAL          X               Y               Z
  NUMBER   SYMBOL      (ANGSTROMS)     (ANGSTROMS)     (ANGSTROMS)

     1       C          0.43972596  *  -0.77614932  *   0.55697501  *
     2       H          0.72309591  *  -0.16304548  *  -0.28210046  *
     3       H          0.32387304  *  -0.26879111  *   1.49824140  *
     4       D          2.26809190  *  -0.99325252  *   0.78575314  *
     5       N          0.00831858  *  -2.02344040  *   0.38681763  *
     6       O         -0.43322733  *  -2.70038499  *   1.34923824  *
     7       O          0.05113698  *  -2.58487741  *  -0.73668613  *
     8       H          3.70744905  *  -1.69859534  *   1.11878033  *
     9       O          2.95342176  *  -1.18192759  *   1.58223166  *
    10       H          3.40428057  *  -0.27109504  *   1.70229988  *


                                Isotopes Used

              Atom:    4  H  Default mass  1.0079,  mass used:  2.0140 amu


          CARTESIAN COORDINATES 

    NO.       ATOM           X           Y           Z

     1         C          0.4397     -0.7761      0.5570
     2         H          0.7231     -0.1630     -0.2821
     3         H          0.3239     -0.2688      1.4982
     4         H          2.2681     -0.9933      0.7858
     5         N          0.0083     -2.0234      0.3868
     6         O         -0.4332     -2.7004      1.3492
     7         O          0.0511     -2.5849     -0.7367
     8         H          3.7074     -1.6986      1.1188
     9         O          2.9534     -1.1819      1.5822
    10         H          3.4043     -0.2711      1.7023

 General Reference for PM7:
 "Optimization of Parameters for Semiempirical Methods VI: More Modifications to the 
 NDDO Approximations and Re-optimization of Parameters", J. J. P. Stewart, J. Mol. Mod., 1:32, 19 (2013)
 https://link.springer.com/article/10.1007/s00894-012-1667-x

           Empirical Formula: C H5 N O3  =    10 atoms



      MOLECULAR POINT GROUP   :   C1  


 SINGLET STATE CALCULATION


      RHF CALCULATION, NO. OF DOUBLY OCCUPIED LEVELS = 16

  SCF CRITERION =    0.1000E-03


          HEAT OF FORMATION =     -69.070046 KCALS/MOLE


          CARTESIAN COORDINATE DERIVATIVES

   NUMBER  ATOM         X            Y            Z

     1       C     -1.193159     0.877474    -1.675749
     2       H     -0.039325    -0.086746     0.038404
     3       H      0.104375    -0.029752    -0.130585
     4       H      1.252415     0.230674     3.561939
     5       N     -0.097604     0.024278     0.132061
     6       O     -0.232400     0.434050     0.201895
     7       O     -0.057761    -0.367792     0.062798
     8       H      0.119891    -0.164879    -0.099764
     9       O      0.357789    -1.004179    -2.230866
    10       H     -0.214254     0.086908     0.139925

 DIPOLE           X         Y         Z       TOTAL
 POINT-CHG.     6.130     8.805    13.754    17.444
 HYBRID         0.038    -0.433    -0.182     0.471
 SUM            6.168     8.372    13.572    17.098


          GRADIENT NORM =   5.10306


                              **** WARNING ****

           GRADIENT IS VERY LARGE FOR A THERMO CALCULATION
           RESULTS ARE LIKELY TO BE INACCURATE IF THERE ARE
           ANY LOW-LYING VIBRATIONS (LESS THAN ABOUT 400CM-1)
           GRADIENT NORM SHOULD BE LESS THAN ABOUT 1.0 FOR THERMO
           TO GIVE ACCURATE RESULTS


          TIME FOR SCF CALCULATION =    0.02

          TIME FOR DERIVATIVES     =    0.01

          MOLECULAR WEIGHT =   80.06



          ROTATIONAL CONSTANTS IN CM(-1)

          A =    0.25697310   B =    0.08203539   C =    0.07703239



           PRINCIPAL MOMENTS OF INERTIA IN UNITS OF 10**(-40)*GRAM-CM**2

          A =      108.9326   B =      341.2278   C =      363.3894


          ORIENTATION OF MOLECULE IN FORCE CALCULATION

    NO.       ATOM         X         Y         Z

     1          C       0.5944    0.7756   -0.4820
     2          H       1.6715    0.7756   -0.4820
     3          H       0.1194    1.7406   -0.4820
     4          H       0.7736    0.7533    1.3646
     5          N      -0.0965   -0.3344   -0.7299
     6          O      -1.3477   -0.3143   -0.8466
     7          O       0.4704   -1.4516   -0.8292
     8          H       0.4913    0.3956    2.9370
     9          O       0.2260    1.0792    2.2211
    10          H       0.7696    1.8885    2.5323


    FIRST DERIVATIVES WILL BE USED IN THE CALCULATION OF SECOND DERIVATIVES

          ESTIMATED TIME TO COMPLETE CALCULATION =        1.88 SECONDS

    FOR POINT-GROUP C1   THERE ARE   1 UNIQUE SYMMETRY FUNCTIONS.

 STEP:   1 TIME =     0.03 SECS, INTEGRAL =      0.03 TIME LEFT:1209599.94
 STEP:   2 TIME =     0.04 SECS, INTEGRAL =      0.07 TIME LEFT:1209599.90
 STEP:   3 TIME =     0.01 SECS, INTEGRAL =      0.08 TIME LEFT:1209599.89
 STEP:   4 TIME =     0.01 SECS, INTEGRAL =      0.09 TIME LEFT:1209599.88
 STEP:   5 TIME =     0.01 SECS, INTEGRAL =      0.10 TIME LEFT:1209599.87
 STEP:   6 TIME =     0.01 SECS, INTEGRAL =      0.11 TIME LEFT:1209599.86
 STEP:   7 TIME =     0.01 SECS, INTEGRAL =      0.12 TIME LEFT:1209599.85
 STEP:   8 TIME =     0.01 SECS, INTEGRAL =      0.13 TIME LEFT:1209599.84
 STEP:   9 TIME =     0.01 SECS, INTEGRAL =      0.14 TIME LEFT:1209599.83
 STEP:  10 TIME =     0.01 SECS, INTEGRAL =      0.15 TIME LEFT:1209599.82
 STEP:  11 TIME =     0.01 SECS, INTEGRAL =      0.16 TIME LEFT:1209599.81
 STEP:  12 TIME =     0.01 SECS, INTEGRAL =      0.17 TIME LEFT:1209599.80
 STEP:  13 TIME =     0.01 SECS, INTEGRAL =      0.18 TIME LEFT:1209599.79
 STEP:  14 TIME =     0.01 SECS, INTEGRAL =      0.19 TIME LEFT:1209599.78
 STEP:  15 TIME =     0.01 SECS, INTEGRAL =      0.20 TIME LEFT:1209599.77
 STEP:  16 TIME =     0.01 SECS, INTEGRAL =      0.21 TIME LEFT:1209599.76
 STEP:  17 TIME =     0.01 SECS, INTEGRAL =      0.22 TIME LEFT:1209599.75
 STEP:  18 TIME =     0.01 SECS, INTEGRAL =      0.23 TIME LEFT:1209599.74
 STEP:  19 TIME =     0.01 SECS, INTEGRAL =      0.24 TIME LEFT:1209599.73
 STEP:  20 TIME =     0.01 SECS, INTEGRAL =      0.25 TIME LEFT:1209599.72
 STEP:  21 TIME =     0.01 SECS, INTEGRAL =      0.26 TIME LEFT:1209599.71
 STEP:  22 TIME =     0.01 SECS, INTEGRAL =      0.27 TIME LEFT:1209599.70
 STEP:  23 TIME =     0.01 SECS, INTEGRAL =      0.28 TIME LEFT:1209599.69
 STEP:  24 TIME =     0.01 SECS, INTEGRAL =      0.29 TIME LEFT:1209599.68
 STEP:  25 TIME =     0.01 SECS, INTEGRAL =      0.30 TIME LEFT:1209599.67
 STEP:  26 TIME =     0.01 SECS, INTEGRAL =      0.31 TIME LEFT:1209599.66
 STEP:  27 TIME =     0.01 SECS, INTEGRAL =      0.32 TIME LEFT:1209599.65
 STEP:  28 TIME =     0.01 SECS, INTEGRAL =      0.33 TIME LEFT:1209599.64
 STEP:  29 TIME =     0.01 SECS, INTEGRAL =      0.34 TIME LEFT:1209599.63
 STEP:  30 TIME =     0.01 SECS, INTEGRAL =      0.35 TIME LEFT:1209599.62

(To convert to Hartree/Bohr^2, multiply by (10^(-21) x N x a0^2)/(4.184 x 627.51) =  0.0642)


           FORCE MATRIX IN MILLIDYNES/ANGSTROM


                  C  1       H  2       H  3       H  4       N  5       O  6
 ------------------------------------------------------------------------------
     C    1  13.798034
     H    2   3.407193   4.271022
     H    3   3.419547   0.420963   4.296698
     H    4   0.905871   0.186029   0.155425   2.534772
     N    5   6.930058   1.042657   1.040451   0.959498  19.432175
     O    6   2.062810   0.160630   0.069580   0.310971   7.515426  10.326004
     O    7   2.018425   0.108293   0.161643   0.296814   7.548480   2.227643
     H    8   0.184139   0.034459   0.019686   0.561012   0.137395   0.049338
     O    9   0.758025   0.071285   0.054445   2.500542   0.458152   0.165243
     H   10   0.104811   0.018735   0.016700   0.574135   0.085994   0.030756


                  O  7       H  8       O  9       H 10
 ------------------------------------------------------
     O    7  10.334732
     H    8   0.042871   3.834753
     O    9   0.159437   3.449178   6.948204
     H   10   0.031442   0.603518   3.443827   3.870702


          HEAT OF FORMATION =     -69.070046 KCALS/MOLE


          TRIVIAL VIBRATIONS, SHOULD BE ZERO

  48.1509=TX  34.1047=TY -32.1943=TZ  19.8980=RX -27.2940=RY -42.6979=RZ


      MOLECULAR POINT GROUP   :   C1  


           EIGENVECTORS  


   Root No.       1         2         3         4         5         6         7         8

                 1 A       2 A       3 A       4 A       5 A       6 A       7 A       8 A   

                  -0.2      -0.1       0.0       0.0       0.0       0.1       0.3       0.6
  
           1   -0.0575   -0.0180    0.1238   -0.1098   -0.0555   -0.0664   -0.0535    0.1933
           2    0.0391   -0.0243    0.0019    0.1222   -0.0902   -0.1158    0.0431   -0.1243
           3   -0.4436   -0.0705   -0.1620   -0.0183   -0.1287    0.2290    0.0101    0.0262
           4   -0.0626   -0.0167    0.1203   -0.1072   -0.0588   -0.0615   -0.0427    0.1651
           5    0.0055   -0.1093   -0.0541    0.1801   -0.0684   -0.1271   -0.1145    0.4895
           6   -0.0902    0.1830   -0.3630    0.2094   -0.0013    0.2698    0.6121    0.1086
           7   -0.0568    0.0588    0.1865   -0.1525   -0.0816   -0.0865    0.0595   -0.3322
           8    0.0175    0.0090    0.0324    0.1013   -0.1065   -0.1188    0.0929   -0.3522
           9   -0.1475   -0.2091   -0.2072   -0.3412   -0.1293    0.3230   -0.5088   -0.1785
          10    0.5049   -0.1480    0.0827    0.1725   -0.2196    0.5395    0.0364    0.0128
          11   -0.2029    0.0806    0.3904    0.0076    0.3794    0.3328    0.0011   -0.0047
          12    0.5474    0.0709   -0.0342   -0.0967    0.1273   -0.1058   -0.0427    0.0029
          13   -0.0267   -0.0473    0.0080   -0.0238    0.0030   -0.0733   -0.0325    0.1505
          14    0.0327    0.0116    0.0132    0.0390   -0.1039   -0.0652    0.0310   -0.0986
          15   -0.1295   -0.1102    0.1225    0.1023   -0.1667   -0.0294    0.0152   -0.0023
          16   -0.0698   -0.0240   -0.0172    0.0117    0.0011   -0.0497   -0.0683    0.1265
          17   -0.0379    0.0983    0.0628   -0.0041   -0.1499   -0.0039   -0.1001    0.3822
          18   -0.0372   -0.3800    0.3891   -0.2764   -0.2134   -0.2174    0.4066    0.1061
          19   -0.0157   -0.1203   -0.0737    0.0128    0.0483   -0.0958    0.0753   -0.3053
          20   -0.0078   -0.0486   -0.0316    0.0119   -0.0831   -0.0598    0.1112   -0.2885
          21   -0.0458    0.1082    0.1408    0.6384   -0.2063   -0.1562   -0.3498   -0.1250
          22   -0.1571    0.6532    0.0183   -0.1079   -0.0799   -0.0065    0.0146   -0.0176
          23    0.1125   -0.0079   -0.2769   -0.1990   -0.0560   -0.0121   -0.0229    0.0139
          24    0.2551    0.1506   -0.2128   -0.1786   -0.0170   -0.2407   -0.0554    0.0504
          25    0.0567   -0.0045   -0.0997    0.0994    0.0312    0.1204    0.0109    0.0116
          26   -0.0260   -0.1606   -0.0970   -0.0577    0.2951    0.0422   -0.0192   -0.0160
          27   -0.0189    0.2465   -0.0015   -0.1176    0.2569   -0.2078   -0.0510    0.0117
          28   -0.1154   -0.3333   -0.3491    0.2048    0.4117   -0.2202    0.0004   -0.0046
          29    0.0674    0.1512   -0.0410   -0.2013   -0.0165    0.1277   -0.0226   -0.0013
          30    0.1100    0.0106    0.3283    0.0787    0.4785    0.1355   -0.0364   -0.0002


   Root No.       9        10        11        12        13        14        15        16

                 9 A      10 A      11 A      12 A      13 A      14 A      15 A      16 A   

                   0.8       1.2       1.3       1.3       1.8       3.0       3.3       4.0
  
           1   -0.0584    0.0141   -0.1004   -0.0049    0.0164   -0.1730   -0.1321    0.0079
           2   -0.0299    0.0203   -0.1459    0.0037    0.0229    0.1214   -0.2071    0.0145
           3    0.4834   -0.0432    0.1040    0.3829   -0.1957   -0.0051   -0.0726   -0.3245
           4   -0.0543    0.0158   -0.1451   -0.0054    0.0287   -0.4119   -0.4612    0.0614
           5    0.0027   -0.1004    0.5620   -0.1472   -0.0091   -0.1760    0.0529    0.0318
           6   -0.3207    0.0073    0.0193   -0.1952    0.0818   -0.0287    0.0011    0.0462
           7    0.0474   -0.0889    0.5840   -0.1483   -0.0234   -0.0412    0.2462    0.0064
           8    0.0327   -0.0226    0.1474   -0.0588    0.0141    0.4672   -0.3655    0.0303
           9   -0.3852    0.0165    0.0033   -0.2252    0.0754    0.0322   -0.0000    0.0407
          10    0.1643    0.1023    0.0317    0.0362   -0.1330    0.0031   -0.0265   -0.1244
          11   -0.0280    0.5850    0.0557   -0.1397   -0.0926    0.0041    0.0185    0.0298
          12   -0.2739    0.0663    0.1382    0.3936   -0.3085   -0.0104   -0.0111    0.0119
          13   -0.0533    0.0085   -0.0900    0.0120   -0.0019    0.3214   -0.0639   -0.0916
          14   -0.0302    0.0250   -0.1341    0.0287    0.0079   -0.1954   -0.1246   -0.1271
          15    0.1180   -0.0014   -0.0028    0.1735   -0.1351    0.0248   -0.0429    0.8215
          16    0.0038    0.0086   -0.0982    0.0477   -0.0159    0.3689   -0.0533   -0.0116
          17   -0.0263    0.0272   -0.2595    0.1035   -0.0309    0.2213    0.5003    0.0500
          18   -0.1577   -0.0146   -0.0605   -0.0912    0.0600    0.0706    0.0734   -0.2555
          19    0.0192    0.0306   -0.1696    0.0768   -0.0108   -0.0669    0.4641    0.0513
          20    0.0639    0.0336   -0.1808    0.0972   -0.0120   -0.4351    0.1393    0.0174
          21   -0.1539   -0.0033   -0.0717   -0.0883    0.0671   -0.0804    0.0715   -0.2497
          22   -0.1334   -0.1645   -0.0368   -0.0384   -0.2820   -0.0063   -0.0043   -0.0078
          23    0.2045   -0.1876   -0.1426   -0.3762   -0.3384   -0.0087    0.0072   -0.0011
          24    0.4182    0.3634   -0.0478   -0.3140    0.1879    0.0022    0.0099    0.0197
          25    0.1521   -0.0588   -0.0034    0.0028    0.5403    0.0112    0.0397    0.1216
          26   -0.1140   -0.2409    0.0089    0.1414   -0.0526   -0.0011   -0.0200   -0.0529
          27    0.0672    0.1569    0.0711    0.1854    0.1322   -0.0018   -0.0366   -0.1308
          28   -0.0874    0.1323    0.0278    0.0215   -0.1185   -0.0053   -0.0088   -0.0131
          29   -0.0752   -0.1396    0.0889    0.3474    0.4907    0.0023   -0.0009    0.0072
          30    0.2047   -0.5478   -0.1532   -0.2215    0.0349   -0.0033    0.0073    0.0205


   Root No.      17        18        19        20        21        22        23        24

                17 A      18 A      19 A      20 A      21 A      22 A      23 A      24 A   

                   5.5       6.1       7.3       7.7      10.2      14.4      19.4      21.4
  
           1    0.0286   -0.1563    0.0071   -0.0171    0.7084    0.3439   -0.0359   -0.2354
           2    0.0185   -0.2597    0.0488   -0.0010   -0.4299    0.5502    0.0049   -0.4048
           3    0.1650    0.0702   -0.1133    0.0281   -0.0164    0.0958   -0.0020   -0.0353
           4   -0.0770    0.4514   -0.0229    0.0149   -0.3732   -0.1222   -0.0108    0.0062
           5   -0.0232    0.0545    0.0020    0.0006    0.0260   -0.0170   -0.0189   -0.0041
           6   -0.0288   -0.0035    0.0153   -0.0056    0.0121   -0.0005   -0.0018   -0.0110
           7    0.0133   -0.1547    0.0169    0.0017   -0.1886    0.0381    0.0099   -0.0116
           8   -0.0621    0.4396   -0.0422   -0.0042    0.3207   -0.1176    0.0213    0.0078
           9   -0.0281   -0.0021    0.0152   -0.0042   -0.0048   -0.0002    0.0032   -0.0086
          10   -0.3635   -0.0474    0.0998   -0.0346    0.0081   -0.0033    0.0011    0.0073
          11    0.1869    0.0326   -0.0447   -0.0176   -0.0087    0.0013    0.0002   -0.0075
          12    0.4206    0.0959   -0.0900    0.0284   -0.0051   -0.0011   -0.0031   -0.0609
          13    0.0705   -0.1837   -0.0115    0.0047   -0.0745    0.0296    0.6728    0.4009
          14    0.1137   -0.2945   -0.0209    0.0035    0.0317    0.0398   -0.4027    0.6758
          15   -0.0894   -0.1322    0.0483   -0.0109    0.0095    0.0051    0.0086    0.1372
          16    0.0557   -0.3082    0.0266   -0.0042   -0.0882   -0.5180   -0.4396   -0.2504
          17   -0.0734    0.2369   -0.0065    0.0017   -0.0651    0.0044    0.0107   -0.0230
          18    0.0185    0.0216   -0.0073    0.0024   -0.0229   -0.0523   -0.0388   -0.0267
          19   -0.0890    0.3469   -0.0155    0.0015    0.0140    0.2290   -0.1966    0.0976
          20    0.0260   -0.1808    0.0162   -0.0040    0.1173   -0.4598    0.3848   -0.2509
          21    0.0228    0.0269   -0.0104    0.0048    0.0154   -0.0432    0.0334   -0.0234
          22   -0.0643   -0.0196   -0.1387    0.1266    0.0033    0.0002   -0.0008   -0.0060
          23    0.2103    0.0607    0.2672   -0.3207   -0.0004   -0.0005   -0.0000    0.0044
          24   -0.1381   -0.0532   -0.3420    0.2954    0.0001   -0.0003   -0.0011   -0.0090
          25    0.5451    0.1053    0.2813    0.1744   -0.0002    0.0028   -0.0000   -0.0046
          26   -0.2385   -0.0392    0.1347    0.7034    0.0218   -0.0009   -0.0012    0.0071
          27   -0.3327   -0.0083    0.6607   -0.2184    0.0155   -0.0034    0.0020    0.0416
          28   -0.1194   -0.0337   -0.2431   -0.2680   -0.0091   -0.0001   -0.0002   -0.0041
          29   -0.1582   -0.0501   -0.3545   -0.3617   -0.0133    0.0000    0.0009   -0.0048
          30   -0.0098   -0.0153   -0.1765   -0.1199   -0.0035    0.0001   -0.0003   -0.0039


          FORCE CONSTANTS IN MILLIDYNES/ANGSTROM (= 10**5 DYNES/CM)

  -0.15570  -0.05958   0.00789   0.01530   0.03729   0.06315   0.26965   0.62981
   0.84935   1.18660   1.25436   1.32818   1.83905   2.97042   3.27249   4.02212
   5.45361   6.06785   7.29999   7.67897  10.24940  14.44120  19.42931  21.36162


           ASSOCIATED EIGENVECTORS




    ROOT NO.    1           2           3           4           5           6

            -0.15570    -0.05958     0.00789     0.01530     0.03729     0.06315
  
         1  -0.05751    -0.01798     0.12376    -0.10982    -0.05550    -0.06635
         2   0.03905    -0.02426     0.00188     0.12220    -0.09023    -0.11576
         3  -0.44358    -0.07046    -0.16196    -0.01832    -0.12866     0.22896
         4  -0.06258    -0.01672     0.12031    -0.10724    -0.05875    -0.06155
         5   0.00550    -0.10925    -0.05411     0.18010    -0.06844    -0.12708
         6  -0.09020     0.18303    -0.36303     0.20943    -0.00130     0.26981
         7  -0.05679     0.05883     0.18648    -0.15247    -0.08160    -0.08647
         8   0.01748     0.00899     0.03241     0.10128    -0.10654    -0.11882
         9  -0.14749    -0.20911    -0.20722    -0.34119    -0.12934     0.32297
        10   0.50491    -0.14798     0.08273     0.17254    -0.21956     0.53949
        11  -0.20285     0.08059     0.39039     0.00760     0.37945     0.33282
        12   0.54744     0.07089    -0.03420    -0.09669     0.12733    -0.10579
        13  -0.02667    -0.04727     0.00805    -0.02379     0.00301    -0.07330
        14   0.03267     0.01155     0.01325     0.03895    -0.10388    -0.06517
        15  -0.12947    -0.11018     0.12250     0.10228    -0.16675    -0.02936
        16  -0.06985    -0.02396    -0.01717     0.01169     0.00106    -0.04972
        17  -0.03794     0.09829     0.06277    -0.00410    -0.14987    -0.00392
        18  -0.03717    -0.38003     0.38909    -0.27643    -0.21341    -0.21736
        19  -0.01572    -0.12032    -0.07369     0.01281     0.04827    -0.09578
        20  -0.00779    -0.04857    -0.03163     0.01191    -0.08309    -0.05984
        21  -0.04576     0.10819     0.14077     0.63836    -0.20627    -0.15617
        22  -0.15709     0.65317     0.01833    -0.10795    -0.07985    -0.00655
        23   0.11249    -0.00792    -0.27690    -0.19903    -0.05598    -0.01211
        24   0.25512     0.15062    -0.21277    -0.17860    -0.01699    -0.24071
        25   0.05673    -0.00450    -0.09972     0.09940     0.03120     0.12044
        26  -0.02601    -0.16065    -0.09704    -0.05765     0.29509     0.04217
        27  -0.01886     0.24650    -0.00146    -0.11758     0.25692    -0.20784
        28  -0.11543    -0.33326    -0.34908     0.20483     0.41171    -0.22022
        29   0.06741     0.15123    -0.04101    -0.20127    -0.01652     0.12770
        30   0.10997     0.01055     0.32828     0.07873     0.47846     0.13548




    ROOT NO.    7           8           9          10          11          12

             0.26965     0.62981     0.84935     1.18660     1.25436     1.32818
  
         1  -0.05354     0.19329    -0.05841     0.01411    -0.10043    -0.00492
         2   0.04308    -0.12432    -0.02995     0.02028    -0.14590     0.00370
         3   0.01009     0.02621     0.48337    -0.04324     0.10404     0.38286
         4  -0.04270     0.16505    -0.05428     0.01579    -0.14506    -0.00537
         5  -0.11448     0.48951     0.00267    -0.10041     0.56199    -0.14719
         6   0.61209     0.10856    -0.32075     0.00726     0.01934    -0.19517
         7   0.05945    -0.33215     0.04745    -0.08894     0.58399    -0.14830
         8   0.09295    -0.35224     0.03268    -0.02265     0.14740    -0.05880
         9  -0.50879    -0.17848    -0.38525     0.01651     0.00333    -0.22524
        10   0.03637     0.01278     0.16429     0.10228     0.03166     0.03623
        11   0.00113    -0.00475    -0.02801     0.58505     0.05569    -0.13968
        12  -0.04270     0.00289    -0.27389     0.06626     0.13816     0.39360
        13  -0.03250     0.15046    -0.05331     0.00853    -0.08998     0.01205
        14   0.03097    -0.09860    -0.03022     0.02503    -0.13413     0.02874
        15   0.01523    -0.00225     0.11800    -0.00142    -0.00277     0.17346
        16  -0.06833     0.12648     0.00376     0.00865    -0.09816     0.04766
        17  -0.10011     0.38224    -0.02626     0.02721    -0.25950     0.10347
        18   0.40661     0.10614    -0.15767    -0.01461    -0.06051    -0.09119
        19   0.07534    -0.30534     0.01919     0.03059    -0.16960     0.07683
        20   0.11116    -0.28850     0.06386     0.03361    -0.18076     0.09722
        21  -0.34981    -0.12496    -0.15389    -0.00327    -0.07168    -0.08827
        22   0.01464    -0.01762    -0.13337    -0.16448    -0.03681    -0.03844
        23  -0.02287     0.01394     0.20445    -0.18764    -0.14259    -0.37624
        24  -0.05536     0.05035     0.41817     0.36341    -0.04776    -0.31396
        25   0.01088     0.01163     0.15210    -0.05883    -0.00345     0.00279
        26  -0.01925    -0.01602    -0.11399    -0.24090     0.00888     0.14139
        27  -0.05099     0.01171     0.06717     0.15690     0.07108     0.18538
        28   0.00039    -0.00457    -0.08742     0.13231     0.02784     0.02149
        29  -0.02257    -0.00126    -0.07523    -0.13957     0.08891     0.34739
        30  -0.03637    -0.00017     0.20474    -0.54780    -0.15323    -0.22147




    ROOT NO.   13          14          15          16          17          18

             1.83905     2.97042     3.27249     4.02212     5.45361     6.06785
  
         1   0.01645    -0.17296    -0.13208     0.00791     0.02865    -0.15633
         2   0.02285     0.12141    -0.20708     0.01447     0.01847    -0.25965
         3  -0.19570    -0.00511    -0.07255    -0.32453     0.16504     0.07017
         4   0.02868    -0.41191    -0.46117     0.06140    -0.07703     0.45138
         5  -0.00909    -0.17602     0.05289     0.03176    -0.02323     0.05448
         6   0.08184    -0.02874     0.00111     0.04621    -0.02883    -0.00352
         7  -0.02336    -0.04124     0.24625     0.00642     0.01327    -0.15471
         8   0.01412     0.46721    -0.36551     0.03033    -0.06210     0.43961
         9   0.07542     0.03215    -0.00004     0.04065    -0.02810    -0.00205
        10  -0.13304     0.00313    -0.02650    -0.12441    -0.36353    -0.04736
        11  -0.09257     0.00407     0.01846     0.02977     0.18694     0.03259
        12  -0.30852    -0.01043    -0.01106     0.01186     0.42063     0.09590
        13  -0.00191     0.32143    -0.06390    -0.09163     0.07052    -0.18373
        14   0.00788    -0.19538    -0.12464    -0.12708     0.11369    -0.29445
        15  -0.13508     0.02483    -0.04293     0.82150    -0.08938    -0.13222
        16  -0.01587     0.36887    -0.05334    -0.01162     0.05565    -0.30825
        17  -0.03091     0.22131     0.50031     0.05004    -0.07343     0.23692
        18   0.05999     0.07062     0.07335    -0.25546     0.01853     0.02159
        19  -0.01079    -0.06687     0.46412     0.05126    -0.08899     0.34693
        20  -0.01196    -0.43511     0.13928     0.01745     0.02603    -0.18078
        21   0.06708    -0.08037     0.07147    -0.24971     0.02278     0.02695
        22  -0.28195    -0.00629    -0.00432    -0.00782    -0.06432    -0.01957
        23  -0.33845    -0.00872     0.00722    -0.00108     0.21032     0.06065
        24   0.18791     0.00217     0.00991     0.01971    -0.13812    -0.05323
        25   0.54026     0.01118     0.03974     0.12163     0.54515     0.10534
        26  -0.05262    -0.00109    -0.02002    -0.05286    -0.23854    -0.03923
        27   0.13217    -0.00180    -0.03658    -0.13077    -0.33274    -0.00828
        28  -0.11846    -0.00535    -0.00881    -0.01314    -0.11938    -0.03370
        29   0.49073     0.00234    -0.00092     0.00721    -0.15816    -0.05014
        30   0.03489    -0.00334     0.00732     0.02053    -0.00982    -0.01529




    ROOT NO.   19          20          21          22          23          24

             7.29999     7.67897    10.24940    14.44120    19.42931    21.36162
  
         1   0.00711    -0.01706     0.70840     0.34388    -0.03590    -0.23537
         2   0.04880    -0.00099    -0.42987     0.55023     0.00487    -0.40479
         3  -0.11327     0.02805    -0.01636     0.09577    -0.00204    -0.03525
         4  -0.02294     0.01490    -0.37324    -0.12223    -0.01078     0.00621
         5   0.00196     0.00061     0.02598    -0.01705    -0.01892    -0.00410
         6   0.01534    -0.00562     0.01207    -0.00055    -0.00180    -0.01102
         7   0.01691     0.00173    -0.18864     0.03807     0.00988    -0.01159
         8  -0.04221    -0.00417     0.32070    -0.11762     0.02127     0.00778
         9   0.01520    -0.00419    -0.00476    -0.00018     0.00316    -0.00861
        10   0.09983    -0.03461     0.00806    -0.00329     0.00110     0.00732
        11  -0.04470    -0.01761    -0.00872     0.00131     0.00024    -0.00754
        12  -0.09005     0.02840    -0.00509    -0.00107    -0.00312    -0.06091
        13  -0.01154     0.00470    -0.07447     0.02964     0.67284     0.40092
        14  -0.02091     0.00346     0.03172     0.03982    -0.40269     0.67582
        15   0.04832    -0.01090     0.00949     0.00512     0.00860     0.13720
        16   0.02664    -0.00420    -0.08817    -0.51801    -0.43957    -0.25038
        17  -0.00651     0.00167    -0.06512     0.00442     0.01075    -0.02297
        18  -0.00731     0.00241    -0.02289    -0.05227    -0.03877    -0.02667
        19  -0.01549     0.00154     0.01404     0.22903    -0.19661     0.09760
        20   0.01623    -0.00402     0.11726    -0.45975     0.38479    -0.25091
        21  -0.01041     0.00477     0.01542    -0.04320     0.03340    -0.02344
        22  -0.13872     0.12658     0.00333     0.00021    -0.00080    -0.00601
        23   0.26717    -0.32066    -0.00042    -0.00045    -0.00004     0.00441
        24  -0.34198     0.29542     0.00013    -0.00034    -0.00110    -0.00905
        25   0.28127     0.17444    -0.00024     0.00282    -0.00000    -0.00456
        26   0.13471     0.70341     0.02178    -0.00093    -0.00119     0.00709
        27   0.66069    -0.21844     0.01548    -0.00339     0.00197     0.04160
        28  -0.24306    -0.26803    -0.00907    -0.00012    -0.00016    -0.00415
        29  -0.35453    -0.36171    -0.01332     0.00001     0.00090    -0.00478
        30  -0.17653    -0.11989    -0.00349     0.00011    -0.00030    -0.00386

          ZERO POINT ENERGY      37.468 KCAL/MOL

         NOTE: SYSTEM IS NOT A GROUND STATE, THEREFORE ZERO POINT
         ENERGY IS NOT MEANINGFULL. ZERO POINT ENERGY PRINTED
         DOES NOT INCLUDE THE  2 IMAGINARY FREQUENCIES


           FREQUENCIES, REDUCED MASSES AND VIBRATIONAL DIPOLES



   I         1         2         3         4         5         6
 FREQ(I) -377.8698 -225.4737   72.2123   97.4548  151.4226  220.3017

 MASS(I)   1.06219   0.62517   3.93671   4.08507   1.87965   0.60945

 DIPX(I)   0.89712  -0.06560  -0.57437  -0.23668   0.07537   0.04630
 DIPY(I)   1.58392   0.80528  -0.24743  -0.81566   0.34247   0.28588
 DIPZ(I)   3.37634   0.20158  -0.40910  -1.03304  -1.01712  -1.12050

 DIPT(I)   3.83579   0.83272   0.74732   1.33735   1.07586   1.15732


   I         7         8         9        10        11        12
 FREQ(I)  486.3015  582.4701  655.2091  671.2001  886.7198 1041.8339

 MASS(I)   1.45193   0.45321   3.88110   5.07064   0.44928   0.54084

 DIPX(I)   0.26349   0.25722  -0.74139   0.15048   0.50872   1.54847
 DIPY(I)  -0.23649  -0.02211  -1.22415  -0.11727   0.59182   0.01654
 DIPZ(I)  -0.00328   0.05728   1.12619   1.05809   2.13671  -0.58787

 DIPT(I)   0.35407   0.26445   1.82113   1.07516   2.27477   1.65639


   I        13        14        15        16        17        18
 FREQ(I) 1062.2460 1074.9427 1217.0728 1299.8303 1351.8607 1478.8223

 MASS(I)   0.41230   1.01046   3.11676   0.40469   0.68328   1.24095

 DIPX(I)   0.32082  -0.09824  -0.66497   0.61542   0.28335   1.46501
 DIPY(I)   0.47559  -0.08252  -1.18961  -0.34977   0.44719   3.19674
 DIPZ(I)  -0.04617   0.01905  -0.29652   0.08456   0.42361   4.05358

 DIPT(I)   0.57554   0.12971   1.39473   0.71290   0.67802   5.36628


   I        19        20        21        22        23        24
 FREQ(I) 1513.5373 1686.8176 2492.9256 2687.8587 2705.4798 2772.9173

 MASS(I)   6.41306   3.80925   0.51419   0.48128   0.51396   0.48484

 DIPX(I)   7.65749   3.24499   0.33421   0.92424   1.16332   0.52492
 DIPY(I)  -5.70688   3.76573   2.29787   0.39077  -0.51273   1.06523
 DIPZ(I)  -0.85486  -1.52030  -0.71455   1.39764   0.10101   0.08568

 DIPT(I)   9.58835   5.19827   2.42950   1.72056   1.27531   1.19063


   I        25        26        27        28        29        30
 FREQ(I)   -0.0365   -0.0277    0.0817  -59.8130   58.4825  -52.6977

 MASS(I)   2.61778   2.61778   2.61779   3.66220   4.34823   4.36082

 DIPX(I)   0.02309   0.03290   0.02618  -0.08415   0.48638   1.29148
 DIPY(I)  -0.05210  -0.00699  -0.01253  -0.37738   1.04772  -0.63250
 DIPZ(I)   0.01918  -0.00692  -0.03438   0.27996  -0.81099  -0.18261

 DIPT(I)   0.06013   0.03434   0.04500   0.47736   1.41138   1.44960


           NORMAL COORDINATE ANALYSIS (Total motion = 1 Angstrom)


   Root No.       1         2         3         4         5         6         7         8

                 1 A       2 A       3 A       4 A       5 A       6 A       7 A       8 A   

                -377.9    -225.5      72.2      97.5     151.4     220.3     486.3     582.5
  
           1   -0.0085    0.0232    0.0606    0.0057   -0.0168    0.0133   -0.0595   -0.0352
           2    0.0041   -0.0099   -0.0209    0.0520   -0.0038    0.0024    0.0393    0.0195
           3   -0.0781   -0.0242    0.0033   -0.0700    0.0952   -0.0261   -0.0027    0.0063
           4   -0.0114    0.0237    0.0600    0.0058   -0.0142    0.0134   -0.0738   -0.0325
           5   -0.0086   -0.0257   -0.0447    0.0598   -0.0006   -0.0087    0.3063    0.0022
           6    0.0414   -0.0241   -0.0774   -0.0813    0.0907   -0.0331   -0.1460    0.4369
           7   -0.0075    0.0353    0.0826    0.0053   -0.0246    0.0257   -0.2962   -0.0282
           8   -0.0024   -0.0037   -0.0097    0.0512   -0.0063    0.0090   -0.0638    0.0226
           9    0.0139   -0.0384    0.0640   -0.1222    0.0999   -0.0759    0.1520   -0.3864
          10    0.2068    0.1111   -0.0430    0.0067    0.1028   -0.1656    0.0004    0.0005
          11   -0.1382    0.2717   -0.1137   -0.0933   -0.0427   -0.0494    0.0002   -0.0019
          12    0.2810   -0.0173    0.0025   -0.0699   -0.0378   -0.0717    0.0001   -0.0009
          13    0.0032    0.0036    0.0216    0.0044   -0.0079    0.0048    0.0569    0.0184
          14    0.0109   -0.0028   -0.0002    0.0322    0.0004   -0.0008   -0.0338   -0.0082
          15   -0.0084    0.0025    0.0144    0.0189    0.0233   -0.0153   -0.0019   -0.0066
          16   -0.0096    0.0016    0.0116    0.0037   -0.0010    0.0055    0.0537    0.0156
          17   -0.0025    0.0106    0.0207    0.0219    0.0031    0.0090    0.0578    0.0154
          18   -0.0045    0.0223    0.1309    0.0305   -0.0256    0.0019    0.0080    0.0249
          19    0.0002   -0.0130   -0.0001    0.0067   -0.0018   -0.0056   -0.0327   -0.0051
          20   -0.0048   -0.0109   -0.0022    0.0251    0.0085   -0.0049   -0.0740   -0.0218
          21    0.0009   -0.0083   -0.0849    0.1169   -0.0025    0.0040   -0.0052   -0.0190
          22   -0.0400    0.1191   -0.1297   -0.0304    0.1083    0.2702    0.0007   -0.0076
          23    0.1459   -0.0600    0.0688   -0.0888    0.1344    0.1375   -0.0009   -0.0060
          24    0.2054   -0.0876    0.0271   -0.0691    0.0387    0.0885   -0.0027   -0.0066
          25    0.0001   -0.0163   -0.0687   -0.0164    0.0172   -0.0060   -0.0024    0.0028
          26   -0.0032   -0.0245    0.0101   -0.0981   -0.0205   -0.0162    0.0009   -0.0010
          27    0.0182    0.0043   -0.0553   -0.0808   -0.0636    0.0499    0.0003   -0.0079
          28   -0.1476   -0.2880   -0.0419   -0.0280   -0.1938   -0.1052   -0.0082    0.0206
          29    0.1076    0.0977    0.0111   -0.0927    0.1388    0.1349    0.0017   -0.0169
          30   -0.0056    0.1477   -0.1116   -0.0745   -0.1569   -0.1989    0.0051    0.0042


   Root No.       9        10        11        12        13        14        15        16

                 9 A      10 A      11 A      12 A      13 A      14 A      15 A      16 A   

                 655.2     671.2     886.7    1041.8    1062.2    1074.9    1217.1    1299.8
  
           1   -0.0597    0.0273    0.0039   -0.0113    0.0178    0.0696   -0.0489    0.0106
           2   -0.0834    0.0589    0.0041    0.0001   -0.0105   -0.0437   -0.0822    0.0125
           3   -0.0511   -0.0318   -0.0513    0.0248   -0.0040    0.0021   -0.0190   -0.0021
           4   -0.0604    0.0291    0.0056   -0.0086    0.0107    0.0416   -0.0515    0.0129
           5   -0.1043    0.0560   -0.0505   -0.0253    0.0625    0.2970   -0.2846   -0.0349
           6   -0.0945   -0.1715    0.2789   -0.0962    0.0352    0.0650   -0.0402    0.0062
           7   -0.0746    0.0449   -0.0263    0.0437   -0.0718   -0.2247   -0.2477   -0.0421
           8   -0.0931    0.0671   -0.0125    0.0221   -0.0458   -0.1590   -0.1818   -0.0122
           9   -0.1192   -0.2525    0.3030   -0.0789    0.0040   -0.0867   -0.0417    0.0103
          10   -0.0203   -0.0042   -0.0477    0.1291    0.0756   -0.0066    0.0133    0.0348
          11    0.0066   -0.0122    0.0217   -0.0184    0.1865   -0.0591   -0.0128   -0.0376
          12   -0.0037    0.0015    0.0164    0.0947   -0.0253    0.0284   -0.0044   -0.1062
          13   -0.0597    0.0078    0.0037    0.0035    0.0002    0.0008   -0.0082   -0.0016
          14   -0.1006    0.0088    0.0075    0.0043   -0.0002   -0.0011   -0.0130   -0.0052
          15    0.1182    0.2038    0.0316   -0.0082   -0.0020    0.0031   -0.0056   -0.0005
          16   -0.0506    0.0378    0.0017    0.0021   -0.0085   -0.0348    0.1156   -0.0060
          17    0.1538   -0.0564   -0.0035    0.0028   -0.0015   -0.0082   -0.0018    0.0001
          18   -0.0244   -0.0637   -0.0041    0.0007   -0.0007   -0.0052    0.0119   -0.0005
          19    0.1577   -0.0678   -0.0036    0.0011   -0.0019   -0.0063   -0.0529    0.0013
          20    0.0110    0.0022   -0.0023   -0.0058    0.0083    0.0335    0.1045   -0.0026
          21   -0.0242   -0.0673   -0.0037    0.0014    0.0007    0.0028    0.0106    0.0000
          22    0.0239   -0.0120    0.1352    0.2900   -0.0941    0.0719    0.0099    0.1828
          23   -0.0020    0.0114   -0.0443   -0.0592    0.1312   -0.0494    0.0043    0.2520
          24   -0.0069    0.0228   -0.0888   -0.1569    0.1916   -0.0806   -0.0014    0.1841
          25   -0.0014   -0.0026   -0.0097   -0.0459   -0.0158   -0.0020   -0.0021   -0.0199
          26   -0.0021   -0.0037    0.0015    0.0099   -0.0278    0.0096    0.0015    0.0003
          27   -0.0010    0.0030   -0.0121    0.0016    0.0080   -0.0017    0.0014   -0.0176
          28    0.0150    0.0302    0.0660    0.1812    0.2057   -0.0315   -0.0018    0.0652
          29   -0.0025   -0.0139   -0.0200   -0.0697   -0.0588    0.0121   -0.0062   -0.1727
          30   -0.0189   -0.0229   -0.0371   -0.0975   -0.2318    0.0421    0.0162    0.3322


   Root No.      17        18        19        20        21        22        23        24

                17 A      18 A      19 A      20 A      21 A      22 A      23 A      24 A   

                1351.9    1478.8    1513.5    1686.8    2492.9    2687.9    2705.5    2772.9
  
           1   -0.0381   -0.0268   -0.0320   -0.0744    0.0001    0.0016   -0.0494   -0.0162
           2   -0.0600   -0.0405    0.0297   -0.1221   -0.0002    0.0003    0.0289   -0.0316
           3   -0.0121    0.0214   -0.0049   -0.0270   -0.0011    0.0017    0.0004   -0.0004
           4   -0.0449   -0.0194    0.0107   -0.0166   -0.0036   -0.0176    0.4758    0.4360
           5    0.3386   -0.0580   -0.1388   -0.0199   -0.0005   -0.0013    0.0350    0.0061
           6    0.0424   -0.0864   -0.0050   -0.0099    0.0016   -0.0014    0.0009    0.0005
           7    0.3345   -0.0263    0.1463   -0.0161   -0.0003   -0.0013    0.1582   -0.2059
           8    0.1153   -0.0325    0.0634   -0.0385    0.0017    0.0053   -0.3967    0.4388
           9    0.0388   -0.0636    0.0470   -0.0105    0.0007   -0.0021   -0.0037    0.0027
          10   -0.0129   -0.2347    0.0469    0.1543    0.0007    0.0125   -0.0026   -0.0022
          11    0.0124    0.1269   -0.0223   -0.0948   -0.0103   -0.0162    0.0011    0.0010
          12    0.0074    0.2514   -0.0544   -0.2839    0.0039   -0.0453    0.0016    0.0126
          13   -0.0099    0.0544    0.2105    0.0978    0.0004   -0.0003   -0.0054   -0.0047
          14   -0.0149    0.0522   -0.1483    0.1590    0.0002   -0.0010    0.0023   -0.0087
          15    0.0009    0.0081   -0.0001    0.0346    0.0001   -0.0003   -0.0004   -0.0019
          16    0.0308   -0.0240   -0.1140   -0.0414   -0.0002    0.0003    0.0018    0.0027
          17    0.0013   -0.0007    0.0053   -0.0051    0.0001    0.0002    0.0004    0.0004
          18    0.0027   -0.0028   -0.0093   -0.0040    0.0001   -0.0000    0.0002    0.0003
          19   -0.0120    0.0010   -0.0565    0.0145   -0.0001   -0.0003    0.0003   -0.0010
          20    0.0277   -0.0080    0.1068   -0.0391   -0.0002    0.0002   -0.0014    0.0029
          21    0.0018    0.0002    0.0091   -0.0041   -0.0004    0.0001   -0.0000    0.0004
          22    0.0331    0.0837   -0.0280   -0.0690   -0.1212    0.0724    0.0012    0.0025
          23    0.0446    0.0676   -0.0226   -0.0277    0.3349   -0.3033   -0.0065   -0.0035
          24    0.0370    0.0801   -0.0218   -0.0336   -0.3402    0.2872    0.0067    0.0042
          25   -0.0014    0.0199   -0.0030   -0.0134   -0.0066   -0.0191   -0.0004   -0.0001
          26   -0.0022   -0.0199    0.0040    0.0139   -0.0421   -0.0043   -0.0005   -0.0003
          27   -0.0073   -0.0530    0.0110    0.0390    0.0127   -0.0213   -0.0008   -0.0010
          28    0.0178    0.0439   -0.0125   -0.0393    0.2259    0.2084    0.0079    0.0044
          29   -0.0258   -0.0201    0.0067    0.0020    0.3533    0.4013    0.0132    0.0065
          30    0.0452    0.0832   -0.0241   -0.0278    0.1456    0.1274    0.0037    0.0021


           MASS-WEIGHTED COORDINATE ANALYSIS (NORMAL COORDINATES)


   Root No.       1         2         3         4         5         6         7         8

                 1 A       2 A       3 A       4 A       5 A       6 A       7 A       8 A   

                -377.9    -225.5      72.2      97.5     151.4     220.3     486.3     582.5
  
           1   -0.0432    0.1333    0.2560    0.0236   -0.0957    0.0825   -0.2743   -0.1916
           2    0.0206   -0.0567   -0.0883    0.2138   -0.0219    0.0148    0.1810    0.1064
           3   -0.3950   -0.1391    0.0140   -0.2877    0.5425   -0.1624   -0.0125    0.0345
           4   -0.0167    0.0393    0.0734    0.0068   -0.0234    0.0241   -0.0985   -0.0513
           5   -0.0127   -0.0428   -0.0547    0.0712   -0.0009   -0.0157    0.4088    0.0035
           6    0.0607   -0.0401   -0.0947   -0.0968    0.1498   -0.0596   -0.1948    0.6893
           7   -0.0110    0.0587    0.1012    0.0063   -0.0406    0.0463   -0.3953   -0.0445
           8   -0.0035   -0.0062   -0.0119    0.0610   -0.0104    0.0163   -0.0851    0.0356
           9    0.0203   -0.0639    0.0784   -0.1456    0.1649   -0.1368    0.2029   -0.6097
          10    0.4281    0.2612   -0.0744    0.0112    0.2399   -0.4223    0.0007    0.0011
          11   -0.2861    0.6388   -0.1967   -0.1571   -0.0997   -0.1259    0.0004   -0.0043
          12    0.5816   -0.0408    0.0044   -0.1177   -0.0883   -0.1828    0.0002   -0.0020
          13    0.0172    0.0226    0.0985    0.0196   -0.0487    0.0321    0.2832    0.1081
          14    0.0596   -0.0174   -0.0009    0.1431    0.0022   -0.0053   -0.1680   -0.0483
          15   -0.0456    0.0156    0.0659    0.0841    0.1435   -0.1031   -0.0094   -0.0385
          16   -0.0562    0.0108    0.0566    0.0174   -0.0068    0.0392    0.2854    0.0980
          17   -0.0145    0.0700    0.1007    0.1040    0.0207    0.0647    0.3074    0.0969
          18   -0.0264    0.1480    0.6382    0.1445   -0.1684    0.0136    0.0427    0.1566
          19    0.0011   -0.0863   -0.0003    0.0318   -0.0117   -0.0400   -0.1739   -0.0323
          20   -0.0280   -0.0723   -0.0106    0.1191    0.0562   -0.0350   -0.3934   -0.1368
          21    0.0053   -0.0548   -0.4139    0.5547   -0.0163    0.0290   -0.0277   -0.1193
          22   -0.0586    0.1981   -0.1587   -0.0362    0.1788    0.4873    0.0010   -0.0121
          23    0.2137   -0.0998    0.0842   -0.1058    0.2220    0.2479   -0.0012   -0.0095
          24    0.3008   -0.1457    0.0331   -0.0823    0.0639    0.1596   -0.0036   -0.0105
          25    0.0005   -0.1080   -0.3351   -0.0777    0.1133   -0.0432   -0.0126    0.0177
          26   -0.0187   -0.1624    0.0491   -0.4655   -0.1351   -0.1164    0.0046   -0.0063
          27    0.1059    0.0282   -0.2696   -0.3831   -0.4183    0.3587    0.0018   -0.0495
          28   -0.2162   -0.4790   -0.0512   -0.0334   -0.3201   -0.1898   -0.0110    0.0325
          29    0.1575    0.1625    0.0136   -0.1104    0.2292    0.2432    0.0023   -0.0267
          30   -0.0081    0.2456   -0.1366   -0.0888   -0.2591   -0.3586    0.0068    0.0066


   Root No.       9        10        11        12        13        14        15        16

                 9 A      10 A      11 A      12 A      13 A      14 A      15 A      16 A   

                 655.2     671.2     886.7    1041.8    1062.2    1074.9    1217.1    1299.8
  
           1   -0.1726    0.0929    0.0263   -0.0742    0.1160    0.4214   -0.1971    0.0643
           2   -0.2411    0.2002    0.0274    0.0010   -0.0682   -0.2649   -0.3312    0.0763
           3   -0.1478   -0.1081   -0.3442    0.1631   -0.0262    0.0126   -0.0764   -0.0129
           4   -0.0506    0.0287    0.0108   -0.0164    0.0202    0.0729   -0.0601    0.0228
           5   -0.0874    0.0552   -0.0981   -0.0481    0.1177    0.5213   -0.3323   -0.0615
           6   -0.0791   -0.1689    0.5421   -0.1831    0.0663    0.1141   -0.0469    0.0109
           7   -0.0625    0.0443   -0.0512    0.0832   -0.1353   -0.3944   -0.2892   -0.0743
           8   -0.0779    0.0661   -0.0243    0.0421   -0.0863   -0.2790   -0.2123   -0.0216
           9   -0.0998   -0.2487    0.5889   -0.1502    0.0076   -0.1522   -0.0487    0.0181
          10   -0.0241   -0.0058   -0.1310    0.3474    0.2012   -0.0165    0.0219    0.0866
          11    0.0078   -0.0170    0.0595   -0.0496    0.4965   -0.1466   -0.0212   -0.0936
          12   -0.0044    0.0021    0.0452    0.2548   -0.0674    0.0704   -0.0072   -0.2645
          13   -0.1864    0.0285    0.0270    0.0248    0.0011    0.0054   -0.0357   -0.0108
          14   -0.3140    0.0325    0.0541    0.0304   -0.0015   -0.0073   -0.0566   -0.0342
          15    0.3689    0.7482    0.2286   -0.0585   -0.0142    0.0202   -0.0242   -0.0034
          16   -0.1687    0.1483    0.0134    0.0159   -0.0640   -0.2432    0.5376   -0.0424
          17    0.5129   -0.2214   -0.0273    0.0209   -0.0115   -0.0572   -0.0086    0.0009
          18   -0.0813   -0.2500   -0.0321    0.0051   -0.0050   -0.0364    0.0552   -0.0038
          19    0.5261   -0.2661   -0.0281    0.0084   -0.0142   -0.0440   -0.2459    0.0093
          20    0.0366    0.0085   -0.0180   -0.0444    0.0622    0.2343    0.4863   -0.0181
          21   -0.0806   -0.2641   -0.0287    0.0106    0.0051    0.0199    0.0492    0.0001
          22    0.0200   -0.0118    0.2627    0.5519   -0.1771    0.1263    0.0116    0.3221
          23   -0.0016    0.0112   -0.0861   -0.1126    0.2471   -0.0866    0.0050    0.4439
          24   -0.0058    0.0224   -0.1726   -0.2987    0.3609   -0.1415   -0.0016    0.3243
          25   -0.0047   -0.0102   -0.0748   -0.3483   -0.1186   -0.0142   -0.0100   -0.1399
          26   -0.0071   -0.0147    0.0120    0.0748   -0.2085    0.0668    0.0070    0.0021
          27   -0.0033    0.0119   -0.0934    0.0124    0.0601   -0.0117    0.0066   -0.1236
          28    0.0125    0.0297    0.1283    0.3449    0.3873   -0.0554   -0.0021    0.1149
          29   -0.0021   -0.0137   -0.0388   -0.1326   -0.1108    0.0213   -0.0072   -0.3043
          30   -0.0158   -0.0226   -0.0721   -0.1855   -0.4365    0.0739    0.0190    0.5854


   Root No.      17        18        19        20        21        22        23        24

                17 A      18 A      19 A      20 A      21 A      22 A      23 A      24 A   

                1351.9    1478.8    1513.5    1686.8    2492.9    2687.9    2705.5    2772.9
  
           1   -0.2224   -0.1315   -0.0917   -0.2474    0.0003    0.0086   -0.2544   -0.0839
           2   -0.3501   -0.1990    0.0852   -0.4061   -0.0009    0.0018    0.1487   -0.1639
           3   -0.0707    0.1050   -0.0140   -0.0897   -0.0054    0.0089    0.0020   -0.0021
           4   -0.0759   -0.0276    0.0089   -0.0160   -0.0053   -0.0272    0.7092    0.6556
           5    0.5719   -0.0826   -0.1153   -0.0192   -0.0008   -0.0020    0.0522    0.0092
           6    0.0717   -0.1230   -0.0041   -0.0095    0.0023   -0.0021    0.0013    0.0007
           7    0.5650   -0.0375    0.1216   -0.0155   -0.0004   -0.0019    0.2358   -0.3097
           8    0.1948   -0.0462    0.0527   -0.0371    0.0025    0.0082   -0.5913    0.6599
           9    0.0656   -0.0905    0.0391   -0.0101    0.0010   -0.0033   -0.0056    0.0041
          10   -0.0309   -0.4722    0.0551    0.2102    0.0015    0.0273   -0.0054   -0.0046
          11    0.0296    0.2552   -0.0262   -0.1291   -0.0212   -0.0353    0.0022    0.0021
          12    0.0176    0.5057   -0.0638   -0.3867    0.0081   -0.0989    0.0034    0.0267
          13   -0.0621    0.2886    0.6519    0.3513    0.0021   -0.0017   -0.0301   -0.0261
          14   -0.0936    0.2772   -0.4593    0.5710    0.0013   -0.0055    0.0125   -0.0488
          15    0.0055    0.0431   -0.0003    0.1242    0.0003   -0.0016   -0.0023   -0.0105
          16    0.2072   -0.1361   -0.3773   -0.1590   -0.0009    0.0019    0.0109    0.0160
          17    0.0086   -0.0038    0.0175   -0.0194    0.0004    0.0013    0.0023    0.0026
          18    0.0180   -0.0160   -0.0307   -0.0155    0.0006   -0.0001    0.0011    0.0020
          19   -0.0806    0.0056   -0.1870    0.0556   -0.0004   -0.0016    0.0016   -0.0061
          20    0.1864   -0.0454    0.3536   -0.1502   -0.0009    0.0015   -0.0080    0.0173
          21    0.0119    0.0009    0.0300   -0.0159   -0.0023    0.0007   -0.0002    0.0023
          22    0.0559    0.1191   -0.0232   -0.0664   -0.1765    0.1119    0.0017    0.0037
          23    0.0753    0.0962   -0.0188   -0.0267    0.4878   -0.4685   -0.0097   -0.0052
          24    0.0624    0.1140   -0.0181   -0.0324   -0.4955    0.4436    0.0099    0.0064
          25   -0.0091    0.1127   -0.0101   -0.0514   -0.0383   -0.1175   -0.0027   -0.0005
          26   -0.0150   -0.1130    0.0132    0.0534   -0.2445   -0.0263   -0.0028   -0.0021
          27   -0.0492   -0.3005    0.0365    0.1499    0.0735   -0.1312   -0.0045   -0.0058
          28    0.0300    0.0625   -0.0103   -0.0378    0.3290    0.3220    0.0118    0.0066
          29   -0.0435   -0.0286    0.0055    0.0019    0.5147    0.6199    0.0197    0.0097
          30    0.0763    0.1184   -0.0200   -0.0268    0.2121    0.1968    0.0054    0.0032


          DESCRIPTION OF VIBRATIONS


 VIBRATION          1    1A           ATOM PAIR      ENERGY CONTRIBUTION    RADIAL
 FREQUENCY          -377.87         H  4 -- O  9         +30.0% (-94.1%)      1.4%
 TRANSITION DIPOLE   3.8358         H  8 -- O  9         +28.8% (-92.2%)      1.2%
 TRAVEL (Ang.)       0.4099         O  9 -- H 10         +10.3% (-55.0%)      0.1%
 REDUCED MASS        1.0622         C  1 -- H  2          +9.4% (-52.8%)      0.3%
 EFFECTIVE MASS      0.7857
 FORCE CONSTANT     -0.0894

 VIBRATION          2    2A           ATOM PAIR      ENERGY CONTRIBUTION    RADIAL
 FREQUENCY          -225.47         H  4 -- O  9         +45.4% (-99.9%)      0.0%
 TRANSITION DIPOLE   0.8327         O  9 -- H 10         +26.6% (-99.9%)      5.5%
 TRAVEL (Ang.)       0.6916         H  8 -- O  9         +13.1% (-99.9%)      5.5%
 REDUCED MASS        0.6252         C  1 -- N  5          +5.4% (-70.9%)      0.0%
 EFFECTIVE MASS      5.1129
 FORCE CONSTANT     -0.0187

 VIBRATION          3    3A           ATOM PAIR      ENERGY CONTRIBUTION    RADIAL
 FREQUENCY            72.21         H  4 -- O  9         +19.1% (412.1%)      0.1%
 TRANSITION DIPOLE   0.7473         C  1 -- N  5         +17.6% (395.9%)      0.0%
 TRAVEL (Ang.)       0.4870         C  1 -- H  3         +13.2% (342.9%)     55.2%
 REDUCED MASS        3.9367         O  9 -- H 10         +11.8% (324.0%)     26.7%
 EFFECTIVE MASS    212.0767         C  1 -- H  2         +11.3% (317.5%)     72.0%
 FORCE CONSTANT      0.0121

 VIBRATION          4    4A           ATOM PAIR      ENERGY CONTRIBUTION    RADIAL
 FREQUENCY            97.45         H  8 -- O  9         +22.1% (397.5%)      0.2%
 TRANSITION DIPOLE   1.3373         H  4 -- O  9         +20.2% (380.5%)     39.4%
 TRAVEL (Ang.)       0.4116         O  9 -- H 10         +13.7% (313.1%)     72.3%
 REDUCED MASS        4.0851         C  1 -- N  5         +10.4% (272.6%)      0.0%
 EFFECTIVE MASS    179.8883
 FORCE CONSTANT      0.0229

 VIBRATION          5    5A           ATOM PAIR      ENERGY CONTRIBUTION    RADIAL
 FREQUENCY           151.42         H  8 -- O  9         +38.3% (311.9%)      3.7%
 TRANSITION DIPOLE   1.0759         O  9 -- H 10         +29.3% (272.8%)      3.3%
 TRAVEL (Ang.)       0.4867         H  4 -- O  9          +8.9% (150.6%)     35.2%
 REDUCED MASS        1.8797         C  1 -- N  5          +7.1% (134.3%)      0.6%
 EFFECTIVE MASS     55.1624
 FORCE CONSTANT      0.0254

 VIBRATION          6    6A           ATOM PAIR      ENERGY CONTRIBUTION    RADIAL
 FREQUENCY           220.30         O  9 -- H 10         +48.2% (253.0%)      0.0%
 TRANSITION DIPOLE   1.1573         H  8 -- O  9         +32.2% (206.9%)     13.2%
 TRAVEL (Ang.)       0.7087         H  4 -- O  9         +12.7% (129.7%)     13.5%
 REDUCED MASS        0.6095         C  1 -- N  5          +1.8% ( 48.2%)     15.8%
 EFFECTIVE MASS     16.7862
 FORCE CONSTANT      0.0174

 VIBRATION          7    7A           ATOM PAIR      ENERGY CONTRIBUTION    RADIAL
 FREQUENCY           486.30         C  1 -- N  5         +25.9% (115.2%)      0.0%
 TRANSITION DIPOLE   0.3541         C  1 -- H  2         +17.8% ( 95.6%)     26.6%
 TRAVEL (Ang.)       0.3090         C  1 -- H  3         +17.3% ( 94.0%)     26.1%
 REDUCED MASS        1.4519         O  6 -- O  7         +14.7% ( 86.9%)      0.0%
 EFFECTIVE MASS     14.2078         N  5 -- O  7         +12.3% ( 79.3%)      0.0%
 FORCE CONSTANT      0.2023         N  5 -- O  6         +11.9% ( 78.2%)      0.0%

 VIBRATION          8    8A           ATOM PAIR      ENERGY CONTRIBUTION    RADIAL
 FREQUENCY           582.47         C  1 -- H  2         +39.7% ( 86.8%)      4.3%
 TRANSITION DIPOLE   0.2644         C  1 -- H  3         +36.0% ( 82.7%)      3.7%
 TRAVEL (Ang.)       0.5054         C  1 -- N  5         +12.6% ( 48.9%)      0.1%
 REDUCED MASS        0.4532         O  6 -- O  7          +4.5% ( 29.3%)      0.1%
 EFFECTIVE MASS      3.7390
 FORCE CONSTANT      0.0906

 VIBRATION          9    9A           ATOM PAIR      ENERGY CONTRIBUTION    RADIAL
 FREQUENCY           655.21         N  5 -- O  6         +21.6% ( 84.3%)      0.2%
 TRANSITION DIPOLE   1.8211         N  5 -- O  7         +20.8% ( 82.7%)      0.2%
 TRAVEL (Ang.)       0.1628         O  6 -- O  7         +18.1% ( 77.2%)     99.8%
 REDUCED MASS        3.8811         C  1 -- N  5         +16.8% ( 74.4%)      0.3%
 EFFECTIVE MASS     15.3745         C  1 -- H  3         +11.5% ( 61.4%)     23.3%
 FORCE CONSTANT      0.9817         C  1 -- H  2         +11.2% ( 60.8%)     34.4%

 VIBRATION         10   10A           ATOM PAIR      ENERGY CONTRIBUTION    RADIAL
 FREQUENCY           671.20         N  5 -- O  7         +27.1% ( 83.2%)      0.1%
 TRANSITION DIPOLE   1.0752         N  5 -- O  6         +26.6% ( 82.5%)      0.1%
 TRAVEL (Ang.)       0.1408         C  1 -- N  5         +25.0% ( 79.9%)      0.0%
 REDUCED MASS        5.0706         O  6 -- O  7          +7.7% ( 44.4%)     99.7%
 EFFECTIVE MASS     13.6514
 FORCE CONSTANT      1.3459

 VIBRATION         11   11A           ATOM PAIR      ENERGY CONTRIBUTION    RADIAL
 FREQUENCY           886.72         C  1 -- H  3         +33.6% ( 59.6%)      0.0%
 TRANSITION DIPOLE   2.2748         C  1 -- H  2         +28.7% ( 55.1%)      0.0%
 TRAVEL (Ang.)       0.4114         H  8 -- O  9         +11.8% ( 35.4%)      7.3%
 REDUCED MASS        0.4493         C  1 -- N  5          +8.8% ( 30.6%)      5.1%
 EFFECTIVE MASS      2.7460
 FORCE CONSTANT      0.2081

 VIBRATION         12   12A           ATOM PAIR      ENERGY CONTRIBUTION    RADIAL
 FREQUENCY          1041.83         H  8 -- O  9         +49.9% ( 62.7%)      2.1%
 TRANSITION DIPOLE   1.6564         O  9 -- H 10         +22.3% ( 41.9%)      3.7%
 TRAVEL (Ang.)       0.3459         H  4 -- O  9         +14.5% ( 33.8%)      7.2%
 REDUCED MASS        0.5408         C  1 -- H  2          +5.3% ( 20.4%)      2.7%
 EFFECTIVE MASS      2.6169
 FORCE CONSTANT      0.3459

 VIBRATION         13   13A           ATOM PAIR      ENERGY CONTRIBUTION    RADIAL
 FREQUENCY          1062.25         O  9 -- H 10         +38.4% ( 54.3%)      7.4%
 TRANSITION DIPOLE   0.5755         H  8 -- O  9         +27.4% ( 45.8%)      3.9%
 TRAVEL (Ang.)       0.3924         H  4 -- O  9         +18.5% ( 37.6%)      0.4%
 REDUCED MASS        0.4123         C  1 -- H  3          +6.6% ( 22.4%)     13.9%
 EFFECTIVE MASS      2.2297
 FORCE CONSTANT      0.2741

 VIBRATION         14   14A           ATOM PAIR      ENERGY CONTRIBUTION    RADIAL
 FREQUENCY          1074.94         C  1 -- H  2         +36.4% ( 76.7%)     16.2%
 TRANSITION DIPOLE   0.1297         C  1 -- H  3         +34.1% ( 74.2%)     17.4%
 TRAVEL (Ang.)       0.2492         C  1 -- N  5         +13.5% ( 46.7%)      0.0%
 REDUCED MASS        1.0105         O  6 -- O  7          +5.7% ( 30.3%)      0.2%
 EFFECTIVE MASS      5.5615
 FORCE CONSTANT      0.6879

 VIBRATION         15   15A           ATOM PAIR      ENERGY CONTRIBUTION    RADIAL
 FREQUENCY          1217.07         O  6 -- O  7         +31.1% ( 71.1%)    100.0%
 TRANSITION DIPOLE   1.3947         N  5 -- O  7         +15.3% ( 49.8%)     98.8%
 TRAVEL (Ang.)       0.1333         C  1 -- H  3         +15.2% ( 49.7%)     92.9%
 REDUCED MASS        3.1168         N  5 -- O  6         +14.9% ( 49.2%)     98.8%
 EFFECTIVE MASS     12.0093         C  1 -- H  2         +14.4% ( 48.2%)     95.6%
 FORCE CONSTANT      2.7201

 VIBRATION         16   16A           ATOM PAIR      ENERGY CONTRIBUTION    RADIAL
 FREQUENCY          1299.83         O  9 -- H 10         +40.9% ( 52.9%)      1.8%
 TRANSITION DIPOLE   0.7129         H  8 -- O  9         +38.1% ( 51.1%)      3.1%
 TRAVEL (Ang.)       0.3580         H  4 -- O  9         +14.3% ( 31.3%)     83.2%
 REDUCED MASS        0.4047         C  1 -- H  3          +2.2% ( 12.3%)      2.4%
 EFFECTIVE MASS      1.5486
 FORCE CONSTANT      0.4029

 VIBRATION         17   17A           ATOM PAIR      ENERGY CONTRIBUTION    RADIAL
 FREQUENCY          1351.86         C  1 -- H  3         +38.0% ( 66.2%)      2.1%
 TRANSITION DIPOLE   0.6780         C  1 -- H  2         +35.9% ( 64.3%)      2.4%
 TRAVEL (Ang.)       0.2702         C  1 -- N  5         +11.1% ( 35.8%)     99.6%
 REDUCED MASS        0.6833         O  6 -- O  7          +5.0% ( 24.1%)    100.0%
 EFFECTIVE MASS      4.2470
 FORCE CONSTANT      0.7357

 VIBRATION         18   18A           ATOM PAIR      ENERGY CONTRIBUTION    RADIAL
 FREQUENCY          1478.82         H  4 -- O  9         +47.3% ( 82.4%)     99.5%
 TRANSITION DIPOLE   5.3663         C  1 -- N  5         +16.9% ( 49.2%)     89.5%
 TRAVEL (Ang.)       0.1917         N  5 -- O  6         +11.8% ( 41.2%)     68.3%
 REDUCED MASS        1.2410         N  5 -- O  7          +9.5% ( 36.9%)     14.2%
 EFFECTIVE MASS      5.9292
 FORCE CONSTANT      1.5990

 VIBRATION         19   19A           ATOM PAIR      ENERGY CONTRIBUTION    RADIAL
 FREQUENCY          1513.54         N  5 -- O  7         +35.3% ( 83.6%)     89.2%
 TRANSITION DIPOLE   9.5883         N  5 -- O  6         +33.7% ( 81.6%)     83.2%
 TRAVEL (Ang.)       0.0833         C  1 -- N  5         +22.4% ( 66.6%)      0.5%
 REDUCED MASS        6.4131         O  6 -- O  7          +6.0% ( 34.4%)      0.2%
 EFFECTIVE MASS     13.8724
 FORCE CONSTANT      8.6557

 VIBRATION         20   20A           ATOM PAIR      ENERGY CONTRIBUTION    RADIAL
 FREQUENCY          1686.82         C  1 -- N  5         +35.2% ( 79.2%)    100.0%
 TRANSITION DIPOLE   5.1983         N  5 -- O  7         +18.9% ( 58.0%)     42.9%
 TRAVEL (Ang.)       0.1024         N  5 -- O  6         +18.8% ( 57.9%)     41.6%
 REDUCED MASS        3.8092         H  4 -- O  9         +10.4% ( 43.1%)     98.8%
 EFFECTIVE MASS     10.6370
 FORCE CONSTANT      6.3860

 VIBRATION         21   21A           ATOM PAIR      ENERGY CONTRIBUTION    RADIAL
 FREQUENCY          2492.93         H  8 -- O  9         +54.5% ( 77.0%)     96.6%
 TRANSITION DIPOLE   2.4295         O  9 -- H 10         +45.1% ( 70.0%)     96.1%
 TRAVEL (Ang.)       0.2294         H  4 -- O  9          +0.5% (  7.1%)      0.0%
 REDUCED MASS        0.5142
 EFFECTIVE MASS      1.4553
 FORCE CONSTANT      1.8828

 VIBRATION         22   22A           ATOM PAIR      ENERGY CONTRIBUTION    RADIAL
 FREQUENCY          2687.86         O  9 -- H 10         +55.4% ( 70.9%)     99.2%
 TRANSITION DIPOLE   1.7206         H  8 -- O  9         +44.1% ( 63.3%)     98.8%
 TRAVEL (Ang.)       0.2283         H  4 -- O  9          +0.4% (  6.3%)     11.8%
 REDUCED MASS        0.4813
 EFFECTIVE MASS      1.2264
 FORCE CONSTANT      2.0486

 VIBRATION         23   23A           ATOM PAIR      ENERGY CONTRIBUTION    RADIAL
 FREQUENCY          2705.48         C  1 -- H  2         +54.3% ( 76.1%)     99.0%
 TRANSITION DIPOLE   1.2753         C  1 -- H  3         +44.4% ( 68.8%)     98.4%
 TRAVEL (Ang.)       0.2202         C  1 -- N  5          +1.1% ( 10.9%)      0.0%
 REDUCED MASS        0.5140
 EFFECTIVE MASS      1.5192
 FORCE CONSTANT      2.2165

 VIBRATION         24   24A           ATOM PAIR      ENERGY CONTRIBUTION    RADIAL
 FREQUENCY          2772.92         C  1 -- H  3         +55.1% ( 72.8%)     96.4%
 TRANSITION DIPOLE   1.1906         C  1 -- H  2         +44.0% ( 65.0%)     94.8%
 TRAVEL (Ang.)       0.2240         C  1 -- N  5          +0.6% (  7.5%)     93.0%
 REDUCED MASS        0.4848
 EFFECTIVE MASS      1.2363
 FORCE CONSTANT      2.1965

      SYMMETRY NUMBER FOR POINT-GROUP C1  =  1


          SYSTEM IS A GROUND STATE



 Title: ASE calculation


          MOLECULE IS NOT LINEAR

          THERE ARE 24 GENUINE VIBRATIONS IN THIS SYSTEM
          THIS THERMODYNAMICS CALCULATION IS LIMITED TO
          MOLECULES WHICH HAVE NO INTERNAL ROTATIONS




                    CALCULATED THERMODYNAMIC PROPERTIES
                                          *
   TEMP. (K)   PARTITION FUNCTION   H.O.F.    ENTHALPY  HEAT CAPACITY ENTROPY
                                   KCAL/MOL   CAL/MOLE    CAL/K/MOL  CAL/K/MOL


 298.00  VIB.     0.6374D+02                  2762.5349    17.2233    17.5267
         ROT.     0.1311D+06                   888.2803     2.9808    26.3976
         INT.     0.8357D+07                  3650.8152    20.2041    43.9243
         TRA.     0.6926D+27                  1480.4672     4.9680    39.0529
         TOT.                      -69.070    5131.2824    25.1721    82.9772

   *: NOTE: HEATS OF FORMATION ARE RELATIVE TO THE
            ELEMENTS IN THEIR STANDARD STATE AT 298K
              (=  Standard Enthalpy of Formation).

            Hvib:  Zero-point energy is not included.
                   frequencies of less than zero cm-1 are not included.
            Hrot = (3/2)RT
            Htra = (3/2)RT + pV = (5/2)RT

            Heat capacity is Cp, not Cv

          For more information, see: HTTP://OpenMOPAC.net/Manual/thermochemistry.html


           FORCE CONSTANT IN CARTESIAN COORDINATES (Millidynes/A)

    ATOM   CHEMICAL       X               Y               Z
   NUMBER   SYMBOL  FORCE CONSTANT  FORCE CONSTANT  FORCE CONSTANT

      1       C        8.391749       10.471765        1.258843
      2       H        4.170134        0.722607        0.310954
      3       H        1.274868        3.662341        0.313589
      4       H        0.965355        0.591219        1.439926
      5       N       12.958474       13.821715        3.381122
      6       O       10.065243        1.581883        0.485269
      7       O        3.300013        8.364240        0.468813
      8       H        0.584097        2.095322        2.043292
      9       O        3.059613        4.408708        4.638663
     10       H        1.036241        2.750580        0.863072

 **********************
 *                    *
 * JOB ENDED NORMALLY *
 *                    *
 **********************



 TOTAL JOB TIME:             0.41 SECONDS

 == MOPAC DONE ==
