
                                 *****************
                                 * O   R   C   A *
                                 *****************

                                            #,                                       
                                            ###                                      
                                            ####                                     
                                            #####                                    
                                            ######                                   
                                           ########,                                 
                                     ,,################,,,,,                         
                               ,,#################################,,                 
                          ,,##########################################,,             
                       ,#########################################, ''#####,          
                    ,#############################################,,   '####,        
                  ,##################################################,,,,####,       
                ,###########''''           ''''###############################       
              ,#####''   ,,,,##########,,,,          '''####'''          '####       
            ,##' ,,,,###########################,,,                        '##       
           ' ,,###''''                  '''############,,,                           
         ,,##''                                '''############,,,,        ,,,,,,###''
      ,#''                                            '''#######################'''  
     '                                                          ''''####''''         
             ,#######,   #######,   ,#######,      ##                                
            ,#'     '#,  ##    ##  ,#'     '#,    #''#        ######   ,####,        
            ##       ##  ##   ,#'  ##            #'  '#       #        #'  '#        
            ##       ##  #######   ##           ,######,      #####,   #    #        
            '#,     ,#'  ##    ##  '#,     ,#' ,#      #,         ##   #,  ,#        
             '#######'   ##     ##  '#######'  #'      '#     #####' # '####'        



                  #######################################################
                  #                        -***-                        #
                  #          Department of theory and spectroscopy      #
                  #    Directorship and core code : Frank Neese         #
                  #        Max Planck Institute fuer Kohlenforschung    #
                  #                Kaiser Wilhelm Platz 1               #
                  #                 D-45470 Muelheim/Ruhr               #
                  #                      Germany                        #
                  #                                                     #
                  #                  All rights reserved                #
                  #                        -***-                        #
                  #######################################################


                         Program Version 5.0.4 -  RELEASE  -


 With contributions from (in alphabetic order):
   Daniel Aravena         : Magnetic Suceptibility
   Michael Atanasov       : Ab Initio Ligand Field Theory (pilot matlab implementation)
   Alexander A. Auer      : GIAO ZORA, VPT2 properties, NMR spectrum
   Ute Becker             : Parallelization
   Giovanni Bistoni       : ED, misc. LED, open-shell LED, HFLD
   Martin Brehm           : Molecular dynamics
   Dmytro Bykov           : SCF Hessian
   Vijay G. Chilkuri      : MRCI spin determinant printing, contributions to CSF-ICE
   Dipayan Datta          : RHF DLPNO-CCSD density
   Achintya Kumar Dutta   : EOM-CC, STEOM-CC
   Dmitry Ganyushin       : Spin-Orbit,Spin-Spin,Magnetic field MRCI
   Miquel Garcia          : C-PCM and meta-GGA Hessian, CC/C-PCM, Gaussian charge scheme
   Yang Guo               : DLPNO-NEVPT2, F12-NEVPT2, CIM, IAO-localization
   Andreas Hansen         : Spin unrestricted coupled pair/coupled cluster methods
   Benjamin Helmich-Paris : MC-RPA, TRAH-SCF, COSX integrals
   Lee Huntington         : MR-EOM, pCC
   Robert Izsak           : Overlap fitted RIJCOSX, COSX-SCS-MP3, EOM
   Marcus Kettner         : VPT2
   Christian Kollmar      : KDIIS, OOCD, Brueckner-CCSD(T), CCSD density, CASPT2, CASPT2-K
   Simone Kossmann        : Meta GGA functionals, TD-DFT gradient, OOMP2, MP2 Hessian
   Martin Krupicka        : Initial AUTO-CI
   Lucas Lang             : DCDCAS
   Marvin Lechner         : AUTO-CI (C++ implementation), FIC-MRCC
   Dagmar Lenk            : GEPOL surface, SMD
   Dimitrios Liakos       : Extrapolation schemes; Compound Job, initial MDCI parallelization
   Dimitrios Manganas     : Further ROCIS development; embedding schemes
   Dimitrios Pantazis     : SARC Basis sets
   Anastasios Papadopoulos: AUTO-CI, single reference methods and gradients
   Taras Petrenko         : DFT Hessian,TD-DFT gradient, ASA, ECA, R-Raman, ABS, FL, XAS/XES, NRVS
   Peter Pinski           : DLPNO-MP2, DLPNO-MP2 Gradient
   Christoph Reimann      : Effective Core Potentials
   Marius Retegan         : Local ZFS, SOC
   Christoph Riplinger    : Optimizer, TS searches, QM/MM, DLPNO-CCSD(T), (RO)-DLPNO pert. Triples
   Tobias Risthaus        : Range-separated hybrids, TD-DFT gradient, RPA, STAB
   Michael Roemelt        : Original ROCIS implementation
   Masaaki Saitow         : Open-shell DLPNO-CCSD energy and density
   Barbara Sandhoefer     : DKH picture change effects
   Avijit Sen             : IP-ROCIS
   Kantharuban Sivalingam : CASSCF convergence, NEVPT2, FIC-MRCI
   Bernardo de Souza      : ESD, SOC TD-DFT
   Georgi Stoychev        : AutoAux, RI-MP2 NMR, DLPNO-MP2 response
   Willem Van den Heuvel  : Paramagnetic NMR
   Boris Wezisla          : Elementary symmetry handling
   Frank Wennmohs         : Technical directorship


 We gratefully acknowledge several colleagues who have allowed us to
 interface, adapt or use parts of their codes:
   Stefan Grimme, W. Hujo, H. Kruse, P. Pracht,  : VdW corrections, initial TS optimization,
                  C. Bannwarth, S. Ehlert          DFT functionals, gCP, sTDA/sTD-DF
   Ed Valeev, F. Pavosevic, A. Kumar             : LibInt (2-el integral package), F12 methods
   Garnet Chan, S. Sharma, J. Yang, R. Olivares  : DMRG
   Ulf Ekstrom                                   : XCFun DFT Library
   Mihaly Kallay                                 : mrcc  (arbitrary order and MRCC methods)
   Jiri Pittner, Ondrej Demel                    : Mk-CCSD
   Frank Weinhold                                : gennbo (NPA and NBO analysis)
   Christopher J. Cramer and Donald G. Truhlar   : smd solvation model
   Lars Goerigk                                  : TD-DFT with DH, B97 family of functionals
   V. Asgeirsson, H. Jonsson                     : NEB implementation
   FAccTs GmbH                                   : IRC, NEB, NEB-TS, DLPNO-Multilevel, CI-OPT
                                                   MM, QMMM, 2- and 3-layer-ONIOM, Crystal-QMMM,
                                                   LR-CPCM, SF, NACMEs, symmetry and pop. for TD-DFT,
                                                   nearIR, NL-DFT gradient (VV10), updates on ESD,
                                                   ML-optimized integration grids
   S Lehtola, MJT Oliveira, MAL Marques          : LibXC Library
   Liviu Ungur et al                             : ANISO software


 Your calculation uses the libint2 library for the computation of 2-el integrals
 For citations please refer to: http://libint.valeyev.net

 Your ORCA version has been built with support for libXC version: 5.1.0
 For citations please refer to: https://tddft.org/programs/libxc/

 This ORCA versions uses:
   CBLAS   interface :  Fast vector & matrix operations
   LAPACKE interface :  Fast linear algebra routines
   SCALAPACK package :  Parallel linear algebra routines
   Shared memory     :  Shared parallel matrices
   BLAS/LAPACK       :  OpenBLAS 0.3.15  USE64BITINT DYNAMIC_ARCH NO_AFFINITY Prescott SINGLE_THREADED
        Core in use  :  Prescott
   Copyright (c) 2011-2014, The OpenBLAS Project


Your calculation utilizes the atom-pairwise dispersion correction
with the Becke-Johnson damping scheme (D3BJ)
Cite in your paper:
S.Grimme, S.Ehrlich, L.Goerigk, J Comput Chem, (2011), 32, 1456–1465 
S.Grimme, J.Antony, S.Ehrlich and H.Krieg, J.Chem.Phys., 132, (2010), 154104 
   

================================================================================

----- Orbital basis set information -----
Your calculation utilizes the basis: def2-TZVP
   F. Weigend and R. Ahlrichs, Phys. Chem. Chem. Phys. 7, 3297 (2005).

----- AuxJ basis set information -----
Your calculation utilizes the auxiliary basis: def2/J
   F. Weigend, Phys. Chem. Chem. Phys. 8, 1057 (2006).

================================================================================
                                        WARNINGS
                       Please study these warnings very carefully!
================================================================================

WARNING: Gradients needed for Numerical Frequencies
  ===> : Setting RunTyp to EnGrad

INFO   : the flag for use of the SHARK integral package has been found!

================================================================================
                                       INPUT FILE
================================================================================
NAME = /home/rudenko/mop_saddle_orca_4_serv/for_orca/CH2CHCH2NO2_lutidine/orca/freq_D/f_D.inp
|  1> !  NUMFREQ B3LYP def2-TZVP CPCM D3 
|  2> %pal nprocs 102 end
|  3> %cpcm epsilon 78.4 end 
|  4> *xyz 0 1 
|  5> C   -3.43590126986819 1.62827858923163 0.03348448744325
|  6> H   -4.30045060393109 1.63504097995275 -0.62049846247739
|  7> N   -4.5503852382127 -0.05770037148476 1.44862935356727
|  8> O   -5.59227870671658 0.05137955733031 0.7856524821967
|  9> O   -4.51536324518204 -0.71602820688914 2.50148803421374
| 10> H   -1.62670502095901 2.59983837119339 0.5450242056216
| 11> C   -3.32766140048286 0.48833485995517 0.95285556892107
| 12> H   -2.83108900097449 -0.52420901829676 0.26126113305814 M = 2
| 13> H   -2.63224526096528 0.60384681750157 1.77854410457971
| 14> C   -2.50827361460643 2.57926150959432 -0.08646230930846
| 15> H   -2.60197871658528 3.36203073698079 -0.82817263366048
| 16> C   1.13003771704476 -1.54226335134196 -0.01113719743779
| 17> C   2.45519625058382 -1.14483820726731 0.01393841308727
| 18> C   2.77021641781136 0.13059980320805 -0.49351001092717
| 19> C   1.73689172282685 0.92247135008101 -0.99342522631331
| 20> C   0.43883084444291 0.45582811257506 -0.98337309797209
| 21> N   0.16150878644831 -0.7567736328622 -0.49759492936699
| 22> H   0.81613994006464 -2.50778044640303 0.36298677995863
| 23> H   1.94536171151525 1.90690165701082 -1.38949192607746
| 24> H   -0.39911471227142 1.03142733953187 -1.35042969174716
| 25> C   3.50832009783417 -2.05550003454713 0.56843853582896
| 26> H   4.02632002741885 -1.58449753095319 1.40712786918324
| 27> H   4.26329372372352 -2.28127318959558 -0.18821216071129
| 28> H   3.07181746184515 -2.99173408768091 0.91249946851097
| 29> C   4.18150937133805 0.62531921453191 -0.49462147916662
| 30> H   4.24831190879161 1.6238877132078 -0.92188872254792
| 31> H   4.823441019375 -0.04799903712755 -1.06805220200262
| 32> H   4.57997680954552 0.64900483256407 0.52285130605062
| 33> H   -0.92756920572266 -1.11326445951601 -0.4861242322023
| 34> O   -2.25542666727211 -1.49466781345296 -0.40075177960311
| 35> H   -2.65273114685968 -1.47492205703202 -1.28103568069904
| 36> *
| 37> 
| 38>                          ****END OF INPUT****
================================================================================

                     *******************************
                     * Energy+Gradient Calculation *
                     *******************************

---------------------------------
CARTESIAN COORDINATES (ANGSTROEM)
---------------------------------
  C     -3.435901    1.628279    0.033484
  H     -4.300451    1.635041   -0.620498
  N     -4.550385   -0.057700    1.448629
  O     -5.592279    0.051380    0.785652
  O     -4.515363   -0.716028    2.501488
  H     -1.626705    2.599838    0.545024
  C     -3.327661    0.488335    0.952856
  H     -2.831089   -0.524209    0.261261
  H     -2.632245    0.603847    1.778544
  C     -2.508274    2.579262   -0.086462
  H     -2.601979    3.362031   -0.828173
  C      1.130038   -1.542263   -0.011137
  C      2.455196   -1.144838    0.013938
  C      2.770216    0.130600   -0.493510
  C      1.736892    0.922471   -0.993425
  C      0.438831    0.455828   -0.983373
  N      0.161509   -0.756774   -0.497595
  H      0.816140   -2.507780    0.362987
  H      1.945362    1.906902   -1.389492
  H     -0.399115    1.031427   -1.350430
  C      3.508320   -2.055500    0.568439
  H      4.026320   -1.584498    1.407128
  H      4.263294   -2.281273   -0.188212
  H      3.071817   -2.991734    0.912499
  C      4.181509    0.625319   -0.494621
  H      4.248312    1.623888   -0.921889
  H      4.823441   -0.047999   -1.068052
  H      4.579977    0.649005    0.522851
  H     -0.927569   -1.113264   -0.486124
  O     -2.255427   -1.494668   -0.400752
  H     -2.652731   -1.474922   -1.281036

----------------------------
CARTESIAN COORDINATES (A.U.)
----------------------------
  NO LB      ZA    FRAG     MASS         X           Y           Z
   0 C     6.0000    0    12.011   -6.492912    3.077001    0.063277
   1 H     1.0000    0     1.008   -8.126674    3.089780   -1.172572
   2 N     7.0000    0    14.007   -8.598982   -0.109038    2.737513
   3 O     8.0000    0    15.999  -10.567875    0.097093    1.484668
   4 O     8.0000    0    15.999   -8.532800   -1.353097    4.727127
   5 H     1.0000    0     1.008   -3.074027    4.912983    1.029946
   6 C     6.0000    0    12.011   -6.288369    0.922819    1.800636
   7 H     1.0000    0     2.000   -5.349983   -0.990611    0.493712
   8 H     1.0000    0     1.008   -4.974223    1.141105    3.360961
   9 C     6.0000    0    12.011   -4.739950    4.874098   -0.163390
  10 H     1.0000    0     1.008   -4.917027    6.353317   -1.565019
  11 C     6.0000    0    12.011    2.135462   -2.914455   -0.021046
  12 C     6.0000    0    12.011    4.639649   -2.163431    0.026340
  13 C     6.0000    0    12.011    5.234950    0.246798   -0.932599
  14 C     6.0000    0    12.011    3.282250    1.743218   -1.877302
  15 C     6.0000    0    12.011    0.829270    0.861390   -1.858306
  16 N     7.0000    0    14.007    0.305207   -1.430095   -0.940318
  17 H     1.0000    0     1.008    1.542281   -4.739018    0.685946
  18 H     1.0000    0     1.008    3.676201    3.603522   -2.625759
  19 H     1.0000    0     1.008   -0.754218    1.949115   -2.551942
  20 C     6.0000    0    12.011    6.629764   -3.884332    1.074193
  21 H     1.0000    0     1.008    7.608642   -2.994266    2.659086
  22 H     1.0000    0     1.008    8.056458   -4.310982   -0.355669
  23 H     1.0000    0     1.008    5.804894   -5.653558    1.724374
  24 C     6.0000    0    12.011    7.901908    1.181682   -0.934699
  25 H     1.0000    0     1.008    8.028146    3.068703   -1.742117
  26 H     1.0000    0     1.008    9.114983   -0.090705   -2.018326
  27 H     1.0000    0     1.008    8.654902    1.226441    0.988046
  28 H     1.0000    0     1.008   -1.752852   -2.103765   -0.918642
  29 O     8.0000    0    15.999   -4.262139   -2.824513   -0.757311
  30 H     1.0000    0     1.008   -5.012935   -2.787199   -2.420807

--------------------------------
INTERNAL COORDINATES (ANGSTROEM)
--------------------------------
 C      0   0   0     0.000000000000     0.00000000     0.00000000
 H      1   0   0     1.084059490869     0.00000000     0.00000000
 N      1   2   0     2.467232166577    89.42921254     0.00000000
 O      3   1   2     1.239749475722    90.73165986   353.41121703
 O      3   1   2     1.242229238215   146.67289911   186.89236044
 H      1   2   3     2.116315751552   145.56121495   192.05960587
 C      3   1   2     1.427935468734    32.08621648   150.56886660
 H      7   3   1     1.322925590143   102.13661265   243.49706358
 H      7   3   1     1.085683276723   108.97252819   134.10723464
 C      6   1   2     1.084602144142    32.40393052     0.74366550
 H     10   6   1     1.082424369058   117.10389153   180.47622120
 C      8   7   3     4.098921852353   125.98555892   216.96630860
 C     12   8   7     1.383698186165   148.53473492   331.44990152
 C     13  12   8     1.408362072537   117.89138081   326.30389478
 C     14  13  12     1.394537806797   118.53318682   359.94143209
 C     15  14  13     1.379427055116   120.17004654     0.10111092
 N     16  15  14     1.335399171028   120.34804303   359.89772299
 H     12   8   7     1.081999919460    85.31360068   123.17859212
 H     15  14  13     1.081402605900   120.35584016   179.95444831
 H     16  15  14     1.080831980062   123.15579952   179.46636601
 C     13  12   8     1.498614422536   120.34279416   146.24897438
 H     21  13  12     1.092504958032   110.80938841   239.25990755
 H     21  13  12     1.092464630962   110.79047825   120.59251459
 H     21  13  12     1.088782199924   110.96039000   359.93246518
 C     14  13  12     1.495492003314   120.72629916   179.86837764
 H     25  14  13     1.088190664739   111.20994384   179.86298901
 H     25  14  13     1.092820434775   110.54274745    58.81455908
 H     25  14  13     1.092972175525   110.51932140   300.89201893
 H     17  16  15     1.145996579145   118.91204089   179.05232991
 O      8   7   3     1.308219588628   175.94029326   211.34880710
 H     30   8   7     0.965991972495   105.36673147   231.99339665

---------------------------
INTERNAL COORDINATES (A.U.)
---------------------------
 C      0   0   0     0.000000000000     0.00000000     0.00000000
 H      1   0   0     2.048575550621     0.00000000     0.00000000
 N      1   2   0     4.662393103632    89.42921254     0.00000000
 O      3   1   2     2.342786983788    90.73165986   353.41121703
 O      3   1   2     2.347473055776   146.67289911   186.89236044
 H      1   2   3     3.999257183337   145.56121495   192.05960587
 C      3   1   2     2.698406972820    32.08621648   150.56886660
 H      7   3   1     2.499967060927   102.13661265   243.49706358
 H      7   3   1     2.051644061185   108.97252819   134.10723464
 C      6   1   2     2.049601016692    32.40393052     0.74366550
 H     10   6   1     2.045485618202   117.10389153   180.47622120
 C      8   7   3     7.745839745292   125.98555892   216.96630860
 C     12   8   7     2.614810623856   148.53473492   331.44990152
 C     13  12   8     2.661418614496   117.89138081   326.30389478
 C     14  13  12     2.635294538246   118.53318682   359.94143209
 C     15  14  13     2.606739355890   120.17004654     0.10111092
 N     16  15  14     2.523538712708   120.34804303   359.89772299
 H     12   8   7     2.044683524704    85.31360068   123.17859212
 H     15  14  13     2.043554765660   120.35584016   179.95444831
 H     16  15  14     2.042476439101   123.15579952   179.46636601
 C     13  12   8     2.831970838937   120.34279416   146.24897438
 H     21  13  12     2.064535170631   110.80938841   239.25990755
 H     21  13  12     2.064458963514   110.79047825   120.59251459
 H     21  13  12     2.057500177344   110.96039000   359.93246518
 C     14  13  12     2.826070321733   120.72629916   179.86837764
 H     25  14  13     2.056382337846   111.20994384   179.86298901
 H     25  14  13     2.065131335277   110.54274745    58.81455908
 H     25  14  13     2.065418083738   110.51932140   300.89201893
 H     17  16  15     2.165619684995   118.91204089   179.05232991
 O      8   7   3     2.472176745538   175.94029326   211.34880710
 H     30   8   7     1.825460275583   105.36673147   231.99339665

---------------------
BASIS SET INFORMATION
---------------------
There are 4 groups of distinct atoms

 Group   1 Type C   : 11s6p2d1f contracted to 5s3p2d1f pattern {62111/411/11/1}
 Group   2 Type H   : 5s1p contracted to 3s1p pattern {311/1}
 Group   3 Type N   : 11s6p2d1f contracted to 5s3p2d1f pattern {62111/411/11/1}
 Group   4 Type O   : 11s6p2d1f contracted to 5s3p2d1f pattern {62111/411/11/1}

Atom   0C    basis set group =>   1
Atom   1H    basis set group =>   2
Atom   2N    basis set group =>   3
Atom   3O    basis set group =>   4
Atom   4O    basis set group =>   4
Atom   5H    basis set group =>   2
Atom   6C    basis set group =>   1
Atom   7H    basis set group =>   2
Atom   8H    basis set group =>   2
Atom   9C    basis set group =>   1
Atom  10H    basis set group =>   2
Atom  11C    basis set group =>   1
Atom  12C    basis set group =>   1
Atom  13C    basis set group =>   1
Atom  14C    basis set group =>   1
Atom  15C    basis set group =>   1
Atom  16N    basis set group =>   3
Atom  17H    basis set group =>   2
Atom  18H    basis set group =>   2
Atom  19H    basis set group =>   2
Atom  20C    basis set group =>   1
Atom  21H    basis set group =>   2
Atom  22H    basis set group =>   2
Atom  23H    basis set group =>   2
Atom  24C    basis set group =>   1
Atom  25H    basis set group =>   2
Atom  26H    basis set group =>   2
Atom  27H    basis set group =>   2
Atom  28H    basis set group =>   2
Atom  29O    basis set group =>   4
Atom  30H    basis set group =>   2
---------------------------------
AUXILIARY/J BASIS SET INFORMATION
---------------------------------
There are 4 groups of distinct atoms

 Group   1 Type C   : 12s5p4d2f1g contracted to 6s4p3d1f1g pattern {711111/2111/211/2/1}
 Group   2 Type H   : 5s2p1d contracted to 3s1p1d pattern {311/2/1}
 Group   3 Type N   : 12s5p4d2f1g contracted to 6s4p3d1f1g pattern {711111/2111/211/2/1}
 Group   4 Type O   : 12s5p4d2f1g contracted to 6s4p3d1f1g pattern {711111/2111/211/2/1}

Atom   0C    basis set group =>   1
Atom   1H    basis set group =>   2
Atom   2N    basis set group =>   3
Atom   3O    basis set group =>   4
Atom   4O    basis set group =>   4
Atom   5H    basis set group =>   2
Atom   6C    basis set group =>   1
Atom   7H    basis set group =>   2
Atom   8H    basis set group =>   2
Atom   9C    basis set group =>   1
Atom  10H    basis set group =>   2
Atom  11C    basis set group =>   1
Atom  12C    basis set group =>   1
Atom  13C    basis set group =>   1
Atom  14C    basis set group =>   1
Atom  15C    basis set group =>   1
Atom  16N    basis set group =>   3
Atom  17H    basis set group =>   2
Atom  18H    basis set group =>   2
Atom  19H    basis set group =>   2
Atom  20C    basis set group =>   1
Atom  21H    basis set group =>   2
Atom  22H    basis set group =>   2
Atom  23H    basis set group =>   2
Atom  24C    basis set group =>   1
Atom  25H    basis set group =>   2
Atom  26H    basis set group =>   2
Atom  27H    basis set group =>   2
Atom  28H    basis set group =>   2
Atom  29O    basis set group =>   4
Atom  30H    basis set group =>   2


           ************************************************************
           *        Program running with 102 parallel MPI-processes   *
           *              working on a common directory               *
           ************************************************************
------------------------------------------------------------------------------
                           ORCA GTO INTEGRAL CALCULATION
                           -- RI-GTO INTEGRALS CHOSEN --
------------------------------------------------------------------------------
------------------------------------------------------------------------------
                   ___                                                        
                  /   \      - P O W E R E D   B Y -                         
                 /     \                                                     
                 |  |  |   _    _      __       _____    __    __             
                 |  |  |  | |  | |    /  \     |  _  \  |  |  /  |          
                  \  \/   | |  | |   /    \    | | | |  |  | /  /          
                 / \  \   | |__| |  /  /\  \   | |_| |  |  |/  /          
                |  |  |   |  __  | /  /__\  \  |    /   |      \           
                |  |  |   | |  | | |   __   |  |    \   |  |\   \          
                \     /   | |  | | |  |  |  |  | |\  \  |  | \   \       
                 \___/    |_|  |_| |__|  |__|  |_| \__\ |__|  \__/        
                                                                              
                      - O R C A' S   B I G   F R I E N D -                    
                                      &                                       
                       - I N T E G R A L  F E E D E R -                       
                                                                              
 v1 FN, 2020, v2 2021                                                         
------------------------------------------------------------------------------


Reading SHARK input file /home/rudenko/mop_saddle_orca_4_serv/for_orca/CH2CHCH2NO2_lutidine/orca/freq_D/f_D.SHARKINP.tmp ... ok
----------------------
SHARK INTEGRAL PACKAGE
----------------------

Number of atoms                             ...     31
Number of basis functions                   ...    561
Number of shells                            ...    229
Maximum angular momentum                    ...      3
Integral batch strategy                     ... SHARK/LIBINT Hybrid
RI-J (if used) integral strategy            ... SPLIT-RIJ (Revised 2003 algorithm where possible)
Printlevel                                  ...      1
Contraction scheme used                     ... SEGMENTED contraction
Coulomb Range Separation                    ... NOT USED
Exchange Range Separation                   ... NOT USED
Finite Nucleus Model                        ... NOT USED
Auxiliary Coulomb fitting basis             ... AVAILABLE
   # of basis functions in Aux-J            ...    911
   # of shells in Aux-J                     ...    305
   Maximum angular momentum in Aux-J        ...      4
Auxiliary J/K fitting basis                 ... NOT available
Auxiliary Correlation fitting basis         ... NOT available
Auxiliary 'external' fitting basis          ... NOT available
Integral threshold                          ...     2.500000e-11
Primitive cut-off                           ...     2.500000e-12
Primitive pair pre-selection threshold      ...     2.500000e-12

Calculating pre-screening integrals         ... done (  0.1 sec) Dimension = 229
Organizing shell pair data                  ... done (  0.5 sec)
Shell pair information
Total number of shell pairs                 ...     26335
Shell pairs after pre-screening             ...     18785
Total number of primitive shell pairs       ...     78984
Primitive shell pairs kept                  ...     38694
          la=0 lb=0:   5387 shell pairs
          la=1 lb=0:   5551 shell pairs
          la=1 lb=1:   1464 shell pairs
          la=2 lb=0:   2542 shell pairs
          la=2 lb=1:   1330 shell pairs
          la=2 lb=2:    312 shell pairs
          la=3 lb=0:   1200 shell pairs
          la=3 lb=1:    643 shell pairs
          la=3 lb=2:    283 shell pairs
          la=3 lb=3:     73 shell pairs

Calculating one electron integrals          ... done (  0.1 sec)
Calculating RI/J V-Matrix + Cholesky decomp.... done (  0.1 sec)
Calculating Nuclear repulsion               ... done (  0.0 sec) ENN=    955.039256260082 Eh

SHARK setup successfully completed in   1.2 seconds

Maximum memory used throughout the entire GTOINT-calculation: 30.6 MB


           ************************************************************
           *        Program running with 102 parallel MPI-processes   *
           *              working on a common directory               *
           ************************************************************
-------------------------------------------------------------------------------
                                 ORCA SCF
-------------------------------------------------------------------------------

------------
SCF SETTINGS
------------
Hamiltonian:
 Density Functional     Method          .... DFT(GTOs)
 Exchange Functional    Exchange        .... B88
   X-Alpha parameter    XAlpha          ....  0.666667
   Becke's b parameter  XBeta           ....  0.004200
 Correlation Functional Correlation     .... LYP
 LDA part of GGA corr.  LDAOpt          .... VWN-5
 Gradients option       PostSCFGGA      .... off
 Hybrid DFT is turned on
   Fraction HF Exchange ScalHFX         ....  0.200000
   Scaling of DF-GGA-X  ScalDFX         ....  0.720000
   Scaling of DF-GGA-C  ScalDFC         ....  0.810000
   Scaling of DF-LDA-C  ScalLDAC        ....  1.000000
   Perturbative correction              ....  0.000000
   Density functional embedding theory  .... OFF
   NL short-range parameter             ....  4.800000
 RI-approximation to the Coulomb term is turned on
   Number of AuxJ basis functions       .... 911
   RIJ-COSX (HFX calculated with COS-X)).... on


General Settings:
 Integral files         IntName         .... /home/rudenko/mop_saddle_orca_4_serv/for_orca/CH2CHCH2NO2_lutidine/orca/freq_D/f_D
 Hartree-Fock type      HFTyp           .... RHF
 Total Charge           Charge          ....    0
 Multiplicity           Mult            ....    1
 Number of Electrons    NEL             ....  114
 Basis Dimension        Dim             ....  561
 Nuclear Repulsion      ENuc            ....    955.0392562601 Eh

Convergence Acceleration:
 DIIS                   CNVDIIS         .... on
   Start iteration      DIISMaxIt       ....    12
   Startup error        DIISStart       ....  0.200000
   # of expansion vecs  DIISMaxEq       ....     5
   Bias factor          DIISBfac        ....   1.050
   Max. coefficient     DIISMaxC        ....  10.000
 Trust-Rad. Augm. Hess. CNVTRAH         .... auto
   Auto Start mean grad. ratio tolernc. ....  1.125000
   Auto Start start iteration           ....    20
   Auto Start num. interpolation iter.  ....    10
   Max. Number of Micro iterations      ....    16
   Max. Number of Macro iterations      .... Maxiter - #DIIS iter
   Number of Davidson start vectors     ....     2
   Converg. threshold I  (grad. norm)   ....   1.000e-05
   Converg. threshold II (energy diff.) ....   1.000e-08
   Grad. Scal. Fac. for Micro threshold ....   0.100
   Minimum threshold for Micro iter.    ....   0.010
   NR start threshold (gradient norm)   ....   0.001
   Initial trust radius                 ....   0.400
   Minimum AH scaling param. (alpha)    ....   1.000
   Maximum AH scaling param. (alpha)    .... 1000.000
   Orbital update algorithm             .... Taylor
   White noise on init. David. guess    .... on
   Maximum white noise                  ....   0.010
   Quad. conv. algorithm                .... NR
 SOSCF                  CNVSOSCF        .... on
   Start iteration      SOSCFMaxIt      ....   150
   Startup grad/error   SOSCFStart      ....  0.003300
 Level Shifting         CNVShift        .... on
   Level shift para.    LevelShift      ....    0.2500
   Turn off err/grad.   ShiftErr        ....    0.0010
 Zerner damping         CNVZerner       .... off
 Static damping         CNVDamp         .... on
   Fraction old density DampFac         ....    0.7000
   Max. Damping (<1)    DampMax         ....    0.9800
   Min. Damping (>=0)   DampMin         ....    0.0000
   Turn off err/grad.   DampErr         ....    0.1000
 Fernandez-Rico         CNVRico         .... off

SCF Procedure:
 Maximum # iterations   MaxIter         ....   125
 SCF integral mode      SCFMode         .... Direct
   Integral package                     .... SHARK and LIBINT hybrid scheme
 Reset frequency        DirectResetFreq ....    20
 Integral Threshold     Thresh          ....  2.500e-11 Eh
 Primitive CutOff       TCut            ....  2.500e-12 Eh

Convergence Tolerance:
 Convergence Check Mode ConvCheckMode   .... Total+1el-Energy
 Convergence forced     ConvForced      .... 0
 Energy Change          TolE            ....  1.000e-08 Eh
 1-El. energy change                    ....  1.000e-05 Eh
 Orbital Gradient       TolG            ....  1.000e-05
 Orbital Rotation angle TolX            ....  1.000e-05
 DIIS Error             TolErr          ....  5.000e-07


Diagonalization of the overlap matrix:
Smallest eigenvalue                        ... 3.389e-05
Time for diagonalization                   ...    0.174 sec
Threshold for overlap eigenvalues          ... 1.000e-08
Number of eigenvalues below threshold      ... 0
Time for construction of square roots      ...    0.241 sec
Total time needed                          ...    0.419 sec

Time for model grid setup =    0.214 sec

------------------------------
INITIAL GUESS: MODEL POTENTIAL
------------------------------
Loading Hartree-Fock densities                     ... done
Calculating cut-offs                               ... done
Initializing the effective Hamiltonian             ... done
Setting up the integral package (SHARK)            ... done
Starting the Coulomb interaction                   ... done (   0.1 sec)
Reading the grid                                   ... done
Mapping shells                                     ... done
Starting the XC term evaluation                    ... done (   0.0 sec)
  promolecular density results
     # of electrons  =    113.989514944
     EX              =    -93.893850297
     EC              =     -3.856744947
     EX+EC           =    -97.750595245
Transforming the Hamiltonian                       ... done (   0.2 sec)
Diagonalizing the Hamiltonian                      ... done (   0.2 sec)
Back transforming the eigenvectors                 ... done (   0.1 sec)
Now organizing SCF variables                       ... done
                      ------------------
                      INITIAL GUESS DONE (   0.9 sec)
                      ------------------
-------------------
DFT GRID GENERATION
-------------------

General Integration Accuracy     IntAcc      ... 4.388
Radial Grid Type                 RadialGrid  ... OptM3 with GC (2021)
Angular Grid (max. ang.)         AngularGrid ... 4 (Lebedev-302)
Angular grid pruning method      GridPruning ... 4 (adaptive)
Weight generation scheme         WeightScheme... Becke
Basis function cutoff            BFCut       ... 1.0000e-11
Integration weight cutoff        WCut        ... 1.0000e-14
Angular grids for H and He will be reduced by one unit
Partially contracted basis set               ... off
Rotationally invariant grid construction     ... off

Total number of grid points                  ...   141438
Total number of batches                      ...     2226
Average number of points per batch           ...       63
Average number of grid points per atom       ...     4563
Time for grid setup =    1.110 sec

--------------------
COSX GRID GENERATION
--------------------

GRIDX 1
-------
General Integration Accuracy     IntAcc      ... 3.816
Radial Grid Type                 RadialGrid  ... OptM3 with GC (2021)
Angular Grid (max. ang.)         AngularGrid ... 1 (Lebedev-50)
Angular grid pruning method      GridPruning ... 4 (adaptive)
Weight generation scheme         WeightScheme... Becke
Basis function cutoff            BFCut       ... 1.0000e-11
Integration weight cutoff        WCut        ... 1.0000e-14
Angular grids for H and He will be reduced by one unit
Partially contracted basis set               ... on
Rotationally invariant grid construction     ... off

Total number of grid points                  ...    18030
Total number of batches                      ...      296
Average number of points per batch           ...       60
Average number of grid points per atom       ...      582
UseSFitting                                  ... on

GRIDX 2
-------
General Integration Accuracy     IntAcc      ... 4.020
Radial Grid Type                 RadialGrid  ... OptM3 with GC (2021)
Angular Grid (max. ang.)         AngularGrid ... 2 (Lebedev-110)
Angular grid pruning method      GridPruning ... 4 (adaptive)
Weight generation scheme         WeightScheme... Becke
Basis function cutoff            BFCut       ... 1.0000e-11
Integration weight cutoff        WCut        ... 1.0000e-14
Angular grids for H and He will be reduced by one unit
Partially contracted basis set               ... on
Rotationally invariant grid construction     ... off

Total number of grid points                  ...    38719
Total number of batches                      ...      619
Average number of points per batch           ...       62
Average number of grid points per atom       ...     1249
UseSFitting                                  ... on

GRIDX 3
-------
General Integration Accuracy     IntAcc      ... 4.338
Radial Grid Type                 RadialGrid  ... OptM3 with GC (2021)
Angular Grid (max. ang.)         AngularGrid ... 3 (Lebedev-194)
Angular grid pruning method      GridPruning ... 4 (adaptive)
Weight generation scheme         WeightScheme... Becke
Basis function cutoff            BFCut       ... 1.0000e-11
Integration weight cutoff        WCut        ... 1.0000e-14
Angular grids for H and He will be reduced by one unit
Partially contracted basis set               ... on
Rotationally invariant grid construction     ... off

Total number of grid points                  ...    84672
Total number of batches                      ...     1340
Average number of points per batch           ...       63
Average number of grid points per atom       ...     2731
UseSFitting                                  ... on

Time for X-Grid setup             =    1.666 sec


--------------------
CPCM SOLVATION MODEL
--------------------
CPCM parameters:
  Epsilon                                         ...      78.4000
  Refrac                                          ...       1.3300
  Rsolv                                           ...       1.3000
  Surface type                                    ... GAUSSIAN VDW
  Epsilon function type                           ...         CPCM
Radii:
 Radius for C  used is    3.8550 Bohr (=   2.0400 Ang.)
 Radius for H  used is    2.4944 Bohr (=   1.3200 Ang.)
 Radius for N  used is    3.5149 Bohr (=   1.8600 Ang.)
 Radius for O  used is    3.4469 Bohr (=   1.8240 Ang.)
Calculating surface                               ...        done! (  0.0s)
GEPOL surface points                              ...         1753
GEPOL Volume                                      ...    1848.8664
GEPOL Surface-area                                ...    1051.1961
Calculating surface distance matrix               ...        done! (  0.2s)
Performing Cholesky decomposition & store         ...        done! (  0.6s)
Overall time for CPCM initialization              ...                 0.7s
--------------
SCF ITERATIONS
--------------
ITER       Energy         Delta-E        Max-DP      RMS-DP      [F,P]     Damp
               ***  Starting incremental Fock matrix formation  ***
  0   -725.1206966963   0.000000000000 0.17021818  0.00105107  0.3470311 0.7000
  1   -725.3661242905  -0.245427594175 0.15860312  0.00080928  0.1278880 0.7000
                               ***Turning on DIIS***
  2   -725.4562332487  -0.090108958205 0.20925897  0.00115496  0.0385533 0.0000
  3   -725.6068160204  -0.150582771752 0.13749133  0.00064317  0.0670732 0.0000
  4   -725.6356515086  -0.028835488170 0.03933749  0.00018459  0.0172080 0.0000
  5   -725.6380383609  -0.002386852273 0.01475005  0.00007853  0.0057415 0.0000
                      *** Initiating the SOSCF procedure ***
                           *** Shutting down DIIS ***
                      *** Re-Reading the Fockian *** 
                      *** Removing any level shift *** 
ITER      Energy       Delta-E        Grad      Rot      Max-DP    RMS-DP
  6   -725.63817543  -0.0001370672  0.000514  0.000514  0.003237  0.000029
               *** Restarting incremental Fock matrix formation ***
  7   -725.63819866  -0.0000232289  0.000127  0.000347  0.001927  0.000020
  8   -725.63819859   0.0000000652  0.000284  0.000932  0.000685  0.000008
  9   -725.63820136  -0.0000027706  0.000046  0.000199  0.000556  0.000005
 10   -725.63820132   0.0000000439  0.000061  0.000098  0.000076  0.000001
 11   -725.63820149  -0.0000001666  0.000027  0.000074  0.000274  0.000001
 12   -725.63820148   0.0000000053  0.000042  0.000052  0.000141  0.000001
 13   -725.63820149  -0.0000000102  0.000005  0.000016  0.000067  0.000000
 14   -725.63820147   0.0000000181  0.000005  0.000008  0.000026  0.000000
                  ***Gradient check signals convergence***
              ***Rediagonalizing the Fockian in SOSCF/NRSCF***

               *****************************************************
               *                     SUCCESS                       *
               *           SCF CONVERGED AFTER  15 CYCLES          *
               *****************************************************

Old exchange energy                            =    -19.057983861 Eh
New exchange energy                            =    -19.057993884 Eh
Exchange energy change after final integration =     -0.000010022 Eh
Total energy after final integration           =   -725.638211520 Eh
Final COS-X integration done in                =     1.912 sec

----------------
TOTAL SCF ENERGY
----------------

Total Energy       :         -725.63821152 Eh          -19745.61958 eV

Components:
Nuclear Repulsion  :          955.03925626 Eh           25987.93936 eV
Electronic Energy  :        -1680.67746778 Eh          -45733.55895 eV
One Electron Energy:        -2881.73265227 Eh          -78415.93206 eV
Two Electron Energy:         1201.05518449 Eh           32682.37311 eV
Max COSX asymmetry :            0.00000203 Eh               0.00006 eV
CPCM Dielectric    :           -0.04704653 Eh              -1.28020 eV

Virial components:
Potential Energy   :        -1448.16703150 Eh          -39406.62832 eV
Kinetic Energy     :          722.52881998 Eh           19661.00874 eV
Virial Ratio       :            2.00430348


DFT components:
N(Alpha)           :       57.000083247995 electrons
N(Beta)            :       57.000083247995 electrons
N(Total)           :      114.000166495989 electrons
E(X)               :      -75.845192942812 Eh       
E(C)               :       -4.555761255209 Eh       
E(XC)              :      -80.400954198021 Eh       
DFET-embed. en.    :        0.000000000000 Eh       
CPCM Solvation Model Properties:
Surface-charge          :           -0.03041356
Charge-correction       :           -0.00044929 Eh              -0.01223 eV
Free-energy (cav+disp)  :  This term is not implemented in the current solvation scheme

---------------
SCF CONVERGENCE
---------------

  Last Energy change         ...   -2.5750e-08  Tolerance :   1.0000e-08
  Last MAX-Density change    ...    2.5535e-15  Tolerance :   1.0000e-07
  Last RMS-Density change    ...    1.4137e-17  Tolerance :   5.0000e-09
  Last Orbital Gradient      ...    9.5327e-07  Tolerance :   1.0000e-05
  Last Orbital Rotation      ...    3.8263e-06  Tolerance :   1.0000e-05

             **** THE GBW FILE WAS UPDATED (/home/rudenko/mop_saddle_orca_4_serv/for_orca/CH2CHCH2NO2_lutidine/orca/freq_D/f_D.gbw) ****
             **** DENSITY /home/rudenko/mop_saddle_orca_4_serv/for_orca/CH2CHCH2NO2_lutidine/orca/freq_D/f_D.scfp WAS UPDATED ****
             **** ENERGY FILE WAS UPDATED (/home/rudenko/mop_saddle_orca_4_serv/for_orca/CH2CHCH2NO2_lutidine/orca/freq_D/f_D.en.tmp) ****
             **** THE GBW FILE WAS UPDATED (/home/rudenko/mop_saddle_orca_4_serv/for_orca/CH2CHCH2NO2_lutidine/orca/freq_D/f_D.gbw) ****
             **** DENSITY /home/rudenko/mop_saddle_orca_4_serv/for_orca/CH2CHCH2NO2_lutidine/orca/freq_D/f_D.scfp WAS UPDATED ****
----------------
ORBITAL ENERGIES
----------------

  NO   OCC          E(Eh)            E(eV) 
   0   2.0000     -19.135916      -520.7147 
   1   2.0000     -19.134188      -520.6677 
   2   2.0000     -19.086594      -519.3726 
   3   2.0000     -14.526238      -395.2790 
   4   2.0000     -14.375875      -391.1875 
   5   2.0000     -10.232896      -278.4513 
   6   2.0000     -10.232017      -278.4273 
   7   2.0000     -10.216523      -278.0057 
   8   2.0000     -10.205977      -277.7188 
   9   2.0000     -10.194552      -277.4079 
  10   2.0000     -10.185194      -277.1532 
  11   2.0000     -10.175379      -276.8862 
  12   2.0000     -10.171352      -276.7766 
  13   2.0000     -10.170527      -276.7541 
  14   2.0000     -10.156291      -276.3667 
  15   2.0000      -1.201450       -32.6931 
  16   2.0000      -1.024718       -27.8840 
  17   2.0000      -0.998099       -27.1597 
  18   2.0000      -0.947372       -25.7793 
  19   2.0000      -0.851008       -23.1571 
  20   2.0000      -0.820706       -22.3326 
  21   2.0000      -0.802438       -21.8355 
  22   2.0000      -0.745102       -20.2752 
  23   2.0000      -0.734191       -19.9783 
  24   2.0000      -0.714716       -19.4484 
  25   2.0000      -0.640954       -17.4413 
  26   2.0000      -0.619853       -16.8671 
  27   2.0000      -0.607994       -16.5444 
  28   2.0000      -0.565281       -15.3821 
  29   2.0000      -0.556146       -15.1335 
  30   2.0000      -0.528474       -14.3805 
  31   2.0000      -0.525025       -14.2867 
  32   2.0000      -0.524389       -14.2694 
  33   2.0000      -0.501417       -13.6443 
  34   2.0000      -0.481985       -13.1155 
  35   2.0000      -0.466789       -12.7020 
  36   2.0000      -0.457326       -12.4445 
  37   2.0000      -0.452524       -12.3138 
  38   2.0000      -0.442889       -12.0516 
  39   2.0000      -0.427598       -11.6355 
  40   2.0000      -0.420263       -11.4359 
  41   2.0000      -0.416767       -11.3408 
  42   2.0000      -0.408879       -11.1262 
  43   2.0000      -0.406413       -11.0591 
  44   2.0000      -0.398427       -10.8417 
  45   2.0000      -0.384910       -10.4739 
  46   2.0000      -0.368065       -10.0156 
  47   2.0000      -0.361817        -9.8455 
  48   2.0000      -0.351853        -9.5744 
  49   2.0000      -0.305913        -8.3243 
  50   2.0000      -0.302872        -8.2416 
  51   2.0000      -0.300334        -8.1725 
  52   2.0000      -0.292913        -7.9706 
  53   2.0000      -0.284910        -7.7528 
  54   2.0000      -0.279409        -7.6031 
  55   2.0000      -0.278220        -7.5708 
  56   2.0000      -0.218371        -5.9422 
  57   0.0000      -0.060283        -1.6404 
  58   0.0000      -0.054279        -1.4770 
  59   0.0000      -0.033707        -0.9172 
  60   0.0000       0.009380         0.2552 
  61   0.0000       0.040852         1.1116 
  62   0.0000       0.048024         1.3068 
  63   0.0000       0.069737         1.8976 
  64   0.0000       0.075315         2.0494 
  65   0.0000       0.080765         2.1977 
  66   0.0000       0.081392         2.2148 
  67   0.0000       0.098097         2.6694 
  68   0.0000       0.099804         2.7158 
  69   0.0000       0.105247         2.8639 
  70   0.0000       0.108330         2.9478 
  71   0.0000       0.116114         3.1596 
  72   0.0000       0.117803         3.2056 
  73   0.0000       0.132725         3.6116 
  74   0.0000       0.137525         3.7422 
  75   0.0000       0.148316         4.0359 
  76   0.0000       0.149606         4.0710 
  77   0.0000       0.156259         4.2520 
  78   0.0000       0.160119         4.3571 
  79   0.0000       0.170659         4.6439 
  80   0.0000       0.181003         4.9253 
  81   0.0000       0.188797         5.1374 
  82   0.0000       0.193146         5.2558 
  83   0.0000       0.197991         5.3876 
  84   0.0000       0.201707         5.4887 
  85   0.0000       0.208989         5.6869 
  86   0.0000       0.221561         6.0290 
  87   0.0000       0.224736         6.1154 
  88   0.0000       0.229126         6.2348 
  89   0.0000       0.236660         6.4398 
  90   0.0000       0.250316         6.8114 
  91   0.0000       0.251059         6.8317 
  92   0.0000       0.259517         7.0618 
  93   0.0000       0.260683         7.0935 
  94   0.0000       0.269346         7.3293 
  95   0.0000       0.275428         7.4948 
  96   0.0000       0.281215         7.6523 
  97   0.0000       0.285356         7.7649 
  98   0.0000       0.287522         7.8239 
  99   0.0000       0.292088         7.9481 
 100   0.0000       0.302198         8.2232 
 101   0.0000       0.311879         8.4866 
 102   0.0000       0.318672         8.6715 
 103   0.0000       0.323396         8.8000 
 104   0.0000       0.332486         9.0474 
 105   0.0000       0.339852         9.2478 
 106   0.0000       0.343718         9.3530 
 107   0.0000       0.346990         9.4421 
 108   0.0000       0.357636         9.7318 
 109   0.0000       0.371640        10.1129 
 110   0.0000       0.373705        10.1690 
 111   0.0000       0.384535        10.4637 
 112   0.0000       0.393553        10.7091 
 113   0.0000       0.396407        10.7868 
 114   0.0000       0.402219        10.9449 
 115   0.0000       0.405280        11.0282 
 116   0.0000       0.419857        11.4249 
 117   0.0000       0.424833        11.5603 
 118   0.0000       0.432256        11.7623 
 119   0.0000       0.434289        11.8176 
 120   0.0000       0.438414        11.9299 
 121   0.0000       0.441824        12.0226 
 122   0.0000       0.446436        12.1482 
 123   0.0000       0.449507        12.2317 
 124   0.0000       0.451384        12.2828 
 125   0.0000       0.455734        12.4011 
 126   0.0000       0.466322        12.6893 
 127   0.0000       0.468734        12.7549 
 128   0.0000       0.471198        12.8220 
 129   0.0000       0.476284        12.9604 
 130   0.0000       0.491752        13.3813 
 131   0.0000       0.495005        13.4698 
 132   0.0000       0.496555        13.5119 
 133   0.0000       0.500432        13.6174 
 134   0.0000       0.504522        13.7287 
 135   0.0000       0.509901        13.8751 
 136   0.0000       0.513809        13.9814 
 137   0.0000       0.521595        14.1933 
 138   0.0000       0.530622        14.4390 
 139   0.0000       0.539750        14.6874 
 140   0.0000       0.542912        14.7734 
 141   0.0000       0.554720        15.0947 
 142   0.0000       0.561120        15.2688 
 143   0.0000       0.565499        15.3880 
 144   0.0000       0.577980        15.7276 
 145   0.0000       0.581227        15.8160 
 146   0.0000       0.590425        16.0663 
 147   0.0000       0.595223        16.1968 
 148   0.0000       0.600705        16.3460 
 149   0.0000       0.601831        16.3766 
 150   0.0000       0.613641        16.6980 
 151   0.0000       0.626590        17.0504 
 152   0.0000       0.631740        17.1905 
 153   0.0000       0.642485        17.4829 
 154   0.0000       0.647613        17.6225 
 155   0.0000       0.660176        17.9643 
 156   0.0000       0.667256        18.1569 
 157   0.0000       0.676455        18.4073 
 158   0.0000       0.679978        18.5031 
 159   0.0000       0.702515        19.1164 
 160   0.0000       0.709034        19.2938 
 161   0.0000       0.716375        19.4935 
 162   0.0000       0.721779        19.6406 
 163   0.0000       0.726384        19.7659 
 164   0.0000       0.740062        20.1381 
 165   0.0000       0.749206        20.3869 
 166   0.0000       0.768631        20.9155 
 167   0.0000       0.783776        21.3276 
 168   0.0000       0.791050        21.5256 
 169   0.0000       0.808231        21.9931 
 170   0.0000       0.811323        22.0772 
 171   0.0000       0.820427        22.3249 
 172   0.0000       0.838163        22.8076 
 173   0.0000       0.848031        23.0761 
 174   0.0000       0.868376        23.6297 
 175   0.0000       0.884415        24.0662 
 176   0.0000       0.898071        24.4378 
 177   0.0000       0.910598        24.7786 
 178   0.0000       0.916162        24.9300 
 179   0.0000       0.927837        25.2477 
 180   0.0000       0.946608        25.7585 
 181   0.0000       0.949833        25.8463 
 182   0.0000       0.967643        26.3309 
 183   0.0000       0.981119        26.6976 
 184   0.0000       0.982641        26.7390 
 185   0.0000       0.992357        27.0034 
 186   0.0000       1.008960        27.4552 
 187   0.0000       1.020644        27.7731 
 188   0.0000       1.038829        28.2680 
 189   0.0000       1.044375        28.4189 
 190   0.0000       1.061458        28.8837 
 191   0.0000       1.075193        29.2575 
 192   0.0000       1.080611        29.4049 
 193   0.0000       1.088338        29.6152 
 194   0.0000       1.101616        29.9765 
 195   0.0000       1.118934        30.4477 
 196   0.0000       1.131707        30.7953 
 197   0.0000       1.145407        31.1681 
 198   0.0000       1.150824        31.3155 
 199   0.0000       1.154220        31.4079 
 200   0.0000       1.174423        31.9577 
 201   0.0000       1.184321        32.2270 
 202   0.0000       1.190294        32.3895 
 203   0.0000       1.194720        32.5100 
 204   0.0000       1.228129        33.4191 
 205   0.0000       1.234485        33.5921 
 206   0.0000       1.245755        33.8987 
 207   0.0000       1.252884        34.0927 
 208   0.0000       1.267206        34.4824 
 209   0.0000       1.273324        34.6489 
 210   0.0000       1.284548        34.9543 
 211   0.0000       1.299027        35.3483 
 212   0.0000       1.304463        35.4963 
 213   0.0000       1.323294        36.0087 
 214   0.0000       1.340850        36.4864 
 215   0.0000       1.346704        36.6457 
 216   0.0000       1.358716        36.9725 
 217   0.0000       1.370887        37.3037 
 218   0.0000       1.378583        37.5131 
 219   0.0000       1.410609        38.3846 
 220   0.0000       1.419728        38.6327 
 221   0.0000       1.428473        38.8707 
 222   0.0000       1.431523        38.9537 
 223   0.0000       1.454399        39.5762 
 224   0.0000       1.458383        39.6846 
 225   0.0000       1.469441        39.9855 
 226   0.0000       1.484467        40.3944 
 227   0.0000       1.495796        40.7027 
 228   0.0000       1.512513        41.1576 
 229   0.0000       1.514227        41.2042 
 230   0.0000       1.526666        41.5427 
 231   0.0000       1.529257        41.6132 
 232   0.0000       1.539416        41.8896 
 233   0.0000       1.545103        42.0444 
 234   0.0000       1.550257        42.1846 
 235   0.0000       1.557831        42.3907 
 236   0.0000       1.561830        42.4995 
 237   0.0000       1.566514        42.6270 
 238   0.0000       1.572571        42.7918 
 239   0.0000       1.581907        43.0459 
 240   0.0000       1.593335        43.3568 
 241   0.0000       1.601021        43.5660 
 242   0.0000       1.605238        43.6807 
 243   0.0000       1.628885        44.3242 
 244   0.0000       1.633378        44.4465 
 245   0.0000       1.639594        44.6156 
 246   0.0000       1.656324        45.0709 
 247   0.0000       1.659188        45.1488 
 248   0.0000       1.662980        45.2520 
 249   0.0000       1.664876        45.3036 
 250   0.0000       1.671847        45.4933 
 251   0.0000       1.696616        46.1673 
 252   0.0000       1.707457        46.4623 
 253   0.0000       1.715888        46.6917 
 254   0.0000       1.728351        47.0308 
 255   0.0000       1.731263        47.1101 
 256   0.0000       1.749793        47.6143 
 257   0.0000       1.754926        47.7540 
 258   0.0000       1.756143        47.7871 
 259   0.0000       1.773673        48.2641 
 260   0.0000       1.781903        48.4880 
 261   0.0000       1.791550        48.7506 
 262   0.0000       1.801655        49.0255 
 263   0.0000       1.806108        49.1467 
 264   0.0000       1.831129        49.8275 
 265   0.0000       1.845474        50.2179 
 266   0.0000       1.862147        50.6716 
 267   0.0000       1.873891        50.9912 
 268   0.0000       1.912210        52.0339 
 269   0.0000       1.914887        52.1067 
 270   0.0000       1.925089        52.3843 
 271   0.0000       1.931573        52.5608 
 272   0.0000       1.965404        53.4814 
 273   0.0000       1.970882        53.6304 
 274   0.0000       1.977026        53.7976 
 275   0.0000       1.982184        53.9380 
 276   0.0000       1.993586        54.2482 
 277   0.0000       2.007911        54.6380 
 278   0.0000       2.009219        54.6736 
 279   0.0000       2.026614        55.1470 
 280   0.0000       2.042408        55.5768 
 281   0.0000       2.055626        55.9364 
 282   0.0000       2.073831        56.4318 
 283   0.0000       2.080834        56.6224 
 284   0.0000       2.096664        57.0531 
 285   0.0000       2.108718        57.3811 
 286   0.0000       2.125507        57.8380 
 287   0.0000       2.137990        58.1777 
 288   0.0000       2.148001        58.4501 
 289   0.0000       2.152219        58.5649 
 290   0.0000       2.178873        59.2902 
 291   0.0000       2.182552        59.3903 
 292   0.0000       2.187659        59.5292 
 293   0.0000       2.199398        59.8487 
 294   0.0000       2.219239        60.3886 
 295   0.0000       2.246626        61.1338 
 296   0.0000       2.253480        61.3203 
 297   0.0000       2.267852        61.7114 
 298   0.0000       2.285872        62.2017 
 299   0.0000       2.291127        62.3447 
 300   0.0000       2.300965        62.6125 
 301   0.0000       2.310319        62.8670 
 302   0.0000       2.318501        63.0896 
 303   0.0000       2.325263        63.2736 
 304   0.0000       2.331733        63.4497 
 305   0.0000       2.339074        63.6494 
 306   0.0000       2.353092        64.0309 
 307   0.0000       2.358607        64.1810 
 308   0.0000       2.363088        64.3029 
 309   0.0000       2.380045        64.7643 
 310   0.0000       2.398139        65.2567 
 311   0.0000       2.412353        65.6435 
 312   0.0000       2.432327        66.1870 
 313   0.0000       2.434915        66.2574 
 314   0.0000       2.450192        66.6731 
 315   0.0000       2.459943        66.9385 
 316   0.0000       2.477597        67.4189 
 317   0.0000       2.487023        67.6753 
 318   0.0000       2.506963        68.2179 
 319   0.0000       2.510045        68.3018 
 320   0.0000       2.521953        68.6258 
 321   0.0000       2.530392        68.8555 
 322   0.0000       2.549866        69.3854 
 323   0.0000       2.554349        69.5074 
 324   0.0000       2.560013        69.6615 
 325   0.0000       2.578650        70.1686 
 326   0.0000       2.587205        70.4014 
 327   0.0000       2.598167        70.6997 
 328   0.0000       2.606624        70.9298 
 329   0.0000       2.608492        70.9807 
 330   0.0000       2.621019        71.3215 
 331   0.0000       2.632438        71.6323 
 332   0.0000       2.643882        71.9437 
 333   0.0000       2.648052        72.0572 
 334   0.0000       2.663859        72.4873 
 335   0.0000       2.681801        72.9755 
 336   0.0000       2.693943        73.3059 
 337   0.0000       2.704687        73.5983 
 338   0.0000       2.710380        73.7532 
 339   0.0000       2.720097        74.0176 
 340   0.0000       2.730665        74.3052 
 341   0.0000       2.736539        74.4650 
 342   0.0000       2.752078        74.8878 
 343   0.0000       2.755447        74.9795 
 344   0.0000       2.773713        75.4766 
 345   0.0000       2.791832        75.9696 
 346   0.0000       2.800180        76.1968 
 347   0.0000       2.801719        76.2386 
 348   0.0000       2.809728        76.4566 
 349   0.0000       2.820820        76.7584 
 350   0.0000       2.841808        77.3295 
 351   0.0000       2.852654        77.6247 
 352   0.0000       2.859099        77.8000 
 353   0.0000       2.873116        78.1815 
 354   0.0000       2.881557        78.4112 
 355   0.0000       2.885262        78.5120 
 356   0.0000       2.899484        78.8990 
 357   0.0000       2.906660        79.0942 
 358   0.0000       2.944519        80.1244 
 359   0.0000       2.946993        80.1917 
 360   0.0000       2.951491        80.3142 
 361   0.0000       2.959644        80.5360 
 362   0.0000       2.977424        81.0198 
 363   0.0000       2.978627        81.0526 
 364   0.0000       2.984861        81.2222 
 365   0.0000       2.999027        81.6077 
 366   0.0000       3.005731        81.7901 
 367   0.0000       3.014059        82.0167 
 368   0.0000       3.024483        82.3004 
 369   0.0000       3.030544        82.4653 
 370   0.0000       3.038915        82.6931 
 371   0.0000       3.046741        82.9060 
 372   0.0000       3.056026        83.1587 
 373   0.0000       3.065041        83.4040 
 374   0.0000       3.067506        83.4711 
 375   0.0000       3.078982        83.7834 
 376   0.0000       3.087085        84.0039 
 377   0.0000       3.098334        84.3100 
 378   0.0000       3.110277        84.6350 
 379   0.0000       3.128806        85.1391 
 380   0.0000       3.141886        85.4951 
 381   0.0000       3.161445        86.0273 
 382   0.0000       3.167535        86.1930 
 383   0.0000       3.174130        86.3725 
 384   0.0000       3.176135        86.4270 
 385   0.0000       3.189085        86.7794 
 386   0.0000       3.193725        86.9057 
 387   0.0000       3.196932        86.9929 
 388   0.0000       3.216417        87.5232 
 389   0.0000       3.228280        87.8460 
 390   0.0000       3.247398        88.3662 
 391   0.0000       3.251689        88.4830 
 392   0.0000       3.267653        88.9173 
 393   0.0000       3.273723        89.0825 
 394   0.0000       3.283846        89.3580 
 395   0.0000       3.293751        89.6275 
 396   0.0000       3.298763        89.7639 
 397   0.0000       3.300554        89.8126 
 398   0.0000       3.306783        89.9822 
 399   0.0000       3.318383        90.2978 
 400   0.0000       3.319389        90.3252 
 401   0.0000       3.326123        90.5084 
 402   0.0000       3.338909        90.8563 
 403   0.0000       3.352808        91.2346 
 404   0.0000       3.357714        91.3681 
 405   0.0000       3.376187        91.8707 
 406   0.0000       3.381320        92.0104 
 407   0.0000       3.386410        92.1489 
 408   0.0000       3.397875        92.4609 
 409   0.0000       3.410989        92.8177 
 410   0.0000       3.422861        93.1408 
 411   0.0000       3.436734        93.5183 
 412   0.0000       3.453825        93.9834 
 413   0.0000       3.462126        94.2092 
 414   0.0000       3.471581        94.4665 
 415   0.0000       3.479776        94.6895 
 416   0.0000       3.526670        95.9656 
 417   0.0000       3.548666        96.5641 
 418   0.0000       3.553132        96.6856 
 419   0.0000       3.586493        97.5934 
 420   0.0000       3.588264        97.6416 
 421   0.0000       3.597601        97.8957 
 422   0.0000       3.615082        98.3714 
 423   0.0000       3.624723        98.6337 
 424   0.0000       3.643881        99.1551 
 425   0.0000       3.658304        99.5475 
 426   0.0000       3.686227       100.3073 
 427   0.0000       3.725605       101.3789 
 428   0.0000       3.727907       101.4415 
 429   0.0000       3.737425       101.7005 
 430   0.0000       3.743566       101.8676 
 431   0.0000       3.772570       102.6568 
 432   0.0000       3.811822       103.7249 
 433   0.0000       3.824002       104.0564 
 434   0.0000       3.826990       104.1377 
 435   0.0000       3.832866       104.2976 
 436   0.0000       3.843813       104.5955 
 437   0.0000       3.870175       105.3128 
 438   0.0000       3.895983       106.0151 
 439   0.0000       3.905642       106.2779 
 440   0.0000       3.914032       106.5062 
 441   0.0000       3.938389       107.1690 
 442   0.0000       3.946669       107.3943 
 443   0.0000       3.989559       108.5614 
 444   0.0000       4.015260       109.2608 
 445   0.0000       4.028222       109.6135 
 446   0.0000       4.048960       110.1778 
 447   0.0000       4.070958       110.7764 
 448   0.0000       4.094849       111.4265 
 449   0.0000       4.102255       111.6280 
 450   0.0000       4.112634       111.9105 
 451   0.0000       4.140182       112.6601 
 452   0.0000       4.154315       113.0447 
 453   0.0000       4.178575       113.7048 
 454   0.0000       4.195175       114.1565 
 455   0.0000       4.199945       114.2863 
 456   0.0000       4.212395       114.6251 
 457   0.0000       4.234051       115.2144 
 458   0.0000       4.240067       115.3781 
 459   0.0000       4.288136       116.6861 
 460   0.0000       4.317473       117.4844 
 461   0.0000       4.323536       117.6494 
 462   0.0000       4.337191       118.0210 
 463   0.0000       4.359988       118.6413 
 464   0.0000       4.386870       119.3728 
 465   0.0000       4.410466       120.0149 
 466   0.0000       4.418505       120.2336 
 467   0.0000       4.425019       120.4109 
 468   0.0000       4.432706       120.6201 
 469   0.0000       4.460225       121.3689 
 470   0.0000       4.543627       123.6384 
 471   0.0000       4.547159       123.7345 
 472   0.0000       4.558559       124.0447 
 473   0.0000       4.579043       124.6021 
 474   0.0000       4.580462       124.6407 
 475   0.0000       4.623530       125.8127 
 476   0.0000       4.637907       126.2039 
 477   0.0000       4.657869       126.7470 
 478   0.0000       4.660452       126.8174 
 479   0.0000       4.683286       127.4387 
 480   0.0000       4.694460       127.7427 
 481   0.0000       4.726017       128.6015 
 482   0.0000       4.781636       130.1149 
 483   0.0000       4.794392       130.4620 
 484   0.0000       4.804455       130.7359 
 485   0.0000       4.805517       130.7648 
 486   0.0000       4.835271       131.5744 
 487   0.0000       4.869431       132.5040 
 488   0.0000       4.900174       133.3405 
 489   0.0000       4.953992       134.8050 
 490   0.0000       4.962156       135.0271 
 491   0.0000       4.980474       135.5256 
 492   0.0000       5.032939       136.9532 
 493   0.0000       5.041845       137.1956 
 494   0.0000       5.079530       138.2211 
 495   0.0000       5.124934       139.4565 
 496   0.0000       5.130376       139.6046 
 497   0.0000       5.140003       139.8666 
 498   0.0000       5.152161       140.1974 
 499   0.0000       5.167390       140.6118 
 500   0.0000       5.177571       140.8889 
 501   0.0000       5.186001       141.1183 
 502   0.0000       5.213118       141.8562 
 503   0.0000       5.222388       142.1084 
 504   0.0000       5.227781       142.2552 
 505   0.0000       5.235855       142.4749 
 506   0.0000       5.280184       143.6811 
 507   0.0000       5.299311       144.2016 
 508   0.0000       5.311062       144.5213 
 509   0.0000       5.379154       146.3742 
 510   0.0000       5.413194       147.3005 
 511   0.0000       5.432788       147.8337 
 512   0.0000       5.450111       148.3051 
 513   0.0000       5.528078       150.4267 
 514   0.0000       5.553644       151.1223 
 515   0.0000       5.606119       152.5503 
 516   0.0000       5.637101       153.3933 
 517   0.0000       5.674864       154.4209 
 518   0.0000       5.711897       155.4286 
 519   0.0000       5.721420       155.6877 
 520   0.0000       5.807167       158.0210 
 521   0.0000       5.845593       159.0667 
 522   0.0000       5.933770       161.4661 
 523   0.0000       6.008987       163.5128 
 524   0.0000       6.092447       165.7839 
 525   0.0000       6.250142       170.0750 
 526   0.0000       6.285252       171.0304 
 527   0.0000       6.323535       172.0721 
 528   0.0000       6.335943       172.4098 
 529   0.0000       6.373096       173.4208 
 530   0.0000       6.383862       173.7137 
 531   0.0000       6.407041       174.3444 
 532   0.0000       6.452319       175.5765 
 533   0.0000       6.492257       176.6633 
 534   0.0000       6.656739       181.1391 
 535   0.0000       6.680499       181.7856 
 536   0.0000       6.848465       186.3562 
 537   0.0000       6.865156       186.8104 
 538   0.0000       6.906962       187.9480 
 539   0.0000       7.021125       191.0545 
 540   0.0000       7.057770       192.0517 
 541   0.0000       7.108008       193.4187 
 542   0.0000       7.239215       196.9890 
 543   0.0000       7.258825       197.5227 
 544   0.0000       7.388281       201.0453 
 545   0.0000       7.476964       203.4585 
 546   0.0000      22.183864       603.6536 
 547   0.0000      22.305656       606.9678 
 548   0.0000      22.399485       609.5210 
 549   0.0000      22.486719       611.8947 
 550   0.0000      22.584054       614.5434 
 551   0.0000      22.735140       618.6546 
 552   0.0000      22.745420       618.9344 
 553   0.0000      22.855014       621.9165 
 554   0.0000      22.889857       622.8647 
 555   0.0000      23.353158       635.4717 
 556   0.0000      32.336779       879.9285 
 557   0.0000      32.496799       884.2829 
 558   0.0000      43.714063      1189.5201 
 559   0.0000      43.935447      1195.5443 
 560   0.0000      44.018407      1197.8018 

                    ********************************
                    * MULLIKEN POPULATION ANALYSIS *
                    ********************************

-----------------------
MULLIKEN ATOMIC CHARGES
-----------------------
   0 C :   -0.102570
   1 H :    0.134960
   2 N :    0.427779
   3 O :   -0.431299
   4 O :   -0.439563
   5 H :    0.142525
   6 C :   -0.256413
   7 H :    0.304217
   8 H :    0.139736
   9 C :   -0.378332
  10 H :    0.139482
  11 C :   -0.031915
  12 C :    0.081304
  13 C :    0.055918
  14 C :   -0.152572
  15 C :   -0.012858
  16 N :   -0.142338
  17 H :    0.176154
  18 H :    0.163361
  19 H :    0.202735
  20 C :   -0.368566
  21 H :    0.146016
  22 H :    0.146323
  23 H :    0.140370
  24 C :   -0.374478
  25 H :    0.141792
  26 H :    0.150632
  27 H :    0.150722
  28 H :    0.302775
  29 O :   -0.788256
  30 H :    0.332361
Sum of atomic charges:    0.0000000

--------------------------------
MULLIKEN REDUCED ORBITAL CHARGES
--------------------------------
  0 C s       :     3.214703  s :     3.214703
      pz      :     0.936359  p :     2.796532
      px      :     0.970720
      py      :     0.889452
      dz2     :     0.011096  d :     0.084074
      dxz     :     0.017180
      dyz     :     0.015440
      dx2y2   :     0.030295
      dxy     :     0.010063
      f0      :     0.000935  f :     0.007262
      f+1     :     0.000375
      f-1     :     0.001155
      f+2     :     0.000937
      f-2     :     0.001634
      f+3     :     0.001273
      f-3     :     0.000953
  1 H s       :     0.842638  s :     0.842638
      pz      :     0.007699  p :     0.022402
      px      :     0.010906
      py      :     0.003797
  2 N s       :     3.306371  s :     3.306371
      pz      :     0.940390  p :     3.015704
      px      :     0.993496
      py      :     1.081818
      dz2     :     0.059544  d :     0.236131
      dxz     :     0.064038
      dyz     :     0.032253
      dx2y2   :     0.033859
      dxy     :     0.046437
      f0      :     0.002001  f :     0.014015
      f+1     :     0.003348
      f-1     :     0.001292
      f+2     :     0.001772
      f-2     :     0.002582
      f+3     :     0.001539
      f-3     :     0.001481
  3 O s       :     3.879276  s :     3.879276
      pz      :     1.557738  p :     4.510098
      px      :     1.336060
      py      :     1.616300
      dz2     :     0.005579  d :     0.038816
      dxz     :     0.013586
      dyz     :     0.003122
      dx2y2   :     0.008874
      dxy     :     0.007654
      f0      :     0.000323  f :     0.003109
      f+1     :     0.000687
      f-1     :     0.000025
      f+2     :     0.000825
      f-2     :     0.000439
      f+3     :     0.000397
      f-3     :     0.000411
  4 O s       :     3.875375  s :     3.875375
      pz      :     1.244119  p :     4.522417
      px      :     1.854475
      py      :     1.423823
      dz2     :     0.013290  d :     0.038658
      dxz     :     0.005730
      dyz     :     0.013563
      dx2y2   :     0.003724
      dxy     :     0.002350
      f0      :     0.000731  f :     0.003113
      f+1     :     0.000320
      f-1     :     0.001014
      f+2     :     0.000550
      f-2     :     0.000334
      f+3     :     0.000068
      f-3     :     0.000097
  5 H s       :     0.835512  s :     0.835512
      pz      :     0.007433  p :     0.021963
      px      :     0.010525
      py      :     0.004005
  6 C s       :     3.240865  s :     3.240865
      pz      :     1.038337  p :     2.911486
      px      :     0.817529
      py      :     1.055620
      dz2     :     0.015972  d :     0.095566
      dxz     :     0.024852
      dyz     :     0.014147
      dx2y2   :     0.020216
      dxy     :     0.020379
      f0      :     0.000647  f :     0.008497
      f+1     :     0.001044
      f-1     :     0.000883
      f+2     :     0.001827
      f-2     :     0.001522
      f+3     :     0.001419
      f-3     :     0.001155
  7 H s       :     0.636955  s :     0.636955
      pz      :     0.016403  p :     0.058828
      px      :     0.012549
      py      :     0.029876
  8 H s       :     0.837675  s :     0.837675
      pz      :     0.009566  p :     0.022590
      px      :     0.008203
      py      :     0.004820
  9 C s       :     3.305450  s :     3.305450
      pz      :     1.047794  p :     3.024649
      px      :     0.982859
      py      :     0.993995
      dz2     :     0.001889  d :     0.043362
      dxz     :     0.010492
      dyz     :     0.010737
      dx2y2   :     0.016361
      dxy     :     0.003883
      f0      :     0.000423  f :     0.004871
      f+1     :     0.000281
      f-1     :     0.000560
      f+2     :     0.000844
      f-2     :     0.001088
      f+3     :     0.000852
      f-3     :     0.000823
 10 H s       :     0.838128  s :     0.838128
      pz      :     0.009068  p :     0.022390
      px      :     0.003980
      py      :     0.009342
 11 C s       :     3.194731  s :     3.194731
      pz      :     0.907906  p :     2.721280
      px      :     0.857761
      py      :     0.955612
      dz2     :     0.009893  d :     0.105119
      dxz     :     0.026916
      dyz     :     0.009050
      dx2y2   :     0.030764
      dxy     :     0.028497
      f0      :     0.001234  f :     0.010785
      f+1     :     0.001192
      f-1     :     0.001124
      f+2     :     0.001233
      f-2     :     0.001621
      f+3     :     0.002492
      f-3     :     0.001889
 12 C s       :     3.177058  s :     3.177058
      pz      :     0.896764  p :     2.601537
      px      :     0.864342
      py      :     0.840432
      dz2     :     0.012620  d :     0.130309
      dxz     :     0.027364
      dyz     :     0.018005
      dx2y2   :     0.037189
      dxy     :     0.035131
      f0      :     0.001018  f :     0.009792
      f+1     :     0.000775
      f-1     :     0.001241
      f+2     :     0.001288
      f-2     :     0.001266
      f+3     :     0.002240
      f-3     :     0.001964
 13 C s       :     3.244651  s :     3.244651
      pz      :     0.831684  p :     2.553967
      px      :     0.869418
      py      :     0.852866
      dz2     :     0.012425  d :     0.135636
      dxz     :     0.029657
      dyz     :     0.017946
      dx2y2   :     0.041477
      dxy     :     0.034132
      f0      :     0.000759  f :     0.009827
      f+1     :     0.000941
      f-1     :     0.001390
      f+2     :     0.001261
      f-2     :     0.001143
      f+3     :     0.002489
      f-3     :     0.001844
 14 C s       :     3.217996  s :     3.217996
      pz      :     0.967186  p :     2.848571
      px      :     0.909073
      py      :     0.972312
      dz2     :     0.007466  d :     0.078552
      dxz     :     0.017518
      dyz     :     0.008550
      dx2y2   :     0.026267
      dxy     :     0.018752
      f0      :     0.001006  f :     0.007452
      f+1     :     0.000750
      f-1     :     0.000768
      f+2     :     0.001041
      f-2     :     0.000845
      f+3     :     0.001838
      f-3     :     0.001202
 15 C s       :     3.183163  s :     3.183163
      pz      :     0.882225  p :     2.714628
      px      :     0.997430
      py      :     0.834972
      dz2     :     0.009839  d :     0.104236
      dxz     :     0.018850
      dyz     :     0.017077
      dx2y2   :     0.026861
      dxy     :     0.031610
      f0      :     0.001253  f :     0.010832
      f+1     :     0.000345
      f-1     :     0.002001
      f+2     :     0.001771
      f-2     :     0.001088
      f+3     :     0.002258
      f-3     :     0.002117
 16 N s       :     3.505567  s :     3.505567
      pz      :     1.248609  p :     3.561977
      px      :     1.214818
      py      :     1.098550
      dz2     :     0.011655  d :     0.070448
      dxz     :     0.007061
      dyz     :     0.012651
      dx2y2   :     0.021565
      dxy     :     0.017515
      f0      :     0.000381  f :     0.004347
      f+1     :     0.000544
      f-1     :     0.000819
      f+2     :     0.000507
      f-2     :     0.000557
      f+3     :     0.000796
      f-3     :     0.000743
 17 H s       :     0.801921  s :     0.801921
      pz      :     0.005341  p :     0.021925
      px      :     0.003967
      py      :     0.012618
 18 H s       :     0.814161  s :     0.814161
      pz      :     0.005848  p :     0.022478
      px      :     0.003822
      py      :     0.012808
 19 H s       :     0.774838  s :     0.774838
      pz      :     0.005345  p :     0.022428
      px      :     0.010565
      py      :     0.006517
 20 C s       :     3.325448  s :     3.325448
      pz      :     1.032362  p :     2.994041
      px      :     0.973264
      py      :     0.988415
      dz2     :     0.005674  d :     0.045396
      dxz     :     0.013382
      dyz     :     0.007255
      dx2y2   :     0.011619
      dxy     :     0.007465
      f0      :     0.000038  f :     0.003681
      f+1     :     0.000738
      f-1     :     0.000285
      f+2     :     0.000415
      f-2     :     0.001126
      f+3     :     0.000760
      f-3     :     0.000319
 21 H s       :     0.832412  s :     0.832412
      pz      :     0.009526  p :     0.021572
      px      :     0.006459
      py      :     0.005587
 22 H s       :     0.832104  s :     0.832104
      pz      :     0.008127  p :     0.021573
      px      :     0.008653
      py      :     0.004793
 23 H s       :     0.837749  s :     0.837749
      pz      :     0.005381  p :     0.021881
      px      :     0.005293
      py      :     0.011207
 24 C s       :     3.329366  s :     3.329366
      pz      :     1.062448  p :     2.997151
      px      :     0.887318
      py      :     1.047385
      dz2     :     0.004308  d :     0.044315
      dxz     :     0.014840
      dyz     :     0.003795
      dx2y2   :     0.009614
      dxy     :     0.011759
      f0      :     0.000764  f :     0.003646
      f+1     :     0.000499
      f-1     :     0.000048
      f+2     :     0.000452
      f-2     :     0.000235
      f+3     :     0.000744
      f-3     :     0.000904
 25 H s       :     0.836354  s :     0.836354
      pz      :     0.005682  p :     0.021854
      px      :     0.004324
      py      :     0.011848
 26 H s       :     0.827711  s :     0.827711
      pz      :     0.006761  p :     0.021657
      px      :     0.007624
[...]
     20       0.000459  -0.000202  -0.000312
     21       0.000104  -0.000255  -0.000246
     22      -0.000056  -0.000217   0.001569
     23      -0.000047   0.000073   0.004341
     24      -0.008090   0.003233   0.000436
     25       0.000298  -0.000010  -0.000344
     26      -0.011092   0.004244   0.000403
     27       0.040661  -0.013159  -0.000018
     28      -0.045619   0.013733  -0.000045
     29       0.068964  -0.021555   0.000004
     30      -0.062104   0.018950   0.000037
     31       0.544543  -0.166268   0.000021
     32      -0.512662   0.156196  -0.000112
     33       0.000492   0.001095   0.000005
     34       0.002443   0.006669  -0.000097
     35      -0.000992  -0.002773   0.000041
     36      -0.000031   0.000003  -0.000001
     37       0.000073   0.000250   0.000032
     38      -0.000036  -0.000108  -0.000015
     39      -0.000472  -0.001362  -0.000023
     40       0.000206   0.000565  -0.000002
     41      -0.000167  -0.000488  -0.000001
     42      -0.003071  -0.009080   0.000017
     43      -0.009236  -0.025716   0.000002
     44       0.003544   0.009802   0.000001
     45       0.019679   0.063494   0.000058
     46      -0.012740  -0.041172   0.000051
     47       0.008335   0.027054  -0.000021
     48      -0.000034  -0.000102  -0.000500
     49       0.000365   0.001128  -0.000041
     50      -0.000171  -0.000509  -0.000026
     51      -0.007755  -0.020599  -0.000019
     52      -0.024080  -0.063967   0.000107
     53       0.009349   0.024796  -0.000075
     54       0.022883   0.063973  -0.000138
     55       0.101610   0.282011  -0.000402
     56      -0.040608  -0.112597   0.000178
     57      -0.214729  -0.694249  -0.000317
     58       0.147620   0.477331   0.000073
     59      -0.094166  -0.305461  -0.000051
     60      -0.000026  -0.000102  -0.000001
     61       0.000076   0.000200  -0.000004
     62      -0.000025  -0.000066  -0.000000
     63       0.000232   0.000652  -0.000145
     64       0.000163   0.000550  -0.000088
     65       0.000289   0.000816  -0.000201
     66       0.000364   0.001054  -0.000206
     67      -0.000090  -0.000193   0.000097
     68      -0.000305  -0.000957   0.000165
     69      -0.000329  -0.000854   0.000071
     70      -0.000891  -0.002292   0.000118
     71       0.000349   0.000897  -0.000036
     72       0.000016   0.000041  -0.000004
     73      -0.000203  -0.000516  -0.000005
     74       0.000090   0.000234   0.000006
     75       0.000366   0.000968  -0.000026
     76       0.002112   0.005336  -0.000231
     77      -0.000881  -0.002216   0.000105
     78       0.000069   0.000216  -0.000181
     79       0.000238   0.000627   0.000170
     80       0.000091   0.000217   0.000157
     81       0.000123   0.000366  -0.000141
     82       0.000109   0.000318  -0.000061
     83      -0.000216  -0.000544  -0.000272
     84       0.002825   0.008376   0.005998
     85      -0.000396  -0.001721  -0.000519
     86       0.000452   0.001567   0.004969
     87      -0.000084  -0.000256   0.026022
     88      -0.000016  -0.000005  -0.000743
     89      -0.000011  -0.000008   0.056604
     90      -0.000076  -0.000260  -0.412914
     91      -0.000076  -0.000240   0.013307
     92       0.000104   0.000167  -0.908493


-----------
IR SPECTRUM
-----------

 Mode   freq       eps      Int      T**2         TX        TY        TZ
       cm**-1   L/(mol*cm) km/mol    a.u.
----------------------------------------------------------------------------
  7:     17.09   0.000060    0.30  0.001093  ( 0.022632 -0.015213 -0.018696)
  8:     24.16   0.000454    2.29  0.005859  ( 0.071403 -0.019430  0.019574)
  9:     35.67   0.000052    0.26  0.000455  (-0.000373  0.021313 -0.000773)
 10:     58.31   0.000070    0.36  0.000377  ( 0.012514 -0.002140  0.014678)
 11:     72.13   0.000466    2.35  0.002014  ( 0.035463 -0.019513 -0.019386)
 12:     78.54   0.000686    3.47  0.002726  (-0.031065  0.041896  0.002455)
 13:     94.58   0.001294    6.54  0.004270  (-0.057884 -0.008277 -0.029168)
 14:    111.47   0.003312   16.74  0.009273  (-0.090254  0.009198  0.032291)
 15:    142.21   0.000071    0.36  0.000157  ( 0.003115 -0.006483 -0.010243)
 16:    168.75   0.001336    6.75  0.002471  (-0.034432  0.024622  0.026062)
 17:    175.67   0.000254    1.28  0.000451  ( 0.002774 -0.006945 -0.019886)
 18:    184.98   0.000198    1.00  0.000335  ( 0.012138  0.013206 -0.003579)
 19:    226.94   0.001844    9.32  0.002535  ( 0.035685 -0.004968  0.035170)
 20:    275.94   0.002617   13.23  0.002960  (-0.018394 -0.036793 -0.035603)
 21:    287.45   0.064413  325.52  0.069929  ( 0.201489  0.163359  0.051433)
 22:    311.13   0.010632   53.73  0.010664  (-0.076303 -0.067439 -0.017133)
 23:    398.78   0.001913    9.67  0.001497  (-0.009560 -0.036097 -0.010130)
 24:    411.91   0.002006   10.14  0.001520  ( 0.027262  0.026871 -0.007409)
 25:    430.53   0.025034  126.51  0.018146  (-0.080329 -0.107646  0.010254)
 26:    443.05   0.004088   20.66  0.002880  (-0.015144 -0.039050 -0.033549)
 27:    491.76   0.022642  114.42  0.014368  (-0.112427 -0.041572 -0.000109)
 28:    516.37   0.008973   45.34  0.005423  (-0.002418  0.019803  0.070884)
 29:    533.01   0.004578   23.14  0.002680  ( 0.044313  0.024144 -0.011573)
 30:    553.77   0.003794   19.18  0.002138  (-0.008209 -0.042951 -0.015034)
 31:    582.58   0.005199   26.27  0.002785  (-0.007470  0.048653  0.019027)
 32:    601.40   0.022303  112.71  0.011573  (-0.094738 -0.047554 -0.018331)
 33:    685.82   0.001677    8.48  0.000763  ( 0.010117  0.025356  0.004219)
 34:    717.56   0.009221   46.60  0.004010  (-0.056444  0.023985  0.015783)
 35:    739.93   0.002363   11.94  0.000997  ( 0.003292 -0.013429 -0.028380)
 36:    763.90   0.002365   11.95  0.000966  (-0.024048 -0.016160 -0.011265)
 37:    768.06   0.000476    2.40  0.000193  ( 0.008320  0.011069 -0.001208)
 38:    803.30   0.072365  365.70  0.028112  ( 0.150352  0.067260  0.031342)
 39:    848.75   0.012769   64.53  0.004695  ( 0.022471 -0.021631 -0.061009)
 40:    907.93   0.017849   90.20  0.006135  (-0.031702  0.058101  0.041881)
 41:    931.44   0.004658   23.54  0.001561  ( 0.022496  0.015476 -0.028549)
 42:    937.47   0.001358    6.87  0.000452  ( 0.005443 -0.011317 -0.017161)
 43:    942.24   0.000315    1.59  0.000104  (-0.009119 -0.000388 -0.004596)
 44:    960.32   0.000853    4.31  0.000277  (-0.015818  0.003369  0.003950)
 45:    996.01   0.000970    4.90  0.000304  (-0.011756  0.000944  0.012839)
 46:   1005.52   0.030060  151.91  0.009329  (-0.089780 -0.035012 -0.006538)
 47:   1030.29   0.002364   11.95  0.000716  ( 0.023382  0.011787 -0.005523)
 48:   1032.61   0.006430   32.50  0.001943  ( 0.026593 -0.009061 -0.033970)
 49:   1049.53   0.004016   20.29  0.001194  ( 0.005701 -0.013736 -0.031191)
 50:   1074.26   0.000821    4.15  0.000238  (-0.012904  0.007871 -0.003165)
 51:   1079.93   0.000008    0.04  0.000002  ( 0.001279  0.000876 -0.000000)
 52:   1085.80   0.023744  119.99  0.006824  ( 0.071634  0.041073  0.002356)
 53:   1166.06   0.023441  118.46  0.006273  (-0.078692 -0.005451  0.007162)
 54:   1189.63   0.025901  130.89  0.006794  (-0.073733 -0.036840  0.000746)
 55:   1204.65   0.007229   36.53  0.001873  (-0.023193 -0.036173  0.005123)
 56:   1207.78   0.011356   57.39  0.002934  (-0.053636 -0.003932 -0.006478)
 57:   1262.16   0.000728    3.68  0.000180  ( 0.008350 -0.009034  0.005348)
 58:   1295.60   0.015735   79.52  0.003790  ( 0.010194 -0.032080  0.051547)
 59:   1307.41   0.018986   95.95  0.004532  ( 0.066701 -0.004865  0.007682)
 60:   1319.11   0.019383   97.95  0.004586  ( 0.008791 -0.040693  0.053408)
 61:   1327.98   0.018439   93.18  0.004333  ( 0.060088  0.026880  0.000177)
 62:   1377.52   0.203803  1029.94  0.046170  (-0.173411 -0.105667  0.070234)
 63:   1379.64   0.006054   30.60  0.001369  (-0.002663  0.036891  0.001185)
 64:   1402.90   0.002296   11.60  0.000511  (-0.020141  0.007954  0.006456)
 65:   1411.11   0.038665  195.40  0.008551  (-0.074985 -0.048998 -0.022962)
 66:   1420.99   0.007668   38.75  0.001684  (-0.030415 -0.024197 -0.013167)
 67:   1443.12   0.035290  178.34  0.007631  ( 0.040276 -0.035313  0.069008)
 68:   1463.43   0.000613    3.10  0.000131  (-0.010931 -0.000048  0.003357)
 69:   1470.64   0.081829  413.53  0.017364  ( 0.117979  0.058671  0.001531)
 70:   1473.34   0.228973  1157.14  0.048498  ( 0.214721  0.047866 -0.010091)
 71:   1474.02   0.126061  637.06  0.026688  ( 0.152496  0.048528  0.032838)
 72:   1478.99   0.076500  386.60  0.016141  ( 0.071607 -0.034948  0.098957)
 73:   1488.17   0.226005  1142.14  0.047392  (-0.214007 -0.036656 -0.015806)
 74:   1542.42   0.100243  506.59  0.020281  (-0.137475 -0.036247 -0.008256)
 75:   1585.90   0.005035   25.45  0.000991  ( 0.023063 -0.015402  0.014889)
 76:   1672.37   0.084429  426.67  0.015754  ( 0.117631  0.043745 -0.001919)
 77:   1674.86   0.018421   93.09  0.003432  ( 0.039921  0.039346 -0.017042)
 78:   1693.10   0.023155  117.01  0.004268  ( 0.032981  0.051124 -0.023797)
 79:   3033.34   0.001266    6.40  0.000130  ( 0.011246 -0.000018  0.001948)
 80:   3035.90   0.001652    8.35  0.000170  (-0.008949  0.008113 -0.004892)
 81:   3078.73   0.002631   13.29  0.000267  ( 0.002611 -0.006452 -0.014772)
 82:   3083.47   0.000649    3.28  0.000066  (-0.000828  0.003211  0.007392)
 83:   3123.91   0.004083   20.63  0.000408  ( 0.007859  0.017439 -0.006480)
 84:   3127.51   0.003058   15.45  0.000305  ( 0.003636  0.015923 -0.006196)
 85:   3129.00   0.001550    7.84  0.000155  (-0.011110 -0.004977 -0.002536)
 86:   3141.18   0.000907    4.58  0.000090  (-0.007681  0.004089 -0.003797)
 87:   3167.92   0.000779    3.94  0.000077  ( 0.001265 -0.003993  0.007696)
 88:   3199.48   0.000296    1.50  0.000029  ( 0.003205 -0.004215  0.000911)
 89:   3202.54   0.000118    0.60  0.000011  ( 0.001514 -0.002599  0.001560)
 90:   3215.37   0.003087   15.60  0.000300  ( 0.006957 -0.007869  0.013758)
 91:   3217.28   0.000974    4.92  0.000094  (-0.008973  0.003338 -0.001667)
 92:   3781.99   0.009180   46.39  0.000757  (-0.007311 -0.006484 -0.025730)

* The epsilon (eps) is given for a Dirac delta lineshape.
** The dipole moment derivative (T) already includes vibrational overlap.

The first frequency considered to be a vibration is 7
The total number of vibrations considered is 86


--------------------------
THERMOCHEMISTRY AT 298.15K
--------------------------

Temperature         ... 298.15 K
Pressure            ... 1.00 atm
Total Mass          ... 213.24 AMU

Throughout the following assumptions are being made:
  (1) The electronic state is orbitally nondegenerate
  (2) There are no thermally accessible electronically excited states
  (3) Hindered rotations indicated by low frequency modes are not
      treated as such but are treated as vibrations and this may
      cause some error
  (4) All equations used are the standard statistical mechanics
      equations for an ideal gas
  (5) All vibrations are strictly harmonic

freq.      17.09  E(vib)   ...       0.57 
freq.      24.16  E(vib)   ...       0.56 
freq.      35.67  E(vib)   ...       0.54 
freq.      58.31  E(vib)   ...       0.51 
freq.      72.13  E(vib)   ...       0.50 
freq.      78.54  E(vib)   ...       0.49 
freq.      94.58  E(vib)   ...       0.47 
freq.     111.47  E(vib)   ...       0.45 
freq.     142.21  E(vib)   ...       0.41 
freq.     168.75  E(vib)   ...       0.38 
freq.     175.67  E(vib)   ...       0.38 
freq.     184.98  E(vib)   ...       0.37 
freq.     226.94  E(vib)   ...       0.33 
freq.     275.94  E(vib)   ...       0.28 
freq.     287.45  E(vib)   ...       0.27 
freq.     311.13  E(vib)   ...       0.26 
freq.     398.78  E(vib)   ...       0.19 
freq.     411.91  E(vib)   ...       0.19 
freq.     430.53  E(vib)   ...       0.18 
freq.     443.05  E(vib)   ...       0.17 
freq.     491.76  E(vib)   ...       0.14 
freq.     516.37  E(vib)   ...       0.13 
freq.     533.01  E(vib)   ...       0.13 
freq.     553.77  E(vib)   ...       0.12 
freq.     582.58  E(vib)   ...       0.11 
freq.     601.40  E(vib)   ...       0.10 
freq.     685.82  E(vib)   ...       0.07 
freq.     717.56  E(vib)   ...       0.07 
freq.     739.93  E(vib)   ...       0.06 
freq.     763.90  E(vib)   ...       0.06 
freq.     768.06  E(vib)   ...       0.06 
freq.     803.30  E(vib)   ...       0.05 
freq.     848.75  E(vib)   ...       0.04 
freq.     907.93  E(vib)   ...       0.03 
freq.     931.44  E(vib)   ...       0.03 
freq.     937.47  E(vib)   ...       0.03 
freq.     942.24  E(vib)   ...       0.03 
freq.     960.32  E(vib)   ...       0.03 
freq.     996.01  E(vib)   ...       0.02 
freq.    1005.52  E(vib)   ...       0.02 
freq.    1030.29  E(vib)   ...       0.02 
freq.    1032.61  E(vib)   ...       0.02 
freq.    1049.53  E(vib)   ...       0.02 
freq.    1074.26  E(vib)   ...       0.02 
freq.    1079.93  E(vib)   ...       0.02 
freq.    1085.80  E(vib)   ...       0.02 
freq.    1166.06  E(vib)   ...       0.01 
freq.    1189.63  E(vib)   ...       0.01 
freq.    1204.65  E(vib)   ...       0.01 
freq.    1207.78  E(vib)   ...       0.01 
freq.    1262.16  E(vib)   ...       0.01 
freq.    1295.60  E(vib)   ...       0.01 
freq.    1307.41  E(vib)   ...       0.01 
freq.    1319.11  E(vib)   ...       0.01 
freq.    1327.98  E(vib)   ...       0.01 
freq.    1377.52  E(vib)   ...       0.01 
freq.    1379.64  E(vib)   ...       0.01 
freq.    1402.90  E(vib)   ...       0.00 
freq.    1411.11  E(vib)   ...       0.00 
freq.    1420.99  E(vib)   ...       0.00 
freq.    1443.12  E(vib)   ...       0.00 
freq.    1463.43  E(vib)   ...       0.00 
freq.    1470.64  E(vib)   ...       0.00 
freq.    1473.34  E(vib)   ...       0.00 
freq.    1474.02  E(vib)   ...       0.00 
freq.    1478.99  E(vib)   ...       0.00 
freq.    1488.17  E(vib)   ...       0.00 
freq.    1542.42  E(vib)   ...       0.00 
freq.    1585.90  E(vib)   ...       0.00 
freq.    1672.37  E(vib)   ...       0.00 
freq.    1674.86  E(vib)   ...       0.00 
freq.    1693.10  E(vib)   ...       0.00 
freq.    3033.34  E(vib)   ...       0.00 
freq.    3035.90  E(vib)   ...       0.00 
freq.    3078.73  E(vib)   ...       0.00 
freq.    3083.47  E(vib)   ...       0.00 
freq.    3123.91  E(vib)   ...       0.00 
freq.    3127.51  E(vib)   ...       0.00 
freq.    3129.00  E(vib)   ...       0.00 
freq.    3141.18  E(vib)   ...       0.00 
freq.    3167.92  E(vib)   ...       0.00 
freq.    3199.48  E(vib)   ...       0.00 
freq.    3202.54  E(vib)   ...       0.00 
freq.    3215.37  E(vib)   ...       0.00 
freq.    3217.28  E(vib)   ...       0.00 
freq.    3781.99  E(vib)   ...       0.00 

------------
INNER ENERGY
------------

The inner energy is: U= E(el) + E(ZPE) + E(vib) + E(rot) + E(trans)
    E(el)   - is the total energy from the electronic structure calculation
              = E(kin-el) + E(nuc-el) + E(el-el) + E(nuc-nuc)
    E(ZPE)  - the the zero temperature vibrational energy from the frequency calculation
    E(vib)  - the the finite temperature correction to E(ZPE) due to population
              of excited vibrational states
    E(rot)  - is the rotational thermal energy
    E(trans)- is the translational thermal energy

Summary of contributions to the inner energy U:
Electronic energy                ...   -725.68954147 Eh
Zero point energy                ...      0.24344352 Eh     152.76 kcal/mol
Thermal vibrational correction   ...      0.01443275 Eh       9.06 kcal/mol
Thermal rotational correction    ...      0.00141627 Eh       0.89 kcal/mol
Thermal translational correction ...      0.00141627 Eh       0.89 kcal/mol
-----------------------------------------------------------------------
Total thermal energy                   -725.42883266 Eh


Summary of corrections to the electronic energy:
(perhaps to be used in another calculation)
Total thermal correction                  0.01726530 Eh      10.83 kcal/mol
Non-thermal (ZPE) correction              0.24344352 Eh     152.76 kcal/mol
-----------------------------------------------------------------------
Total correction                          0.26070881 Eh     163.60 kcal/mol


--------
ENTHALPY
--------

The enthalpy is H = U + kB*T
                kB is Boltzmann's constant
Total free energy                 ...   -725.42883266 Eh 
Thermal Enthalpy correction       ...      0.00094421 Eh       0.59 kcal/mol
-----------------------------------------------------------------------
Total Enthalpy                    ...   -725.42788845 Eh


Note: Only C1 symmetry has been detected, increase convergence thresholds 
      if your molecule has a higher symmetry. Symmetry factor of 1.0 is   
      used for the rotational entropy correction. 
 

Note: Rotational entropy computed according to Herzberg 
Infrared and Raman Spectra, Chapter V,1, Van Nostrand Reinhold, 1945 
Point Group:  C1, Symmetry Number:   1  
Rotational constants in cm-1:     0.037882     0.007192     0.006487 

Vibrational entropy computed according to the QRRHO of S. Grimme
Chem.Eur.J. 2012 18 9955


-------
ENTROPY
-------

The entropy contributions are T*S = T*(S(el)+S(vib)+S(rot)+S(trans))
     S(el)   - electronic entropy
     S(vib)  - vibrational entropy
     S(rot)  - rotational entropy
     S(trans)- translational entropy
The entropies will be listed as multiplied by the temperature to get
units of energy

Electronic entropy                ...      0.00000000 Eh      0.00 kcal/mol
Vibrational entropy               ...      0.02649947 Eh     16.63 kcal/mol
Rotational entropy                ...      0.01576413 Eh      9.89 kcal/mol
Translational entropy             ...      0.01994372 Eh     12.51 kcal/mol
-----------------------------------------------------------------------
Final entropy term                ...      0.06220731 Eh     39.04 kcal/mol

In case the symmetry of your molecule has not been determined correctly
or in case you have a reason to use a different symmetry number we print 
out the resulting rotational entropy values for sn=1,12 :
 --------------------------------------------------------
|  sn= 1 | S(rot)=       0.01576413 Eh      9.89 kcal/mol|
|  sn= 2 | S(rot)=       0.01510967 Eh      9.48 kcal/mol|
|  sn= 3 | S(rot)=       0.01472684 Eh      9.24 kcal/mol|
|  sn= 4 | S(rot)=       0.01445521 Eh      9.07 kcal/mol|
|  sn= 5 | S(rot)=       0.01424452 Eh      8.94 kcal/mol|
|  sn= 6 | S(rot)=       0.01407238 Eh      8.83 kcal/mol|
|  sn= 7 | S(rot)=       0.01392683 Eh      8.74 kcal/mol|
|  sn= 8 | S(rot)=       0.01380076 Eh      8.66 kcal/mol|
|  sn= 9 | S(rot)=       0.01368955 Eh      8.59 kcal/mol|
|  sn=10 | S(rot)=       0.01359007 Eh      8.53 kcal/mol|
|  sn=11 | S(rot)=       0.01350008 Eh      8.47 kcal/mol|
|  sn=12 | S(rot)=       0.01341792 Eh      8.42 kcal/mol|
 --------------------------------------------------------


-------------------
GIBBS FREE ENERGY
-------------------

The Gibbs free energy is G = H - T*S

Total enthalpy                    ...   -725.42788845 Eh 
Total entropy correction          ...     -0.06220731 Eh    -39.04 kcal/mol
-----------------------------------------------------------------------
Final Gibbs free energy         ...   -725.49009576 Eh

For completeness - the Gibbs free energy minus the electronic energy
G-E(el)                           ...      0.19944571 Eh    125.15 kcal/mol



Timings for individual modules:

Sum of individual times         ...     1996.530 sec (=  33.276 min)
GTO integral calculation        ...        9.992 sec (=   0.167 min)   0.5 %
SCF iterations                  ...      109.777 sec (=   1.830 min)   5.5 %
SCF Gradient evaluation         ...       23.297 sec (=   0.388 min)   1.2 %
Numerical frequency calculation ...     1853.464 sec (=  30.891 min)  92.8 %
                             ****ORCA TERMINATED NORMALLY****
TOTAL RUN TIME: 0 days 0 hours 32 minutes 9 seconds 358 msec
