
                                 *****************
                                 * O   R   C   A *
                                 *****************

                                            #,                                       
                                            ###                                      
                                            ####                                     
                                            #####                                    
                                            ######                                   
                                           ########,                                 
                                     ,,################,,,,,                         
                               ,,#################################,,                 
                          ,,##########################################,,             
                       ,#########################################, ''#####,          
                    ,#############################################,,   '####,        
                  ,##################################################,,,,####,       
                ,###########''''           ''''###############################       
              ,#####''   ,,,,##########,,,,          '''####'''          '####       
            ,##' ,,,,###########################,,,                        '##       
           ' ,,###''''                  '''############,,,                           
         ,,##''                                '''############,,,,        ,,,,,,###''
      ,#''                                            '''#######################'''  
     '                                                          ''''####''''         
             ,#######,   #######,   ,#######,      ##                                
            ,#'     '#,  ##    ##  ,#'     '#,    #''#        ######   ,####,        
            ##       ##  ##   ,#'  ##            #'  '#       #        #'  '#        
            ##       ##  #######   ##           ,######,      #####,   #    #        
            '#,     ,#'  ##    ##  '#,     ,#' ,#      #,         ##   #,  ,#        
             '#######'   ##     ##  '#######'  #'      '#     #####' # '####'        



                  #######################################################
                  #                        -***-                        #
                  #          Department of theory and spectroscopy      #
                  #    Directorship and core code : Frank Neese         #
                  #        Max Planck Institute fuer Kohlenforschung    #
                  #                Kaiser Wilhelm Platz 1               #
                  #                 D-45470 Muelheim/Ruhr               #
                  #                      Germany                        #
                  #                                                     #
                  #                  All rights reserved                #
                  #                        -***-                        #
                  #######################################################


                         Program Version 5.0.4 -  RELEASE  -


 With contributions from (in alphabetic order):
   Daniel Aravena         : Magnetic Suceptibility
   Michael Atanasov       : Ab Initio Ligand Field Theory (pilot matlab implementation)
   Alexander A. Auer      : GIAO ZORA, VPT2 properties, NMR spectrum
   Ute Becker             : Parallelization
   Giovanni Bistoni       : ED, misc. LED, open-shell LED, HFLD
   Martin Brehm           : Molecular dynamics
   Dmytro Bykov           : SCF Hessian
   Vijay G. Chilkuri      : MRCI spin determinant printing, contributions to CSF-ICE
   Dipayan Datta          : RHF DLPNO-CCSD density
   Achintya Kumar Dutta   : EOM-CC, STEOM-CC
   Dmitry Ganyushin       : Spin-Orbit,Spin-Spin,Magnetic field MRCI
   Miquel Garcia          : C-PCM and meta-GGA Hessian, CC/C-PCM, Gaussian charge scheme
   Yang Guo               : DLPNO-NEVPT2, F12-NEVPT2, CIM, IAO-localization
   Andreas Hansen         : Spin unrestricted coupled pair/coupled cluster methods
   Benjamin Helmich-Paris : MC-RPA, TRAH-SCF, COSX integrals
   Lee Huntington         : MR-EOM, pCC
   Robert Izsak           : Overlap fitted RIJCOSX, COSX-SCS-MP3, EOM
   Marcus Kettner         : VPT2
   Christian Kollmar      : KDIIS, OOCD, Brueckner-CCSD(T), CCSD density, CASPT2, CASPT2-K
   Simone Kossmann        : Meta GGA functionals, TD-DFT gradient, OOMP2, MP2 Hessian
   Martin Krupicka        : Initial AUTO-CI
   Lucas Lang             : DCDCAS
   Marvin Lechner         : AUTO-CI (C++ implementation), FIC-MRCC
   Dagmar Lenk            : GEPOL surface, SMD
   Dimitrios Liakos       : Extrapolation schemes; Compound Job, initial MDCI parallelization
   Dimitrios Manganas     : Further ROCIS development; embedding schemes
   Dimitrios Pantazis     : SARC Basis sets
   Anastasios Papadopoulos: AUTO-CI, single reference methods and gradients
   Taras Petrenko         : DFT Hessian,TD-DFT gradient, ASA, ECA, R-Raman, ABS, FL, XAS/XES, NRVS
   Peter Pinski           : DLPNO-MP2, DLPNO-MP2 Gradient
   Christoph Reimann      : Effective Core Potentials
   Marius Retegan         : Local ZFS, SOC
   Christoph Riplinger    : Optimizer, TS searches, QM/MM, DLPNO-CCSD(T), (RO)-DLPNO pert. Triples
   Tobias Risthaus        : Range-separated hybrids, TD-DFT gradient, RPA, STAB
   Michael Roemelt        : Original ROCIS implementation
   Masaaki Saitow         : Open-shell DLPNO-CCSD energy and density
   Barbara Sandhoefer     : DKH picture change effects
   Avijit Sen             : IP-ROCIS
   Kantharuban Sivalingam : CASSCF convergence, NEVPT2, FIC-MRCI
   Bernardo de Souza      : ESD, SOC TD-DFT
   Georgi Stoychev        : AutoAux, RI-MP2 NMR, DLPNO-MP2 response
   Willem Van den Heuvel  : Paramagnetic NMR
   Boris Wezisla          : Elementary symmetry handling
   Frank Wennmohs         : Technical directorship


 We gratefully acknowledge several colleagues who have allowed us to
 interface, adapt or use parts of their codes:
   Stefan Grimme, W. Hujo, H. Kruse, P. Pracht,  : VdW corrections, initial TS optimization,
                  C. Bannwarth, S. Ehlert          DFT functionals, gCP, sTDA/sTD-DF
   Ed Valeev, F. Pavosevic, A. Kumar             : LibInt (2-el integral package), F12 methods
   Garnet Chan, S. Sharma, J. Yang, R. Olivares  : DMRG
   Ulf Ekstrom                                   : XCFun DFT Library
   Mihaly Kallay                                 : mrcc  (arbitrary order and MRCC methods)
   Jiri Pittner, Ondrej Demel                    : Mk-CCSD
   Frank Weinhold                                : gennbo (NPA and NBO analysis)
   Christopher J. Cramer and Donald G. Truhlar   : smd solvation model
   Lars Goerigk                                  : TD-DFT with DH, B97 family of functionals
   V. Asgeirsson, H. Jonsson                     : NEB implementation
   FAccTs GmbH                                   : IRC, NEB, NEB-TS, DLPNO-Multilevel, CI-OPT
                                                   MM, QMMM, 2- and 3-layer-ONIOM, Crystal-QMMM,
                                                   LR-CPCM, SF, NACMEs, symmetry and pop. for TD-DFT,
                                                   nearIR, NL-DFT gradient (VV10), updates on ESD,
                                                   ML-optimized integration grids
   S Lehtola, MJT Oliveira, MAL Marques          : LibXC Library
   Liviu Ungur et al                             : ANISO software


 Your calculation uses the libint2 library for the computation of 2-el integrals
 For citations please refer to: http://libint.valeyev.net

 Your ORCA version has been built with support for libXC version: 5.1.0
 For citations please refer to: https://tddft.org/programs/libxc/

 This ORCA versions uses:
   CBLAS   interface :  Fast vector & matrix operations
   LAPACKE interface :  Fast linear algebra routines
   SCALAPACK package :  Parallel linear algebra routines
   Shared memory     :  Shared parallel matrices
   BLAS/LAPACK       :  OpenBLAS 0.3.15  USE64BITINT DYNAMIC_ARCH NO_AFFINITY Prescott SINGLE_THREADED
        Core in use  :  Prescott
   Copyright (c) 2011-2014, The OpenBLAS Project




***************************************
The coordinates will be read from file: start.xyz
***************************************


Your calculation utilizes the atom-pairwise dispersion correction
with the Becke-Johnson damping scheme (D3BJ)
Cite in your paper:
S.Grimme, S.Ehrlich, L.Goerigk, J Comput Chem, (2011), 32, 1456–1465 
S.Grimme, J.Antony, S.Ehrlich and H.Krieg, J.Chem.Phys., 132, (2010), 154104 
   

Your calculation utilizes a Nudged-Elastic-Band implementation
 by V.Asgeirsson, C. Riplinger & H. Jonsson
Please cite in your paper:
 V. Asgeirsson et al., in prep. (2019)
   

================================================================================

----- Orbital basis set information -----
Your calculation utilizes the basis: def2-TZVP
   F. Weigend and R. Ahlrichs, Phys. Chem. Chem. Phys. 7, 3297 (2005).

----- AuxJ basis set information -----
Your calculation utilizes the auxiliary basis: def2/J
   F. Weigend, Phys. Chem. Chem. Phys. 8, 1057 (2006).

================================================================================
                                        WARNINGS
                       Please study these warnings very carefully!
================================================================================


WARNING: Geometry Optimization
  ===> : Switching off AutoStart
         For restart on a previous wavefunction, please use MOREAD

INFO   : the flag for use of the SHARK integral package has been found!

================================================================================
                                       INPUT FILE
================================================================================
NAME = neb.inp
|  1> ! NEB-TS b3lyp D3 def2-TZVP CPCM
|  2> 
|  3> %pal
|  4> nprocs 102
|  5> end
|  6> 
|  7> %cpcm
|  8> epsilon 78.4
|  9> end
| 10> 
| 11> %neb
| 12> NEB_End_XYZFile "end.xyz"
| 13> Nimages 6
| 14> end
| 15> 
| 16> 
| 17> *XYZfile 0 1 start.xyz
| 18> 
| 19>                          ****END OF INPUT****
================================================================================


--------------------------------------------------------------------------------
                        Nudged Elastic Band Calculation
--------------------------------------------------------------------------------

Number of images (incl. end points)     ....  8
Number of intermediate images           ....  6
Number of optimized images              ....  6
Optimization of end points before NEB   ....  NO
Use existing gbw files for MO input     ....  NO
Number of atoms                         ....  10
Number of (active) degrees of freedom   ....  30
Constrained atoms                       ....  None

-----------------------------------------
  REACTANT (ANGSTROEM)
-----------------------------------------
C      0.390520    -0.765516     0.635034 
H      0.913342    -1.515258     0.048217 
H      0.839854     0.212904     0.475639 
H      0.347087    -1.018492     1.687084 
N     -1.004765    -0.683664     0.111229 
O     -1.926353    -0.715416     0.910944 
O     -1.147400    -0.574937    -1.096640 
H      3.429969    -1.679297     1.027587 
O      3.512245    -1.156488     1.834955 
H      3.431651    -0.241498     1.537528 

-----------------------------------------
  PRODUCT (ANGSTROEM)
-----------------------------------------
C      0.458353    -0.735614     0.465836 
H      0.242859    -0.183829    -0.442441 
H      0.007657    -0.290189     1.346580 
H      1.532577    -0.856733     0.610004 
N     -0.094365    -2.112269     0.313828 
O     -0.370596    -2.730842     1.330027 
O     -0.212427    -2.562411    -0.815294 
H      3.979160    -1.625122     1.220076 
O      3.556513    -1.134356     1.936105 
H      3.755505    -0.208935     1.745394 



----------------------
NEB settings
----------------------
Method type                             ....  climbing image
Threshold for climbing image            ....  2.00e-02 Eh/Bohr 
Free endpoints                          ....  off 
Tangent type                            ....  improved 
Number of intermediate images           ....  6 
Number of images free to move           ....  6 
Spring type for image distribution      ....  distance between adjacent images 
Spring constant                         ....  energy weighted (0.0100 -to- 0.1000) Eh/Bohr^2 
Spring force perp. to the path          ....  none 
Generation of initial path              ....  image dependent pair potential 
Initial path via TS guess               ....  off 

Minimization of RMSD: Rotation          ....  always 
Minimization of RMSD: Translation type  ....  centroid 
Center fixed to origin                  ....  true 
Remove external force                   ....  true 

Reparametrization of the path           ....  off 
Convergence thresholds:
Convergence monitored for               ....  all images
Scaling factor                          ....  10.00

Convergence parameters for regular images:
               Max(|Fp|)                ....  2.00e-02 Eh/Bohr
               RMS(Fp)                  ....  1.00e-02 Eh/Bohr

Convergence parameters for climbing image:
               Max(|F|)                 ....  2.00e-03 Eh/Bohr
               RMS(F)                   ....  1.00e-03 Eh/Bohr
Optimization method:
Method                                  ....  L-BFGS
Max. iterations                         ....  500 
Step size                               ....  1.00 
Maximum allowed step size               ....  0.10 Bohr

LBFGS parameters: 
               Memory                   ....  20 
               Initial step size        ....  0.0010 
               Estimate curvature       ....  YES 
               Reset on maxmove         ....  YES 
               Reparam. on reset        ....  NO 
Generation of  the initial path:
Minimize RMSD between reactant and product configurations     .... done
       RMSD before minimization         ....  1.6097 Bohr
       RMSD after minimization          ....  1.1911 Bohr
Performing linear interpolation         ....  done
Interpolation using                     ....  IDPP (Image Dependent Pair Potential)
IDPP-Settings:
       Remove global transl. and rot.   ...   true
       Convergence tolerance            ....  0.0100 1/Ang.^3
       Max. numer of iterations         ....    7000
       Spring constant                  ....  1.0000 1/Ang.^4
       Time step                        ....  0.0100 fs
       Max. movement per iteration      ....  0.0500 Ang.
       Full print                       ....  false 
idpp initial path generation successfully converged in 118 iterations
Displacement along initial path:              6.8091 Bohr
Writing initial trajectory to file      ....  neb_initial_path_trj.xyz



----------------------
NEB OPTIMIZATION      
----------------------

Following output files will be written:
Energy profile during opt. written to    ....  neb.interp
Optimization log-file                    ....  neb.NEB.log
Current trajectory will be written to    ....  neb_MEP_trj.xyz
       and to allxyz file                ....  neb_MEP.allxyz
       and individual images to xyz file ....  neb_im{NIm}.xyz
Trajectory history will be written to    ....  neb_MEP_ALL_trj.xyz
Converged CI will be written to          ....  neb_NEB-CI_converged.xyz
Converged TS will be written to          ....  neb_NEB-TS_converged.xyz

Single point energy and gradient calculation of reactant and
product configurations (have to be performed only once)
Properties of fixed NEB end points:
               Reactant:
                         E               ....   -321.457544 Eh
                         RMS(F)          ....      0.000037 Eh/Bohr
                         MAX(|F|)        ....      0.000067 Eh/Bohr
               Product:
                         E               ....   -321.457635 Eh
                         RMS(F)          ....      0.000190 Eh/Bohr
                         MAX(|F|)        ....      0.000513 Eh/Bohr



Starting iterations:

Optim.  Iteration  HEI  E(HEI)-E(0)  max(|Fp|)   RMS(Fp)    dS
Switch-on CI threshold               0.020000 
   LBFGS     0      4    0.002242    0.009811   0.003297  6.8091       

Image  4 will be converted to a climbing image in the next iteration (max(|Fp|) < 0.0200) 

Optim.  Iteration  CI   E(CI)-E(0)   max(|Fp|)   RMS(Fp)    dS     max(|FCI|)   RMS(FCI)
Convergence thresholds               0.020000   0.010000            0.002000    0.001000 
   LBFGS     1      4    0.002115    0.023494   0.005859  6.8147    0.021528    0.008041       
   LBFGS     2      4    0.001105    0.013238   0.003100  6.8248    0.012611    0.004010       
   LBFGS     3      4    0.000674    0.006782   0.001830  6.8348    0.007184    0.002513       
   LBFGS     4      4    0.000330    0.007305   0.001504  6.8593    0.007708    0.002108       
   LBFGS     5      3    0.000405    0.012259   0.002544  6.8542    0.014033    0.003593       
   LBFGS     6      3    0.000277    0.003547   0.000998  6.8522    0.004106    0.001276       
   LBFGS     7      3    0.000955    0.025894   0.005466  6.8657    0.029020    0.007604       
   LBFGS     8      3    0.000239    0.004946   0.001278  6.8578    0.005239    0.001752       
   LBFGS     9      3    0.000191    0.002273   0.000542  6.8634    0.002025    0.000609       
   LBFGS    10      3    0.000640    0.012196   0.002734  6.9010    0.013032    0.004032       
   LBFGS    11      3    0.000269    0.004831   0.001072  6.8867    0.004328    0.001372       
   LBFGS    12      3    0.000312    0.006288   0.001665  6.8871    0.005386    0.002114       
   LBFGS    13      3    0.000514    0.011139   0.002678  6.8765    0.011825    0.004090       
   LBFGS    14      3    0.000207    0.004363   0.001051  6.8735    0.003466    0.001237       
   LBFGS    15      2    0.000213    0.003121   0.000663  6.8748    0.002092    0.000754       
   LBFGS    16      2    0.000314    0.013888   0.002515  6.8780    0.005549    0.002028       
   LBFGS    17      2    0.000273    0.007881   0.001778  6.8707    0.005215    0.001896       
   LBFGS    18      2    0.000190    0.007881   0.001212  6.8625    0.001868    0.000579       

                                .--------------------.
          ----------------------| CI-NEB convergence |-------------------------
          Item                value                   Tolerance       Converged
          ---------------------------------------------------------------------
          RMS(Fp)             0.0012120441            0.0100000000      YES
          MAX(|Fp|)           0.0078814344            0.0200000000      YES
          RMS(FCI)            0.0005793725            0.0010000000      YES
          MAX(|FCI|)          0.0018677984            0.0020000000      YES
          ---------------------------------------------------------------------

The elastic band and climbing image have converged successfully to a MEP in 18 iterations!


                    *********************H U R R A Y*********************
                    ***        THE NEB OPTIMIZATION HAS CONVERGED     ***
                    *****************************************************



---------------------------------------------------------------
                         PATH SUMMARY              
---------------------------------------------------------------
All forces in Eh/Bohr.

Image Dist.(Ang.)    E(Eh)   dE(kcal/mol)  max(|Fp|)  RMS(Fp)
  0     0.000    -321.45754      0.00       0.00007   0.00004
  1     0.771    -321.45744      0.07       0.00148   0.00040
  2     1.235    -321.45735      0.12       0.00185   0.00058 <= CI
  3     1.625    -321.45737      0.11       0.00175   0.00072
  4     1.939    -321.45740      0.09       0.00530   0.00162
  5     2.219    -321.45741      0.08       0.00788   0.00258
  6     2.567    -321.45755     -0.00       0.00144   0.00059
  7     3.631    -321.45763     -0.06       0.00052   0.00019

Straight line distance between images along the path:
        D( 0- 1) =   0.7710 Ang.
        D( 1- 2) =   0.4645 Ang.
        D( 2- 3) =   0.3894 Ang.
        D( 3- 4) =   0.3146 Ang.
        D( 4- 5) =   0.2800 Ang.
        D( 5- 6) =   0.3476 Ang.
        D( 6- 7) =   1.0644 Ang.

---------------------------------------------------------------
               INFORMATION ABOUT SADDLE POINT     
---------------------------------------------------------------

Climbing image                            ....  2 
Energy                                    ....  -321.45735385 Eh
Max. abs. force                           ....  1.8678e-03 Eh/Bohr

-----------------------------------------
  SADDLE POINT (ANGSTROEM)
-----------------------------------------
C     -0.433946     0.255398    -0.286012 
H      0.130059    -0.184752    -1.100834 
H     -0.299845     1.335055    -0.254983 
H     -0.188313    -0.179745     0.677420 
N     -1.883616     0.021853    -0.541560 
O     -2.643012     0.083475     0.414356 
O     -2.236784    -0.192437    -1.690065 
H      2.445313    -1.094192     0.603737 
O      2.478687    -0.442163     1.314868 
H      2.631458     0.397509     0.863072 

-----------------------------------------
  FORCES (Eh/Bohr)
-----------------------------------------
C      0.000718    -0.000929     0.000894 
H     -0.000083     0.000188     0.000209 
H      0.000172     0.000604    -0.000187 
H      0.000102     0.000121    -0.000688 
N      0.000073     0.000377     0.001274 
O      0.000054    -0.000277    -0.001868 
O     -0.001080    -0.000051     0.000113 
H     -0.000221     0.000000    -0.000112 
O      0.000438     0.000048     0.000213 
H     -0.000207    -0.000105     0.000067 

-----------------------------------------
  UNIT TANGENT
-----------------------------------------
C      0.022596     0.177834    -0.167130 
H     -0.045368     0.438232    -0.335423 
H     -0.183428     0.186718     0.034299 
H      0.284292     0.056166    -0.299774 
N      0.034733    -0.084078     0.059811 
O      0.151070    -0.003930     0.141502 
O     -0.069811    -0.376006     0.161306 
H     -0.087866    -0.170419     0.229190 
O     -0.150939    -0.066131     0.131375 
H      0.044720    -0.158387     0.044843 
 => Unit tangent is an approximation to the TS mode at the saddle point

Next a TS optimization is performed on the CI from the NEB run.

         *************************************************************
         *                       TS OPTIMIZATION                     *
         *************************************************************


Following output files will be written:
Converged TS will be written to          ....  neb_NEB-TS_converged.xyz
                                         ....  neb.xyz
Current trajectory will be written to    ....  neb_trj.xyz
Initial Hessian will be stored in        ....  neb.appr.hess
Geometry optimization settings:
Update method            Update   .... Bofill
Choice of coordinates    CoordSys .... Z-matrix Internals
Initial Hessian          InHess   .... Read

Convergence Tolerances:
Energy Change            TolE     ....  5.0000e-06 Eh
Max. Gradient            TolMAXG  ....  3.0000e-04 Eh/bohr
RMS Gradient             TolRMSG  ....  1.0000e-04 Eh/bohr
Max. Displacement        TolMAXD  ....  4.0000e-03 bohr
RMS Displacement         TolRMSD  ....  2.0000e-03 bohr
Strict Convergence                ....  False
------------------------------------------------------------------------------
                        ORCA OPTIMIZATION COORDINATE SETUP
------------------------------------------------------------------------------

The optimization will be done in new redundant internal coordinates
Making redundant internal coordinates   ...  (new redundants) done
Following TS mode number                ...     0
TS-active-atoms for coordinate setup... 1 3 6 
Evaluating the initial hessian          ... (Reading Exact Hessian)...  
InHessName: neb.appr.hess	The file <neb.appr.hess> is opened as a .hess file
done
done
Diagonalizing the Hessian               .... done
Dimension of the hessian                .... 52
Lowest eigenvalues of the non projected Hessian:
 -0.001793070 -0.000000000 -0.000000000 -0.000000000 -0.000000000
done
Evaluating the coordinates              ...  done
Calculating the B-matrix                .... done
Calculating the G-matrix                .... done
Diagonalizing the G-matrix              .... done
The first mode is                       ....   28
The number of degrees of freedom        ....   24

    -----------------------------------------------------------------
                    Redundant Internal Coordinates


    -----------------------------------------------------------------
         Definition                    Initial Value    d2E/dq (diagonal element)
    -----------------------------------------------------------------
      1. B(H   1,C   0)                  1.0843         0.350883   
      2. B(H   2,C   0)                  1.0884         0.358920   
      3. B(H   3,C   0)                  1.0853         0.319651   
      4. B(N   4,C   0)                  1.4904         0.301353   
      5. B(O   5,N   4)                  1.2224         0.615000   
      6. B(O   6,N   4)                  1.2205         0.421076   
      7. B(O   6,O   5)                  2.1610         0.159564   
      8. B(O   6,C   0)                  2.3286         0.107735   
      9. B(H   7,H   1)                  3.0155         0.022769   
     10. B(H   7,C   0)                  3.3020         0.018084   
     11. B(H   7,H   3)                  2.7888         0.017843   
     12. B(O   8,H   7)                  0.9654         0.448917   
     13. B(O   8,H   1)                  3.3790         0.019519   
     14. B(O   8,C   0)                  3.3960         0.021109   
     15. B(O   8,H   3)                  2.7546         0.019033   
     16. B(H   9,H   2)                  3.2744         0.032091   
     17. B(H   9,H   1)                  3.2331         0.018820   
     18. B(H   9,C   0)                  3.2768         0.022817   
     19. B(H   9,H   3)                  2.8842         0.019728   
     20. B(H   9,O   8)                  0.9657         0.450729   
     21. A(H   3,C   0,O   8)           45.9780         0.015316   
     22. A(H   2,C   0,O   8)           94.8556         0.025932   
     23. A(N   4,C   0,O   8)          151.9878         0.075527   
     24. A(H   1,C   0,H   2)          111.1000         0.041629   
     25. A(H   3,C   0,N   4)          108.0301         0.090214   
     26. A(H   2,C   0,H   3)          110.1530         0.034159   
     27. A(H   1,C   0,H   3)          112.7430         0.026590   
     28. A(H   1,C   0,N   4)          108.2683         0.021375   
     29. A(H   2,C   0,N   4)          106.2701         0.069227   
     30. A(H   1,C   0,O   8)           79.9068         0.008575   
     31. A(C   0,N   4,O   5)          117.5333         0.261673   
     32. A(O   5,N   4,O   6)          124.3984         0.194838   
     33. A(C   0,N   4,O   6)          118.0532         0.147479   
     34. A(C   0,O   8,H   7)           76.2217         0.006195   
     35. A(H   7,O   8,H   9)          104.3660         0.032426   
     36. A(C   0,O   8,H   9)           74.7239         0.007008   
     37. D(O   5,N   4,C   0,H   3)     36.6550         0.012270   
     38. D(O   6,N   4,C   0,H   1)    -22.3122         0.018255   
     39. D(O   5,N   4,C   0,H   1)    159.0389         0.018341   
     40. D(O   6,N   4,C   0,H   3)   -144.6961         0.011613   
     41. D(O   6,N   4,C   0,H   2)     97.1114         0.015420   
     42. D(O   6,N   4,C   0,O   8)   -125.4662         0.008163   
     43. D(O   5,N   4,C   0,O   8)     55.8849         0.008921   
     44. D(O   5,N   4,C   0,H   2)    -81.5375         0.016118   
     45. D(H   9,O   8,C   0,H   2)    -28.2900         0.020947   
     46. D(H   9,O   8,C   0,H   1)     82.3105         0.021123   
     47. D(H   7,O   8,C   0,N   4)     83.0117         0.014586   
     48. D(H   7,O   8,C   0,H   3)    108.8315         0.019883   
     49. D(H   7,O   8,C   0,H   2)   -137.6680         0.021748   
     50. D(H   9,O   8,C   0,H   3)   -141.7905         0.019272   
     51. D(H   7,O   8,C   0,H   1)    -27.0675         0.024146   
     52. D(H   9,O   8,C   0,N   4)   -167.6103         0.016725   
    -----------------------------------------------------------------

Number of atoms                         .... 10
Number of degrees of freedom            .... 52

         *************************************************************
         *                GEOMETRY OPTIMIZATION CYCLE   1            *
         *************************************************************


           ************************************************************
           *        Program running with 102 parallel MPI-processes   *
           *              working on a common directory               *
           ************************************************************
------------------------------------------------------------------------------
                           ORCA GTO INTEGRAL CALCULATION
                           -- RI-GTO INTEGRALS CHOSEN --
------------------------------------------------------------------------------
------------------------------------------------------------------------------
                   ___                                                        
                  /   \      - P O W E R E D   B Y -                         
                 /     \                                                     
                 |  |  |   _    _      __       _____    __    __             
                 |  |  |  | |  | |    /  \     |  _  \  |  |  /  |          
                  \  \/   | |  | |   /    \    | | | |  |  | /  /          
                 / \  \   | |__| |  /  /\  \   | |_| |  |  |/  /          
                |  |  |   |  __  | /  /__\  \  |    /   |      \           
                |  |  |   | |  | | |   __   |  |    \   |  |\   \          
                \     /   | |  | | |  |  |  |  | |\  \  |  | \   \       
                 \___/    |_|  |_| |__|  |__|  |_| \__\ |__|  \__/        
                                                                              
                      - O R C A' S   B I G   F R I E N D -                    
                                      &                                       
                       - I N T E G R A L  F E E D E R -                       
                                                                              
 v1 FN, 2020, v2 2021                                                         
------------------------------------------------------------------------------


Reading SHARK input file neb.SHARKINP.tmp ... ok
----------------------
SHARK INTEGRAL PACKAGE
----------------------

Number of atoms                             ...     10
Number of basis functions                   ...    185
Number of shells                            ...     75
Maximum angular momentum                    ...      3
Integral batch strategy                     ... SHARK/LIBINT Hybrid
RI-J (if used) integral strategy            ... SPLIT-RIJ (Revised 2003 algorithm where possible)
Printlevel                                  ...      1
Contraction scheme used                     ... SEGMENTED contraction
Coulomb Range Separation                    ... NOT USED
Exchange Range Separation                   ... NOT USED
Finite Nucleus Model                        ... NOT USED
Auxiliary Coulomb fitting basis             ... AVAILABLE
   # of basis functions in Aux-J            ...    300
   # of shells in Aux-J                     ...    100
   Maximum angular momentum in Aux-J        ...      4
Auxiliary J/K fitting basis                 ... NOT available
Auxiliary Correlation fitting basis         ... NOT available
Auxiliary 'external' fitting basis          ... NOT available
Integral threshold                          ...     2.500000e-11
Primitive cut-off                           ...     2.500000e-12
Primitive pair pre-selection threshold      ...     2.500000e-12

Calculating pre-screening integrals         ... done (  0.0 sec) Dimension = 75
Organizing shell pair data                  ... done (  0.1 sec)
Shell pair information
Total number of shell pairs                 ...      2850
Shell pairs after pre-screening             ...      2476
Total number of primitive shell pairs       ...      8640
Primitive shell pairs kept                  ...      5793
          la=0 lb=0:    706 shell pairs
          la=1 lb=0:    717 shell pairs
          la=1 lb=1:    193 shell pairs
          la=2 lb=0:    336 shell pairs
          la=2 lb=1:    172 shell pairs
          la=2 lb=2:     46 shell pairs
          la=3 lb=0:    170 shell pairs
          la=3 lb=1:     84 shell pairs
          la=3 lb=2:     40 shell pairs
          la=3 lb=3:     12 shell pairs

Calculating one electron integrals          ... done (  0.0 sec)
Calculating RI/J V-Matrix + Cholesky decomp.... done (  0.0 sec)
Calculating Nuclear repulsion               ... done (  0.0 sec) ENN=    172.069220980245 Eh

SHARK setup successfully completed in   0.3 seconds

Maximum memory used throughout the entire GTOINT-calculation: 16.1 MB


           ************************************************************
           *        Program running with 102 parallel MPI-processes   *
           *              working on a common directory               *
           ************************************************************
-------------------------------------------------------------------------------
                                 ORCA SCF
-------------------------------------------------------------------------------

------------
SCF SETTINGS
------------
Hamiltonian:
 Density Functional     Method          .... DFT(GTOs)
 Exchange Functional    Exchange        .... B88
   X-Alpha parameter    XAlpha          ....  0.666667
   Becke's b parameter  XBeta           ....  0.004200
 Correlation Functional Correlation     .... LYP
 LDA part of GGA corr.  LDAOpt          .... VWN-5
 Gradients option       PostSCFGGA      .... off
 Hybrid DFT is turned on
   Fraction HF Exchange ScalHFX         ....  0.200000
   Scaling of DF-GGA-X  ScalDFX         ....  0.720000
   Scaling of DF-GGA-C  ScalDFC         ....  0.810000
   Scaling of DF-LDA-C  ScalLDAC        ....  1.000000
   Perturbative correction              ....  0.000000
   Density functional embedding theory  .... OFF
   NL short-range parameter             ....  4.800000
 RI-approximation to the Coulomb term is turned on
   Number of AuxJ basis functions       .... 300
   RIJ-COSX (HFX calculated with COS-X)).... on


General Settings:
 Integral files         IntName         .... neb
 Hartree-Fock type      HFTyp           .... RHF
 Total Charge           Charge          ....    0
 Multiplicity           Mult            ....    1
 Number of Electrons    NEL             ....   42
 Basis Dimension        Dim             ....  185
 Nuclear Repulsion      ENuc            ....    172.0692209802 Eh

Convergence Acceleration:
 DIIS                   CNVDIIS         .... on
   Start iteration      DIISMaxIt       ....    12
   Startup error        DIISStart       ....  0.200000
   # of expansion vecs  DIISMaxEq       ....     5
   Bias factor          DIISBfac        ....   1.050
   Max. coefficient     DIISMaxC        ....  10.000
 Trust-Rad. Augm. Hess. CNVTRAH         .... auto
   Auto Start mean grad. ratio tolernc. ....  1.125000
   Auto Start start iteration           ....     1
   Auto Start num. interpolation iter.  ....    10
   Max. Number of Micro iterations      ....    16
   Max. Number of Macro iterations      .... Maxiter - #DIIS iter
   Number of Davidson start vectors     ....     2
   Converg. threshold I  (grad. norm)   ....   1.000e-05
   Converg. threshold II (energy diff.) ....   1.000e-08
   Grad. Scal. Fac. for Micro threshold ....   0.100
   Minimum threshold for Micro iter.    ....   0.010
   NR start threshold (gradient norm)   ....   0.001
   Initial trust radius                 ....   0.400
   Minimum AH scaling param. (alpha)    ....   1.000
   Maximum AH scaling param. (alpha)    .... 1000.000
   Orbital update algorithm             .... Taylor
   White noise on init. David. guess    .... on
   Maximum white noise                  ....   0.010
   Quad. conv. algorithm                .... NR
 SOSCF                  CNVSOSCF        .... on
   Start iteration      SOSCFMaxIt      ....   150
   Startup grad/error   SOSCFStart      ....  0.003300
 Level Shifting         CNVShift        .... on
   Level shift para.    LevelShift      ....    0.2500
   Turn off err/grad.   ShiftErr        ....    0.0010
 Zerner damping         CNVZerner       .... off
 Static damping         CNVDamp         .... on
   Fraction old density DampFac         ....    0.7000
   Max. Damping (<1)    DampMax         ....    0.9800
   Min. Damping (>=0)   DampMin         ....    0.0000
   Turn off err/grad.   DampErr         ....    0.1000
 Fernandez-Rico         CNVRico         .... off

SCF Procedure:
 Maximum # iterations   MaxIter         ....   125
 SCF integral mode      SCFMode         .... Direct
   Integral package                     .... SHARK and LIBINT hybrid scheme
 Reset frequency        DirectResetFreq ....    20
 Integral Threshold     Thresh          ....  2.500e-11 Eh
 Primitive CutOff       TCut            ....  2.500e-12 Eh

Convergence Tolerance:
 Convergence Check Mode ConvCheckMode   .... Total+1el-Energy
 Convergence forced     ConvForced      .... 0
 Energy Change          TolE            ....  1.000e-08 Eh
 1-El. energy change                    ....  1.000e-05 Eh
 Orbital Gradient       TolG            ....  1.000e-05
 Orbital Rotation angle TolX            ....  1.000e-05
 DIIS Error             TolErr          ....  5.000e-07


Diagonalization of the overlap matrix:
Smallest eigenvalue                        ... 8.447e-04
Time for diagonalization                   ...    0.007 sec
Threshold for overlap eigenvalues          ... 1.000e-08
Number of eigenvalues below threshold      ... 0
Time for construction of square roots      ...    0.012 sec
Total time needed                          ...    0.021 sec

---------------------
INITIAL GUESS: MOREAD
---------------------
Guess MOs are being read from file: neb.gbw
Input Geometry matches current geometry (good)
Input basis set matches current basis set (good)
MOs were renormalized
MOs were reorthogonalized (Cholesky)
                      ------------------
                      INITIAL GUESS DONE (   0.0 sec)
                      ------------------
-------------------
DFT GRID GENERATION
-------------------

General Integration Accuracy     IntAcc      ... 4.388
Radial Grid Type                 RadialGrid  ... OptM3 with GC (2021)
Angular Grid (max. ang.)         AngularGrid ... 4 (Lebedev-302)
Angular grid pruning method      GridPruning ... 4 (adaptive)
Weight generation scheme         WeightScheme... Becke
Basis function cutoff            BFCut       ... 1.0000e-11
Integration weight cutoff        WCut        ... 1.0000e-14
Angular grids for H and He will be reduced by one unit
Partially contracted basis set               ... off
Rotationally invariant grid construction     ... off

Total number of grid points                  ...    46817
Total number of batches                      ...      737
Average number of points per batch           ...       63
Average number of grid points per atom       ...     4682
Time for grid setup =    0.357 sec

--------------------
COSX GRID GENERATION
--------------------

GRIDX 1
-------
General Integration Accuracy     IntAcc      ... 3.816
Radial Grid Type                 RadialGrid  ... OptM3 with GC (2021)
Angular Grid (max. ang.)         AngularGrid ... 1 (Lebedev-50)
Angular grid pruning method      GridPruning ... 4 (adaptive)
Weight generation scheme         WeightScheme... Becke
Basis function cutoff            BFCut       ... 1.0000e-11
Integration weight cutoff        WCut        ... 1.0000e-14
Angular grids for H and He will be reduced by one unit
Partially contracted basis set               ... on
Rotationally invariant grid construction     ... off

Total number of grid points                  ...     6002
Total number of batches                      ...       99
Average number of points per batch           ...       60
Average number of grid points per atom       ...      600
UseSFitting                                  ... on

GRIDX 2
-------
General Integration Accuracy     IntAcc      ... 4.020
Radial Grid Type                 RadialGrid  ... OptM3 with GC (2021)
Angular Grid (max. ang.)         AngularGrid ... 2 (Lebedev-110)
Angular grid pruning method      GridPruning ... 4 (adaptive)
Weight generation scheme         WeightScheme... Becke
Basis function cutoff            BFCut       ... 1.0000e-11
Integration weight cutoff        WCut        ... 1.0000e-14
Angular grids for H and He will be reduced by one unit
Partially contracted basis set               ... on
Rotationally invariant grid construction     ... off

Total number of grid points                  ...    13192
Total number of batches                      ...      212
Average number of points per batch           ...       62
Average number of grid points per atom       ...     1319
UseSFitting                                  ... on

GRIDX 3
-------
General Integration Accuracy     IntAcc      ... 4.338
Radial Grid Type                 RadialGrid  ... OptM3 with GC (2021)
Angular Grid (max. ang.)         AngularGrid ... 3 (Lebedev-194)
Angular grid pruning method      GridPruning ... 4 (adaptive)
Weight generation scheme         WeightScheme... Becke
Basis function cutoff            BFCut       ... 1.0000e-11
Integration weight cutoff        WCut        ... 1.0000e-14
Angular grids for H and He will be reduced by one unit
Partially contracted basis set               ... on
Rotationally invariant grid construction     ... off

Total number of grid points                  ...    29105
Total number of batches                      ...      459
Average number of points per batch           ...       63
Average number of grid points per atom       ...     2910
UseSFitting                                  ... on

Time for X-Grid setup             =    0.310 sec


--------------------
CPCM SOLVATION MODEL
--------------------
CPCM parameters:
  Epsilon                                         ...      78.4000
  Refrac                                          ...       1.3300
  Rsolv                                           ...       1.3000
  Surface type                                    ... GAUSSIAN VDW
  Epsilon function type                           ...         CPCM
Radii:
 Radius for C  used is    3.8550 Bohr (=   2.0400 Ang.)
 Radius for H  used is    2.4944 Bohr (=   1.3200 Ang.)
 Radius for N  used is    3.5149 Bohr (=   1.8600 Ang.)
 Radius for O  used is    3.4469 Bohr (=   1.8240 Ang.)
Calculating surface                               ...        done! (  0.0s)
GEPOL surface points                              ...          687
GEPOL Volume                                      ...     686.5981
GEPOL Surface-area                                ...     478.6138
Calculating surface distance matrix               ...        done! (  0.0s)
Performing Cholesky decomposition & store         ...        done! (  0.1s)
Overall time for CPCM initialization              ...                 0.1s
--------------
SCF ITERATIONS
--------------
ITER       Energy         Delta-E        Max-DP      RMS-DP      [F,P]     Damp
               ***  Starting incremental Fock matrix formation  ***
                      *** Initiating the SOSCF procedure ***
                      *** Re-Reading the Fockian *** 
                      *** Removing any level shift *** 
ITER      Energy       Delta-E        Grad      Rot      Max-DP    RMS-DP
  0   -321.44963404 -321.4496340354  0.000000  0.000000  0.000001  0.000000
               *** Restarting incremental Fock matrix formation ***
                  ***Gradient check signals convergence***
              ***Rediagonalizing the Fockian in SOSCF/NRSCF***

               *****************************************************
               *                     SUCCESS                       *
               *           SCF CONVERGED AFTER   1 CYCLES          *
               *****************************************************

Old exchange energy                            =     -7.622206548 Eh
New exchange energy                            =     -7.622187414 Eh
Exchange energy change after final integration =      0.000019133 Eh
Total energy after final integration           =   -321.449614902 Eh
Final COS-X integration done in                =     0.170 sec

----------------
TOTAL SCF ENERGY
----------------

Total Energy       :         -321.44961490 Eh           -8747.08871 eV

Components:
Nuclear Repulsion  :          172.06922098 Eh            4682.24154 eV
Electronic Energy  :         -493.51883588 Eh          -13429.33026 eV
One Electron Energy:         -780.28092056 Eh          -21232.52329 eV
Two Electron Energy:          286.76208468 Eh            7803.19303 eV
Max COSX asymmetry :            0.00000108 Eh               0.00003 eV
CPCM Dielectric    :           -0.02543540 Eh              -0.69213 eV

Virial components:
Potential Energy   :         -641.66065895 Eh          -17460.47420 eV
Kinetic Energy     :          320.21104405 Eh            8713.38549 eV
Virial Ratio       :            2.00386798


DFT components:
N(Alpha)           :       21.000005943220 electrons
N(Beta)            :       21.000005943220 electrons
N(Total)           :       42.000011886440 electrons
E(X)               :      -30.411337195611 Eh       
E(C)               :       -1.722481523320 Eh       
E(XC)              :      -32.133818718931 Eh       
DFET-embed. en.    :        0.000000000000 Eh       
CPCM Solvation Model Properties:
Surface-charge          :           -0.01342977
Charge-correction       :            0.00017757 Eh               0.00483 eV
Free-energy (cav+disp)  :  This term is not implemented in the current solvation scheme

---------------
SCF CONVERGENCE
---------------

  Last Energy change         ...   -2.1032e-11  Tolerance :   1.0000e-08
  Last MAX-Density change    ...    6.6613e-16  Tolerance :   1.0000e-07
  Last RMS-Density change    ...    1.9512e-17  Tolerance :   5.0000e-09
  Last Orbital Gradient      ...    3.3763e-07  Tolerance :   1.0000e-05
  Last Orbital Rotation      ...    3.3844e-07  Tolerance :   1.0000e-05

             **** THE GBW FILE WAS UPDATED (neb.gbw) ****
             **** DENSITY neb.scfp WAS UPDATED ****
             **** ENERGY FILE WAS UPDATED (neb.en.tmp) ****
             **** THE GBW FILE WAS UPDATED (neb.gbw) ****
             **** DENSITY neb.scfp WAS UPDATED ****
----------------
ORBITAL ENERGIES
----------------

  NO   OCC          E(Eh)            E(eV) 
   0   2.0000     -19.171741      -521.6896 
   1   2.0000     -19.170571      -521.6578 
   2   2.0000     -19.124072      -520.3924 
   3   2.0000     -14.559057      -396.1721 
   4   2.0000     -10.219397      -278.0839 
   5   2.0000      -1.242595       -33.8127 
   6   2.0000      -1.069158       -29.0933 
   7   2.0000      -1.007690       -27.4206 
   8   2.0000      -0.812984       -22.1224 
   9   2.0000      -0.624499       -16.9935 
  10   2.0000      -0.555527       -15.1167 
  11   2.0000      -0.544443       -14.8151 
  12   2.0000      -0.534321       -14.5396 
  13   2.0000      -0.524927       -14.2840 
  14   2.0000      -0.438827       -11.9411 
  15   2.0000      -0.421134       -11.4596 
  16   2.0000      -0.392584       -10.6828 
  17   2.0000      -0.332302        -9.0424 
  18   2.0000      -0.325735        -8.8637 
  19   2.0000      -0.315384        -8.5820 
  20   2.0000      -0.309054        -8.4098 
  21   0.0000      -0.081596        -2.2203 
  22   0.0000       0.025691         0.6991 
  23   0.0000       0.068398         1.8612 
  24   0.0000       0.100236         2.7276 
  25   0.0000       0.116510         3.1704 
  26   0.0000       0.129254         3.5172 
  27   0.0000       0.135767         3.6944 
  28   0.0000       0.172638         4.6977 
  29   0.0000       0.207642         5.6502 
  30   0.0000       0.218088         5.9345 
  31   0.0000       0.244113         6.6427 
  32   0.0000       0.305725         8.3192 
  33   0.0000       0.343625         9.3505 
  34   0.0000       0.351977         9.5778 
  35   0.0000       0.369115        10.0441 
  36   0.0000       0.379210        10.3188 
  37   0.0000       0.397031        10.8038 
  38   0.0000       0.426545        11.6069 
  39   0.0000       0.434782        11.8310 
  40   0.0000       0.437528        11.9057 
  41   0.0000       0.442428        12.0391 
  42   0.0000       0.454273        12.3614 
  43   0.0000       0.471116        12.8197 
  44   0.0000       0.491154        13.3650 
  45   0.0000       0.513690        13.9782 
  46   0.0000       0.523346        14.2410 
  47   0.0000       0.534401        14.5418 
  48   0.0000       0.563546        15.3349 
  49   0.0000       0.571790        15.5592 
  50   0.0000       0.593353        16.1459 
  51   0.0000       0.604822        16.4580 
  52   0.0000       0.645569        17.5668 
  53   0.0000       0.702970        19.1288 
  54   0.0000       0.794392        21.6165 
  55   0.0000       0.818055        22.2604 
  56   0.0000       0.875016        23.8104 
  57   0.0000       0.936145        25.4738 
  58   0.0000       0.988124        26.8882 
  59   0.0000       1.008190        27.4342 
  60   0.0000       1.140659        31.0389 
  61   0.0000       1.152888        31.3717 
  62   0.0000       1.180086        32.1118 
  63   0.0000       1.203501        32.7489 
  64   0.0000       1.296129        35.2695 
  65   0.0000       1.309718        35.6392 
  66   0.0000       1.362303        37.0701 
  67   0.0000       1.384401        37.6715 
  68   0.0000       1.482083        40.3295 
  69   0.0000       1.492462        40.6120 
  70   0.0000       1.509243        41.0686 
  71   0.0000       1.537877        41.8477 
  72   0.0000       1.546033        42.0697 
  73   0.0000       1.572056        42.7778 
  74   0.0000       1.605433        43.6861 
  75   0.0000       1.608666        43.7740 
  76   0.0000       1.665024        45.3076 
  77   0.0000       1.680909        45.7398 
  78   0.0000       1.738665        47.3115 
  79   0.0000       1.765179        48.0330 
  80   0.0000       1.767460        48.0950 
  81   0.0000       1.906315        51.8735 
  82   0.0000       1.908369        51.9294 
  83   0.0000       1.936461        52.6938 
  84   0.0000       1.962767        53.4096 
  85   0.0000       2.016023        54.8588 
  86   0.0000       2.020507        54.9808 
  87   0.0000       2.041222        55.5445 
  88   0.0000       2.103073        57.2275 
  89   0.0000       2.104435        57.2646 
  90   0.0000       2.123165        57.7742 
  91   0.0000       2.172270        59.1105 
  92   0.0000       2.195925        59.7542 
  93   0.0000       2.227851        60.6229 
  94   0.0000       2.263740        61.5995 
  95   0.0000       2.293766        62.4165 
  96   0.0000       2.304777        62.7162 
  97   0.0000       2.360350        64.2284 
  98   0.0000       2.393775        65.1379 
  99   0.0000       2.498947        67.9998 
 100   0.0000       2.539674        69.1080 
 101   0.0000       2.566300        69.8326 
 102   0.0000       2.573584        70.0308 
 103   0.0000       2.584089        70.3166 
 104   0.0000       2.593256        70.5661 
 105   0.0000       2.609711        71.0138 
 106   0.0000       2.656835        72.2962 
 107   0.0000       2.674808        72.7852 
 108   0.0000       2.702807        73.5471 
 109   0.0000       2.717018        73.9338 
 110   0.0000       2.812358        76.5282 
 111   0.0000       2.883658        78.4683 
 112   0.0000       2.898264        78.8658 
 113   0.0000       2.993177        81.4485 
 114   0.0000       3.002361        81.6984 
 115   0.0000       3.044619        82.8483 
 116   0.0000       3.136072        85.3369 
 117   0.0000       3.213913        87.4550 
 118   0.0000       3.223296        87.7103 
 119   0.0000       3.337497        90.8179 
 120   0.0000       3.399984        92.5183 
 121   0.0000       3.452391        93.9443 
 122   0.0000       3.482175        94.7548 
 123   0.0000       3.554093        96.7118 
 124   0.0000       3.651704        99.3679 
 125   0.0000       3.725479       101.3754 
 126   0.0000       3.755208       102.1844 
 127   0.0000       3.919272       106.6488 
 128   0.0000       3.975926       108.1905 
 129   0.0000       4.014515       109.2405 
 130   0.0000       4.077167       110.9454 
 131   0.0000       4.143601       112.7531 
 132   0.0000       4.261646       115.9653 
 133   0.0000       4.396316       119.6298 
 134   0.0000       4.534112       123.3795 
 135   0.0000       4.546802       123.7248 
 136   0.0000       4.610066       125.4463 
 137   0.0000       4.661776       126.8534 
 138   0.0000       4.748424       129.2112 
 139   0.0000       4.802937       130.6946 
 140   0.0000       4.878460       132.7496 
 141   0.0000       5.055844       137.5765 
 142   0.0000       5.074472       138.0834 
 143   0.0000       5.095460       138.6545 
 144   0.0000       5.111658       139.0953 
 145   0.0000       5.125281       139.4660 
 146   0.0000       5.129997       139.5943 
 147   0.0000       5.199075       141.4740 
 148   0.0000       5.273700       143.5047 
 149   0.0000       5.284826       143.8074 
 150   0.0000       5.297323       144.1475 
 151   0.0000       5.374356       146.2437 
 152   0.0000       5.399555       146.9294 
 153   0.0000       5.453004       148.3838 
 154   0.0000       5.554173       151.1367 
 155   0.0000       5.596096       152.2775 
 156   0.0000       5.672050       154.3443 
 157   0.0000       5.919994       161.0912 
 158   0.0000       6.015159       163.6808 
 159   0.0000       6.201189       168.7429 
 160   0.0000       6.218573       169.2160 
 161   0.0000       6.259662       170.3341 
 162   0.0000       6.306511       171.6089 
 163   0.0000       6.314253       171.8196 
 164   0.0000       6.323579       172.0733 
 165   0.0000       6.334424       172.3684 
 166   0.0000       6.360824       173.0868 
 167   0.0000       6.402636       174.2246 
 168   0.0000       6.422442       174.7635 
 169   0.0000       6.621454       180.1789 
 170   0.0000       6.835078       185.9919 
 171   0.0000       6.854122       186.5101 
 172   0.0000       6.896990       187.6766 
 173   0.0000       6.909684       188.0221 
 174   0.0000       6.989825       190.2028 
 175   0.0000       7.066005       192.2758 
 176   0.0000       7.207449       196.1246 
 177   0.0000       7.238017       196.9564 
 178   0.0000       7.293859       198.4760 
 179   0.0000       7.366244       200.4457 
 180   0.0000      22.313461       607.1801 
 181   0.0000      32.291243       878.6894 
 182   0.0000      43.249945      1176.8908 
 183   0.0000      43.880236      1194.0419 
 184   0.0000      43.904571      1194.7041 
-------
TIMINGS
-------

Total SCF time: 0 days 0 hours 0 min 2 sec 

Total time                  ....       2.353 sec
Sum of individual times     ....       1.971 sec  ( 83.8%)

Fock matrix formation       ....       1.182 sec  ( 50.2%)
  Split-RI-J                ....       0.391 sec  ( 33.1% of F)
  Chain of spheres X        ....       0.413 sec  ( 34.9% of F)
  XC integration            ....       0.083 sec  (  7.0% of F)
    Basis function eval.    ....       0.006 sec  (  7.6% of XC)
    Density eval.           ....       0.008 sec  (  9.7% of XC)
    XC-Functional eval.     ....       0.001 sec  (  1.0% of XC)
    XC-Potential eval.      ....       0.005 sec  (  6.2% of XC)
Diagonalization             ....       0.027 sec  (  1.1%)
Density matrix formation    ....       0.018 sec  (  0.7%)
Population analysis         ....       0.000 sec  (  0.0%)
Initial guess               ....       0.033 sec  (  1.4%)
Orbital Transformation      ....       0.000 sec  (  0.0%)
Orbital Orthonormalization  ....       0.020 sec  (  0.9%)
DIIS solution               ....       0.017 sec  (  0.7%)
SOSCF solution              ....       0.028 sec  (  1.2%)
Grid generation             ....       0.667 sec  ( 28.4%)

Maximum memory used throughout the entire SCF-calculation: 65.0 MB


-------------------------------------------------------------------------------
                          DFT DISPERSION CORRECTION                            
                                                                               
                              DFTD3 V3.1  Rev 1                                
                          USING Becke-Johnson damping                          
-------------------------------------------------------------------------------
The B3LYP functional is recognized
Active option DFTDOPT                   ...         4   

molecular C6(AA) [au] = 741.701244 


            DFT-D V3
 parameters
 s6 scaling factor         :     1.0000 
 a1 scaling factor         :     0.3981 
 s8 scaling factor         :     1.9889 
 a2 scaling factor         :     4.4211 
 ad hoc parameters k1-k3   :    16.0000     1.3333    -4.0000 

 Edisp/kcal,au: -4.856263081532  -0.007738947003 
 E6   /kcal   :  -2.464631247 
 E8   /kcal   :  -2.391631835 
 % E8         :  49.248399323 

-------------------------   ----------------
Dispersion correction           -0.007738947
-------------------------   ----------------


-------------------------   --------------------
FINAL SINGLE POINT ENERGY      -321.457353848964
-------------------------   --------------------



           ************************************************************
           *        Program running with 102 parallel MPI-processes   *
           *              working on a common directory               *
           ************************************************************
------------------------------------------------------------------------------
                         ORCA SCF GRADIENT CALCULATION
------------------------------------------------------------------------------

 ... reading COSX grid (gridx3)
Gradient of the Kohn-Sham DFT energy:
Kohn-Sham wavefunction type      ... RKS
Hartree-Fock exchange scaling    ...    0.200
Number of operators              ...    1
Number of atoms                  ...   10
Basis set dimensions             ...  185
Integral neglect threshold       ... 2.5e-11
Integral primitive cutoff        ... 2.5e-12
SHARK Integral package           ... ON

Nuc. rep. gradient       (SHARK) ... done (  0.0 sec)
HCore & Overlap gradient (SHARK) ... done (  0.0 sec)
RI-J gradient            (SHARK) ... done (  0.1 sec)
COSX-gradient                    ... done (  0.2 sec)
Exchange-correlation gradient    ... done
Dispersion correction            ... done

------------------
CARTESIAN GRADIENT
------------------

   1   C   :   -0.000718255    0.000929040   -0.000893550
   2   H   :    0.000083144   -0.000188029   -0.000209005
   3   H   :   -0.000172304   -0.000604110    0.000186572
   4   H   :   -0.000101558   -0.000121278    0.000687573
   5   N   :   -0.000073225   -0.000377420   -0.001273519
   6   O   :   -0.000054345    0.000276749    0.001867716
   7   O   :    0.001080168    0.000050534   -0.000112789
   8   H   :    0.000220928   -0.000000271    0.000111588
   9   O   :   -0.000437634   -0.000048495   -0.000212553
  10   H   :    0.000206724    0.000105563   -0.000067578

Difference to translation invariance:
           :    0.0000336433    0.0000222825    0.0000844551

Difference to rotation invariance:
           :   -0.0004597594    0.0010562539    0.0007376680

Norm of the cartesian gradient     ...    0.0031731648
RMS gradient                       ...    0.0005793380
MAX gradient                       ...    0.0018677156

-------
TIMINGS
-------

Total SCF gradient time            ...        1.174 sec

One electron gradient       ....       0.022 sec  (  1.9%)
RI-J Coulomb gradient       ....       0.116 sec  (  9.9%)
COSX gradient               ....       0.213 sec  ( 18.1%)
XC gradient                 ....       0.123 sec  ( 10.5%)
CPCM gradient               ....       0.093 sec  (  7.9%)
   A-Matrix (El+Nuc)        ....       0.038 sec  (  3.2%)
   Potential                ....       0.056 sec  (  4.7%)

Maximum memory used throughout the entire SCFGRAD-calculation: 39.3 MB
------------------------------------------------------------------------------
                         ORCA GEOMETRY RELAXATION STEP
------------------------------------------------------------------------------

Reading the OPT-File                    .... done
Getting information on internals        .... done
Copying old internal coords+grads       .... done
Making the new internal coordinates     .... (new redundants).... done
Validating the new internal coordinates .... (new redundants).... done
Calculating the B-matrix                .... done
Calculating the G,G- and P matrices     .... done
Transforming gradient to internals      .... done
Projecting the internal gradient        .... done
Number of atoms                         ....  10
Number of internal coordinates          ....  52
Current Energy                          ....  -321.457353849 Eh
Current gradient norm                   ....     0.003173165 Eh/bohr
Maximum allowed component of the step   ....  0.300
Current trust radius                    ....  0.100
Evaluating the initial hessian          ....  (read) 
(Reading Exact Hessian)...  
InHessName: neb.appr.hess	The file <neb.appr.hess> is opened as a .hess file
done
done
Diagonalizing the Hessian               .... done
Dimension of the hessian                .... 52
Lowest eigenvalues of the non projected Hessian:
 -0.001793070 -0.000000000 -0.000000000 -0.000000000 -0.000000000
done
Projecting the Hessian                  .... done
Diagonalizing the Hessian               .... done
Dimension of the hessian                ....  52
Lowest eigenvalues of the Hessian:
 -0.001793070  0.000190391  0.002204807  0.011479627  0.012488399
Hessian has   1 negative eigenvalues
Taking P-RFO step
Searching for lambda that maximizes along the lowest mode
TS mode is mode number   0 with eigenvalue  -0.00179307 and components:
   1.    0.01343486
   2.    0.00939739
   3.    0.01194580
   4.    0.00952602
   5.    0.00402286
   6.    0.01323224
   7.    0.01213174
   8.    0.01647771
   9.   -0.35533894
  10.   -0.08609381
  11.    0.29678280
  12.    0.00325954
  13.   -0.21469181
  14.    0.01505429
  15.    0.34303709
  16.   -0.23776386
  17.   -0.14366924
  18.   -0.02097225
  19.    0.30590128
  20.    0.00828658
  21.    0.18377505
  22.   -0.08549957
  23.    0.18707100
  24.   -0.01102106
  25.    0.00977341
  26.    0.01557207
  27.    0.00138079
  28.   -0.00123039
  29.   -0.01524011
  30.   -0.11389395
  31.    0.00441073
  32.   -0.00290736
  33.   -0.00221578
  34.   -0.05525179
  35.   -0.00607777
  36.   -0.01950474
  37.   -0.17012502
  38.   -0.19523781
  39.   -0.16334884
  40.   -0.20201399
  41.   -0.21711369
  42.   -0.08016881
  43.   -0.04827984
  44.   -0.18522472
  45.    0.16745959
  46.    0.16707547
  47.    0.01588919
  48.    0.09742522
  49.    0.14641511
  50.    0.11846970
  51.    0.14603099
  52.    0.03693367

Lambda that maximizes along the TS mode:       0.00000554
Searching for lambda that minimizes along all other modes
In cycle   1: lambdaN =  -0.00002751   step =   0.00002751
In cycle   2: lambdaN =  -0.00002764   step =   0.00000012
In cycle   3: lambdaN =  -0.00002764   step =   0.00000000
Lambda that minimizes along all other modes:  -0.00002764
Calculated stepsize too large (   0.1772 >    0.1000). Scaled with    0.5642.
The final length of the internal step   ....       0.1000
Converting the step to cartesian space:
 Initial RMS(Int)=    0.0138675049
Transforming coordinates:
 Iter   0:  RMS(Cart)=    0.0096625744 RMS(Int)=    0.0138765815
 Iter   1:  RMS(Cart)=    0.0000181747 RMS(Int)=    0.0000171048
 Iter   2:  RMS(Cart)=    0.0000000819 RMS(Int)=    0.0000000712
done
Storing new coordinates                 .... done

                                .--------------------.
          ----------------------|Geometry convergence|-------------------------
          Item                value                   Tolerance       Converged
          ---------------------------------------------------------------------
          RMS gradient        0.0002941952            0.0001000000      NO
          MAX gradient        0.0009413684            0.0003000000      NO
          RMS step            0.0138675049            0.0020000000      NO
          MAX step            0.0404338673            0.0040000000      NO
          ........................................................
          Max(Bonds)      0.0214      Max(Angles)    0.30
          Max(Dihed)        0.33      Max(Improp)    0.00
          ---------------------------------------------------------------------

The optimization has not yet converged - more geometry cycles are needed


    ---------------------------------------------------------------------------
                         Redundant Internal Coordinates
                            (Angstroem and degrees)

        Definition                    Value    dE/dq     Step     New-Value  comp.(TS mode)
    ----------------------------------------------------------------------------
     1. B(H   1,C   0)                1.0843  0.000291 -0.0004    1.0839   
     2. B(H   2,C   0)                1.0884 -0.000612  0.0004    1.0888   
     3. B(H   3,C   0)                1.0853  0.000585 -0.0006    1.0847   
     4. B(N   4,C   0)                1.4904 -0.000416  0.0006    1.4911   
     5. B(O   5,N   4)                1.2224  0.000646 -0.0005    1.2219   
     6. B(O   6,N   4)                1.2205 -0.000471 -0.0001    1.2204   
     7. B(O   6,O   5)                2.1610  0.000941 -0.0017    2.1592   
     8. B(O   6,C   0)                2.3286 -0.000664  0.0012    2.3297   
     9. B(H   7,H   1)                3.0155  0.000050  0.0214    3.0369          0.36
    10. B(H   7,C   0)                3.3020  0.000038  0.0167    3.3187   
    11. B(H   7,H   3)                2.7888  0.000085  0.0094    2.7982          0.30
    12. B(O   8,H   7)                0.9654 -0.000082 -0.0000    0.9654   
    13. B(O   8,H   1)                3.3790 -0.000057  0.0204    3.3994   
    14. B(O   8,C   0)                3.3960 -0.000138  0.0177    3.4137   
    15. B(O   8,H   3)                2.7546 -0.000195  0.0121    2.7668          0.34
    16. B(H   9,H   2)                3.2744  0.000015  0.0187    3.2931   
    17. B(H   9,H   1)                3.2331  0.000036  0.0181    3.2512   
    18. B(H   9,C   0)                3.2768 -0.000020  0.0161    3.2929   
    19. B(H   9,H   3)                2.8842  0.000110  0.0087    2.8930          0.31
    20. B(H   9,O   8)                0.9657  0.000081 -0.0002    0.9655   
    21. A(H   3,C   0,O   8)           45.98  0.000115   -0.30     45.68   
    22. A(H   2,C   0,O   8)           94.86  0.000069    0.09     94.95   
    23. A(N   4,C   0,O   8)          151.99 -0.000228   -0.23    151.76   
    24. A(H   1,C   0,H   2)          111.10  0.000095   -0.01    111.09   
    25. A(H   3,C   0,N   4)          108.03 -0.000317    0.04    108.07   
    26. A(H   2,C   0,H   3)          110.15 -0.000028    0.00    110.16   
    27. A(H   1,C   0,H   3)          112.74  0.000123   -0.03    112.71   
    28. A(H   1,C   0,N   4)          108.27  0.000037   -0.01    108.26   
    29. A(H   2,C   0,N   4)          106.27  0.000076    0.01    106.28   
    30. A(H   1,C   0,O   8)           79.91  0.000015    0.20     80.10   
    31. A(C   0,N   4,O   5)          117.53 -0.000803    0.05    117.59   
    32. A(O   5,N   4,O   6)          124.40  0.000731   -0.11    124.28   
    33. A(C   0,N   4,O   6)          118.05  0.000072    0.06    118.11   
    34. A(C   0,O   8,H   7)           76.22  0.000096   -0.02     76.21   
    35. A(H   7,O   8,H   9)          104.37  0.000026    0.01    104.38   
    36. A(C   0,O   8,H   9)           74.72  0.000061   -0.05     74.67   
    37. D(O   5,N   4,C   0,H   3)     36.65 -0.000048    0.33     36.99   
    38. D(O   6,N   4,C   0,H   1)    -22.31 -0.000058    0.31    -22.00   
    39. D(O   5,N   4,C   0,H   1)    159.04 -0.000067    0.31    159.35   
    40. D(O   6,N   4,C   0,H   3)   -144.70 -0.000039    0.33   -144.37   
    41. D(O   6,N   4,C   0,H   2)     97.11  0.000114    0.30     97.41   
    42. D(O   6,N   4,C   0,O   8)   -125.47  0.000011    0.06   -125.41   
    43. D(O   5,N   4,C   0,O   8)     55.88  0.000002    0.07     55.95   
    44. D(O   5,N   4,C   0,H   2)    -81.54  0.000105    0.30    -81.24   
    45. D(H   9,O   8,C   0,H   2)    -28.29 -0.000103   -0.12    -28.41   
    46. D(H   9,O   8,C   0,H   1)     82.31 -0.000017   -0.14     82.17   
    47. D(H   7,O   8,C   0,N   4)     83.01  0.000009    0.07     83.08   
    48. D(H   7,O   8,C   0,H   3)    108.83  0.000075   -0.17    108.66   
    49. D(H   7,O   8,C   0,H   2)   -137.67 -0.000074   -0.16   -137.83   
    50. D(H   9,O   8,C   0,H   3)   -141.79  0.000045   -0.13   -141.92   
    51. D(H   7,O   8,C   0,H   1)    -27.07  0.000013   -0.18    -27.25   
    52. D(H   9,O   8,C   0,N   4)   -167.61 -0.000020    0.10   -167.51   
    ----------------------------------------------------------------------------

         *************************************************************
         *                GEOMETRY OPTIMIZATION CYCLE   2            *
         *************************************************************
---------------------------------
CARTESIAN COORDINATES (ANGSTROEM)
---------------------------------
  C     -0.437607    0.258004   -0.290122
  H      0.124729   -0.178715   -1.107372
  H     -0.305652    1.338225   -0.257060
  H     -0.187483   -0.178687    0.670752
  N     -1.888075    0.021494   -0.542145
  O     -2.646196    0.084553    0.414006
  O     -2.244412   -0.196660   -1.688806
  H      2.454987   -1.097209    0.609831
  O      2.488532   -0.445373    1.321117
  H      2.641177    0.394368    0.869799

----------------------------
CARTESIAN COORDINATES (A.U.)
----------------------------
  NO LB      ZA    FRAG     MASS         X           Y           Z
   0 C     6.0000    0    12.011   -0.826957    0.487557   -0.548250
   1 H     1.0000    0     1.008    0.235704   -0.337723   -2.092629
   2 H     1.0000    0     1.008   -0.577598    2.528879   -0.485773
   3 H     1.0000    0     1.008   -0.354291   -0.337670    1.267537
   4 N     7.0000    0    14.007   -3.567945    0.040618   -1.024506
   5 O     8.0000    0    15.999   -5.000586    0.159781    0.782358
   6 O     8.0000    0    15.999   -4.241324   -0.371633   -3.191381
   7 H     1.0000    0     1.008    4.639253   -2.073425    1.152413
   8 O     8.0000    0    15.999    4.702643   -0.841632    2.496550
   9 H     1.0000    0     1.008    4.991101    0.745248    1.643681

--------------------------------
INTERNAL COORDINATES (ANGSTROEM)
--------------------------------
 C      0   0   0     0.000000000000     0.00000000     0.00000000
 H      1   0   0     1.083901799679     0.00000000     0.00000000
 H      1   2   0     1.088752846803   111.08634903     0.00000000
 H      1   2   3     1.084683677454   112.71069076   235.82315758
 N      1   2   3     1.491077382890   108.25994910   116.33937269
 O      5   1   2     1.221862801255   117.58826167   159.35334083
 O      5   1   2     1.220409187989   118.11157511   337.99628158
 H      4   1   2     2.798221132534   109.30690741    28.33907658
 O      8   4   1     0.965372853423    78.17817427   119.62354783
 H      9   8   4     0.965481201629   104.38005260   274.54566480

---------------------------
INTERNAL COORDINATES (A.U.)
---------------------------
 C      0   0   0     0.000000000000     0.00000000     0.00000000
 H      1   0   0     2.048277557458     0.00000000     0.00000000
 H      1   2   0     2.057444707985   111.08634903     0.00000000
 H      1   2   3     2.049755092323   112.71069076   235.82315758
 N      1   2   3     2.817727898147   108.25994910   116.33937269
 O      5   1   2     2.308986067597   117.58826167   159.35334083
 O      5   1   2     2.306239136621   118.11157511   337.99628158
 H      4   1   2     5.287871602640   109.30690741    28.33907658
 O      8   4   1     1.824290310091    78.17817427   119.62354783
 H      9   8   4     1.824495058529   104.38005260   274.54566480



           ************************************************************
           *        Program running with 102 parallel MPI-processes   *
           *              working on a common directory               *
           ************************************************************
------------------------------------------------------------------------------
                   ___                                                        
                  /   \      - P O W E R E D   B Y -                         
                 /     \                                                     
                 |  |  |   _    _      __       _____    __    __             
                 |  |  |  | |  | |    /  \     |  _  \  |  |  /  |          
                  \  \/   | |  | |   /    \    | | | |  |  | /  /          
                 / \  \   | |__| |  /  /\  \   | |_| |  |  |/  /          
                |  |  |   |  __  | /  /__\  \  |    /   |      \           
                |  |  |   | |  | | |   __   |  |    \   |  |\   \          
                \     /   | |  | | |  |  |  |  | |\  \  |  | \   \       
                 \___/    |_|  |_| |__|  |__|  |_| \__\ |__|  \__/        
                                                                              
                      - O R C A' S   B I G   F R I E N D -                    
                                      &                                       
                       - I N T E G R A L  F E E D E R -                       
                                                                              
 v1 FN, 2020, v2 2021                                                         
------------------------------------------------------------------------------


Reading SHARK input file neb.SHARKINP.tmp ... ok
----------------------
SHARK INTEGRAL PACKAGE
----------------------

Number of atoms                             ...     10
Number of basis functions                   ...    185
Number of shells                            ...     75
Maximum angular momentum                    ...      3
Integral batch strategy                     ... SHARK/LIBINT Hybrid
RI-J (if used) integral strategy            ... SPLIT-RIJ (Revised 2003 algorithm where possible)
Printlevel                                  ...      1
Contraction scheme used                     ... SEGMENTED contraction
Coulomb Range Separation                    ... NOT USED
Exchange Range Separation                   ... NOT USED
Finite Nucleus Model                        ... NOT USED
Auxiliary Coulomb fitting basis             ... AVAILABLE
   # of basis functions in Aux-J            ...    300
   # of shells in Aux-J                     ...    100
   Maximum angular momentum in Aux-J        ...      4
Auxiliary J/K fitting basis                 ... NOT available
Auxiliary Correlation fitting basis         ... NOT available
Auxiliary 'external' fitting basis          ... NOT available
Integral threshold                          ...     2.500000e-11
Primitive cut-off                           ...     2.500000e-12
Primitive pair pre-selection threshold      ...     2.500000e-12

Calculating pre-screening integrals         ... done (  0.0 sec) Dimension = 75
Organizing shell pair data                  ... done (  0.0 sec)
Shell pair information
Total number of shell pairs                 ...      2850
Shell pairs after pre-screening             ...      2472
Total number of primitive shell pairs       ...      8640
Primitive shell pairs kept                  ...      5783
          la=0 lb=0:    705 shell pairs
          la=1 lb=0:    717 shell pairs
          la=1 lb=1:    193 shell pairs
          la=2 lb=0:    335 shell pairs
          la=2 lb=1:    172 shell pairs
          la=2 lb=2:     46 shell pairs
          la=3 lb=0:    168 shell pairs
          la=3 lb=1:     84 shell pairs
          la=3 lb=2:     40 shell pairs
          la=3 lb=3:     12 shell pairs

Calculating one electron integrals          ... done (  0.0 sec)
Calculating RI/J V-Matrix + Cholesky decomp.... done (  0.0 sec)
Calculating Nuclear repulsion               ... done (  0.0 sec) ENN=    171.931685711257 Eh

SHARK setup successfully completed in   0.2 seconds

Maximum memory used throughout the entire GTOINT-calculation: 16.1 MB


           ************************************************************
           *        Program running with 102 parallel MPI-processes   *
           *              working on a common directory               *
           ************************************************************

Diagonalization of the overlap matrix:
Smallest eigenvalue                        ... 8.446e-04
Time for diagonalization                   ...    0.010 sec
Threshold for overlap eigenvalues          ... 1.000e-08
Number of eigenvalues below threshold      ... 0
Time for construction of square roots      ...    0.012 sec
Total time needed                          ...    0.024 sec

-------------------
DFT GRID GENERATION
-------------------

General Integration Accuracy     IntAcc      ... 4.388
Radial Grid Type                 RadialGrid  ... OptM3 with GC (2021)
Angular Grid (max. ang.)         AngularGrid ... 4 (Lebedev-302)
Angular grid pruning method      GridPruning ... 4 (adaptive)
Weight generation scheme         WeightScheme... Becke
Basis function cutoff            BFCut       ... 1.0000e-11
Integration weight cutoff        WCut        ... 1.0000e-14
Angular grids for H and He will be reduced by one unit
Partially contracted basis set               ... off
Rotationally invariant grid construction     ... off

Total number of grid points                  ...    46818
Total number of batches                      ...      737
Average number of points per batch           ...       63
Average number of grid points per atom       ...     4682
Time for grid setup =    0.348 sec

--------------------
COSX GRID GENERATION
--------------------

GRIDX 1
-------
General Integration Accuracy     IntAcc      ... 3.816
Radial Grid Type                 RadialGrid  ... OptM3 with GC (2021)
Angular Grid (max. ang.)         AngularGrid ... 1 (Lebedev-50)
Angular grid pruning method      GridPruning ... 4 (adaptive)
Weight generation scheme         WeightScheme... Becke
Basis function cutoff            BFCut       ... 1.0000e-11
Integration weight cutoff        WCut        ... 1.0000e-14
Angular grids for H and He will be reduced by one unit
Partially contracted basis set               ... on
[...]
  Surface type                                    ... GAUSSIAN VDW
  Epsilon function type                           ...         CPCM
Radii:
 Radius for C  used is    3.8550 Bohr (=   2.0400 Ang.)
 Radius for H  used is    2.4944 Bohr (=   1.3200 Ang.)
 Radius for N  used is    3.5149 Bohr (=   1.8600 Ang.)
 Radius for O  used is    3.4469 Bohr (=   1.8240 Ang.)
Calculating surface                               ...        done! (  0.0s)
GEPOL surface points                              ...          693
GEPOL Volume                                      ...     686.4268
GEPOL Surface-area                                ...     479.0541
Calculating surface distance matrix               ...        done! (  0.0s)
Performing Cholesky decomposition & store         ...        done! (  0.0s)
Overall time for CPCM initialization              ...                 0.1s
--------------
SCF ITERATIONS
--------------
ITER       Energy         Delta-E        Max-DP      RMS-DP      [F,P]     Damp
               ***  Starting incremental Fock matrix formation  ***
                      *** Initiating the SOSCF procedure ***
                      *** Re-Reading the Fockian *** 
                      *** Removing any level shift *** 
ITER      Energy       Delta-E        Grad      Rot      Max-DP    RMS-DP
  0   -321.44975268 -321.4497526769  0.000494  0.000494  0.000556  0.000018
               *** Restarting incremental Fock matrix formation ***
  1   -321.44976360  -0.0000109278  0.000188  0.000771  0.000234  0.000010
  2   -321.44976500  -0.0000013937  0.000047  0.000243  0.000076  0.000003
  3   -321.44976504  -0.0000000457  0.000025  0.000076  0.000053  0.000001
  4   -321.44976504   0.0000000082  0.000048  0.000058  0.000035  0.000001
  5   -321.44976505  -0.0000000144  0.000008  0.000014  0.000020  0.000000
  6   -321.44976505   0.0000000018  0.000014  0.000011  0.000012  0.000000
                  ***Gradient check signals convergence***
              ***Rediagonalizing the Fockian in SOSCF/NRSCF***

               *****************************************************
               *                     SUCCESS                       *
               *           SCF CONVERGED AFTER   7 CYCLES          *
               *****************************************************

Old exchange energy                            =     -7.622085765 Eh
New exchange energy                            =     -7.622104991 Eh
Exchange energy change after final integration =     -0.000019226 Eh
Total energy after final integration           =   -321.449784276 Eh
Final COS-X integration done in                =     0.175 sec

----------------
TOTAL SCF ENERGY
----------------

Total Energy       :         -321.44978428 Eh           -8747.09332 eV

Components:
Nuclear Repulsion  :          171.68199968 Eh            4671.70472 eV
Electronic Energy  :         -493.13178395 Eh          -13418.79804 eV
One Electron Energy:         -779.46255684 Eh          -21210.25448 eV
Two Electron Energy:          286.33077288 Eh            7791.45644 eV
Max COSX asymmetry :            0.00000094 Eh               0.00003 eV
CPCM Dielectric    :           -0.02630954 Eh              -0.71592 eV

Virial components:
Potential Energy   :         -641.65965156 Eh          -17460.44679 eV
Kinetic Energy     :          320.20986728 Eh            8713.35347 eV
Virial Ratio       :            2.00387220


DFT components:
N(Alpha)           :       21.000004854008 electrons
N(Beta)            :       21.000004854008 electrons
N(Total)           :       42.000009708015 electrons
E(X)               :      -30.411156551751 Eh       
E(C)               :       -1.722353707717 Eh       
E(XC)              :      -32.133510259469 Eh       
DFET-embed. en.    :        0.000000000000 Eh       
CPCM Solvation Model Properties:
Surface-charge          :           -0.01349718
Charge-correction       :            0.00018572 Eh               0.00505 eV
Free-energy (cav+disp)  :  This term is not implemented in the current solvation scheme

---------------
SCF CONVERGENCE
---------------

  Last Energy change         ...   -2.3418e-09  Tolerance :   1.0000e-08
  Last MAX-Density change    ...    1.2212e-15  Tolerance :   1.0000e-07
  Last RMS-Density change    ...    2.1416e-17  Tolerance :   5.0000e-09
  Last Orbital Gradient      ...    1.3822e-06  Tolerance :   1.0000e-05
  Last Orbital Rotation      ...    2.6627e-06  Tolerance :   1.0000e-05

             **** THE GBW FILE WAS UPDATED (neb.gbw) ****
             **** DENSITY neb.scfp WAS UPDATED ****
             **** ENERGY FILE WAS UPDATED (neb.en.tmp) ****
             **** THE GBW FILE WAS UPDATED (neb.gbw) ****
             **** DENSITY neb.scfp WAS UPDATED ****
----------------
ORBITAL ENERGIES
----------------

  NO   OCC          E(Eh)            E(eV) 
   0   2.0000     -19.171576      -521.6851 
   1   2.0000     -19.170569      -521.6577 
   2   2.0000     -19.124821      -520.4128 
   3   2.0000     -14.559274      -396.1780 
   4   2.0000     -10.219989      -278.1000 
   5   2.0000      -1.243112       -33.8268 
   6   2.0000      -1.069114       -29.0921 
   7   2.0000      -1.008302       -27.4373 
   8   2.0000      -0.813103       -22.1257 
   9   2.0000      -0.624714       -16.9993 
  10   2.0000      -0.555676       -15.1207 
  11   2.0000      -0.544783       -14.8243 
  12   2.0000      -0.534341       -14.5401 
  13   2.0000      -0.525480       -14.2990 
  14   2.0000      -0.439308       -11.9542 
  15   2.0000      -0.421675       -11.4744 
  16   2.0000      -0.393128       -10.6975 
  17   2.0000      -0.332210        -9.0399 
  18   2.0000      -0.325681        -8.8622 
  19   2.0000      -0.316506        -8.6126 
  20   2.0000      -0.308829        -8.4037 
  21   0.0000      -0.081545        -2.2190 
  22   0.0000       0.025817         0.7025 
  23   0.0000       0.068526         1.8647 
  24   0.0000       0.101414         2.7596 
  25   0.0000       0.112162         3.0521 
  26   0.0000       0.126422         3.4401 
  27   0.0000       0.138073         3.7572 
  28   0.0000       0.174284         4.7425 
  29   0.0000       0.208551         5.6749 
  30   0.0000       0.221156         6.0180 
  31   0.0000       0.244455         6.6519 
  32   0.0000       0.305744         8.3197 
  33   0.0000       0.331208         9.0126 
  34   0.0000       0.352286         9.5862 
  35   0.0000       0.364025         9.9056 
  36   0.0000       0.378139        10.2897 
  37   0.0000       0.401926        10.9370 
  38   0.0000       0.425368        11.5749 
  39   0.0000       0.432005        11.7555 
  40   0.0000       0.438187        11.9237 
  41   0.0000       0.446571        12.1518 
  42   0.0000       0.451029        12.2731 
  43   0.0000       0.475633        12.9426 
  44   0.0000       0.491102        13.3636 
  45   0.0000       0.514643        14.0041 
  46   0.0000       0.526170        14.3178 
  47   0.0000       0.533675        14.5220 
  48   0.0000       0.564973        15.3737 
  49   0.0000       0.576652        15.6915 
  50   0.0000       0.592449        16.1214 
  51   0.0000       0.609523        16.5860 
  52   0.0000       0.644415        17.5354 
  53   0.0000       0.698618        19.0104 
  54   0.0000       0.783884        21.3306 
  55   0.0000       0.826299        22.4847 
  56   0.0000       0.874246        23.7894 
  57   0.0000       0.929072        25.2813 
  58   0.0000       0.988284        26.8926 
  59   0.0000       1.018899        27.7257 
  60   0.0000       1.136573        30.9277 
  61   0.0000       1.152865        31.3710 
  62   0.0000       1.180630        32.1266 
  63   0.0000       1.203385        32.7458 
  64   0.0000       1.284091        34.9419 
  65   0.0000       1.312241        35.7079 
  66   0.0000       1.362398        37.0727 
  67   0.0000       1.384718        37.6801 
  68   0.0000       1.476777        40.1851 
  69   0.0000       1.489966        40.5440 
  70   0.0000       1.505152        40.9573 
  71   0.0000       1.533278        41.7226 
  72   0.0000       1.547483        42.1091 
  73   0.0000       1.570631        42.7390 
  74   0.0000       1.605224        43.6804 
  75   0.0000       1.609326        43.7920 
  76   0.0000       1.665038        45.3080 
  77   0.0000       1.688652        45.9506 
  78   0.0000       1.734646        47.2021 
  79   0.0000       1.764271        48.0082 
  80   0.0000       1.765647        48.0457 
  81   0.0000       1.897194        51.6253 
  82   0.0000       1.909735        51.9665 
  83   0.0000       1.935911        52.6788 
  84   0.0000       1.960009        53.3346 
  85   0.0000       2.014111        54.8067 
  86   0.0000       2.018506        54.9264 
  87   0.0000       2.047226        55.7078 
  88   0.0000       2.102887        57.2225 
  89   0.0000       2.104233        57.2591 
  90   0.0000       2.119759        57.6816 
  91   0.0000       2.176758        59.2326 
  92   0.0000       2.195077        59.7311 
  93   0.0000       2.234025        60.7909 
  94   0.0000       2.262318        61.5608 
  95   0.0000       2.292286        62.3763 
  96   0.0000       2.305975        62.7488 
  97   0.0000       2.354170        64.0602 
  98   0.0000       2.390774        65.0563 
  99   0.0000       2.499637        68.0186 
 100   0.0000       2.532329        68.9082 
 101   0.0000       2.567259        69.8587 
 102   0.0000       2.569891        69.9303 
 103   0.0000       2.582612        70.2764 
 104   0.0000       2.600921        70.7747 
 105   0.0000       2.610681        71.0403 
 106   0.0000       2.654556        72.2342 
 107   0.0000       2.671244        72.6882 
 108   0.0000       2.711623        73.7870 
 109   0.0000       2.720325        74.0238 
 110   0.0000       2.820325        76.7449 
 111   0.0000       2.869559        78.0847 
 112   0.0000       2.904409        79.0330 
 113   0.0000       2.986320        81.2619 
 114   0.0000       3.002235        81.6950 
 115   0.0000       3.049269        82.9748 
 116   0.0000       3.140315        85.4523 
 117   0.0000       3.215865        87.5081 
 118   0.0000       3.225053        87.7581 
 119   0.0000       3.339307        90.8672 
 120   0.0000       3.390938        92.2721 
 121   0.0000       3.450460        93.8918 
 122   0.0000       3.476768        94.6077 
 123   0.0000       3.554385        96.7197 
 124   0.0000       3.651593        99.3649 
 125   0.0000       3.717146       101.1487 
 126   0.0000       3.755531       102.1932 
 127   0.0000       3.917783       106.6083 
 128   0.0000       3.974279       108.1456 
 129   0.0000       4.016209       109.2866 
 130   0.0000       4.081830       111.0722 
 131   0.0000       4.143802       112.7586 
 132   0.0000       4.260844       115.9435 
 133   0.0000       4.390385       119.4685 
 134   0.0000       4.533342       123.3585 
 135   0.0000       4.546172       123.7076 
 136   0.0000       4.604740       125.3013 
 137   0.0000       4.662975       126.8860 
 138   0.0000       4.748539       129.2143 
 139   0.0000       4.798147       130.5642 
 140   0.0000       4.878210       132.7428 
 141   0.0000       5.055271       137.5609 
 142   0.0000       5.075396       138.1085 
 143   0.0000       5.095217       138.6479 
 144   0.0000       5.112024       139.1052 
 145   0.0000       5.125492       139.4717 
 146   0.0000       5.130088       139.5968 
 147   0.0000       5.198587       141.4607 
 148   0.0000       5.270441       143.4160 
 149   0.0000       5.283962       143.7839 
 150   0.0000       5.301914       144.2724 
 151   0.0000       5.373121       146.2101 
 152   0.0000       5.398550       146.9020 
 153   0.0000       5.452494       148.3699 
 154   0.0000       5.554299       151.1402 
 155   0.0000       5.599494       152.3700 
 156   0.0000       5.673143       154.3741 
 157   0.0000       5.921246       161.1253 
 158   0.0000       6.014201       163.6547 
 159   0.0000       6.201522       168.7520 
 160   0.0000       6.220460       169.2673 
 161   0.0000       6.258820       170.3111 
 162   0.0000       6.308429       171.6611 
 163   0.0000       6.311812       171.7531 
 164   0.0000       6.324025       172.0855 
 165   0.0000       6.336461       172.4239 
 166   0.0000       6.359267       173.0444 
 167   0.0000       6.400139       174.1566 
 168   0.0000       6.422792       174.7731 
 169   0.0000       6.625000       180.2754 
 170   0.0000       6.834883       185.9866 
 171   0.0000       6.854396       186.5176 
 172   0.0000       6.896326       187.6586 
 173   0.0000       6.910840       188.0535 
 174   0.0000       6.987688       190.1447 
 175   0.0000       7.066751       192.2961 
 176   0.0000       7.207155       196.1167 
 177   0.0000       7.239301       196.9914 
 178   0.0000       7.289747       198.3641 
 179   0.0000       7.367617       200.4830 
 180   0.0000      22.305425       606.9615 
 181   0.0000      32.292984       878.7368 
 182   0.0000      43.252972      1176.9732 
 183   0.0000      43.883038      1194.1182 
 184   0.0000      43.905909      1194.7405 
-------
TIMINGS
-------

Total SCF time: 0 days 0 hours 0 min 4 sec 

Total time                  ....       4.832 sec
Sum of individual times     ....       4.397 sec  ( 91.0%)

Fock matrix formation       ....       3.430 sec  ( 71.0%)
  Split-RI-J                ....       0.657 sec  ( 19.1% of F)
  Chain of spheres X        ....       1.065 sec  ( 31.0% of F)
  XC integration            ....       0.455 sec  ( 13.3% of F)
    Basis function eval.    ....       0.017 sec  (  3.7% of XC)
    Density eval.           ....       0.030 sec  (  6.5% of XC)
    XC-Functional eval.     ....       0.003 sec  (  0.7% of XC)
    XC-Potential eval.      ....       0.018 sec  (  4.0% of XC)
Diagonalization             ....       0.032 sec  (  0.7%)
Density matrix formation    ....       0.047 sec  (  1.0%)
Population analysis         ....       0.000 sec  (  0.0%)
Initial guess               ....       0.034 sec  (  0.7%)
Orbital Transformation      ....       0.000 sec  (  0.0%)
Orbital Orthonormalization  ....       0.020 sec  (  0.4%)
DIIS solution               ....       0.017 sec  (  0.4%)
SOSCF solution              ....       0.177 sec  (  3.7%)
Grid generation             ....       0.659 sec  ( 13.6%)

Maximum memory used throughout the entire SCF-calculation: 65.0 MB


-------------------------------------------------------------------------------
                          DFT DISPERSION CORRECTION                            
                                                                               
                              DFTD3 V3.1  Rev 1                                
                          USING Becke-Johnson damping                          
-------------------------------------------------------------------------------
The B3LYP functional is recognized
Active option DFTDOPT                   ...         4   

molecular C6(AA) [au] = 741.707536 


            DFT-D V3
 parameters
 s6 scaling factor         :     1.0000 
 a1 scaling factor         :     0.3981 
 s8 scaling factor         :     1.9889 
 a2 scaling factor         :     4.4211 
 ad hoc parameters k1-k3   :    16.0000     1.3333    -4.0000 

 Edisp/kcal,au: -4.811831449578  -0.007668140698 
 E6   /kcal   :  -2.445061151 
 E8   /kcal   :  -2.366770298 
 % E8         :  49.186475524 

-------------------------   ----------------
Dispersion correction           -0.007668141
-------------------------   ----------------


-------------------------   --------------------
FINAL SINGLE POINT ENERGY      -321.457452417177
-------------------------   --------------------

                                *** OPTIMIZATION RUN DONE ***


                    ***********************HURRAY************************
                    ***        THE TS OPTIMIZATION HAS CONVERGED      ***
                    *****************************************************



---------------------------------------------------------------
                      PATH SUMMARY FOR NEB-TS             
---------------------------------------------------------------
All forces in Eh/Bohr. Global forces for TS.

Image     E(Eh)   dE(kcal/mol)  max(|Fp|)  RMS(Fp)
  0    -321.45754     0.00       0.00007   0.00004
  1    -321.45744     0.07       0.00148   0.00040
  2    -321.45735     0.12       0.00185   0.00058 <= CI
 TS    -321.45745     0.06       0.00014   0.00006 <= TS
  3    -321.45737     0.11       0.00175   0.00072
  4    -321.45740     0.09       0.00530   0.00162
  5    -321.45741     0.08       0.00788   0.00258
  6    -321.45755    -0.00       0.00144   0.00059
  7    -321.45763    -0.06       0.00052   0.00019
----------
STATISTICS
----------

For the individual parts of the NEB, NEB-CI or NEB-TS run:

Number of iterations:
     NEB                               ... 19  32.8%
     TS optimization                   ... 39  67.2%
Number of SCF / gradient calculations:
     NEB                               ... 122  75.8%
     TS optimization                   ... 39  24.2%

----------
 TIMINGS
----------

For the individual parts of the NEB, NEB-CI or NEB-TS run:

Total                                  ...     1508.235 sec
NEB                                    ...      522.155 sec  34.6%
TS Optimization                        ...      986.079 sec  65.4%


                            ***************************************
                            *     ORCA property calculations      *
                            ***************************************

                                    ---------------------
                                    Active property flags
                                    ---------------------
   (+) Dipole Moment


------------------------------------------------------------------------------
                       ORCA ELECTRIC PROPERTIES CALCULATION
------------------------------------------------------------------------------

Dipole Moment Calculation                       ... on
Quadrupole Moment Calculation                   ... off
Polarizability Calculation                      ... off
GBWName                                         ... neb.gbw
Electron density                                ... neb.scfp
The origin for moment calculation is the CENTER OF MASS  = (-1.560620, -0.148720 -0.130570)

-------------
DIPOLE MOMENT
-------------
                                X             Y             Z
Electronic contribution:     -6.48037      -0.02353      -1.57299
Nuclear contribution   :      8.29197       0.68859       0.83871
                        -----------------------------------------
Total Dipole Moment    :      1.81161       0.66506      -0.73428
                        -----------------------------------------
Magnitude (a.u.)       :      2.06480
Magnitude (Debye)      :      5.24830



--------------------
Rotational spectrum 
--------------------
 
Rotational constants in cm-1:     0.362451     0.047408     0.043268 
Rotational constants in MHz : 10866.005775  1421.253238  1297.134968 

 Dipole components along the rotational axes: 
x,y,z [a.u.] :     1.330385    -1.274986     0.931604 
x,y,z [Debye]:     3.381569    -3.240757     2.367948 

 

Timings for individual modules:

Sum of individual times         ...     1373.062 sec (=  22.884 min)
GTO integral calculation        ...      216.613 sec (=   3.610 min)  15.8 %
SCF iterations                  ...      403.144 sec (=   6.719 min)  29.4 %
SCF Gradient evaluation         ...      230.643 sec (=   3.844 min)  16.8 %
Geometry relaxation             ...        0.506 sec (=   0.008 min)   0.0 %
NEB Iterations                  ...      522.155 sec (=   8.703 min)  38.0 %
                             ****ORCA TERMINATED NORMALLY****
TOTAL RUN TIME: 0 days 0 hours 25 minutes 15 seconds 539 msec
