 *******************************************************************************
 **                                                                           **
 **                              MOPAC v22.0.6                                **
 **                                                                           **
 *******************************************************************************
 **          Digital Object Identifier (DOI): 10.5281/zenodo.6511958          **
 **    Visit the DOI location for information on how to cite this program.    **
 *******************************************************************************

                              PM7 CALCULATION RESULTS

 *******************************************************************************
 *  CALCULATION DONE:                                Tue Mar 26 11:33:45 2024  *
 *  PM7        - The PM7 Hamiltonian to be used
 *  SINGLET    - SPIN STATE DEFINED AS A SINGLET
 *
 *
 *
 *                 CHARGE ON SYSTEM = 0
 *
 *
 *
 *  EPS=78.4   - USE ANDREAS KLAMT'S COSMO IMPLICIT SOLVATION MODEL
 *  T=         - A TIME OF 14.0 DAYS REQUESTED
 *  DUMP=N     - RESTART FILE WRITTEN EVERY 30.0 MINUTES REQUESTED
 *  RELSCF     - DEFAULT SCF CRITERION MULTIPLIED BY 1.0000
 *              (DEFAULT SCF CRITERION = 0.00010)
 *  ITRY=      - DO A MAXIMUM OF 15000 ITERATIONS FOR SCF
 *  AUX        - OUTPUT AUXILIARY INFORMATION
 *  BONDS      - FINAL BOND-ORDER MATRIX TO BE PRINTED
 *******************************************************************************
PM7 BONDS AUX DUMP=30M ITRY=15000 T=14D CHARGE=0 SINGLET eps=78.4 RELSCF=1
 Title: ASE calculation

   ATOM   CHEMICAL          X               Y               Z
  NUMBER   SYMBOL      (ANGSTROMS)     (ANGSTROMS)     (ANGSTROMS)

     1       C          1.85476000  *   2.79668000  *   2.95151000  *
     2       C          2.08132000  *   1.43757000  *   2.73889000  *
     3       C          1.20618000  *   0.68913000  *   1.94951000  *
     4       C          0.09035000  *   1.29860000  *   1.37132000  *
     5       C         -0.10776000  *   2.65111000  *   1.60368000  *
     6       C          0.74759000  *   3.42151000  *   2.37994000  *
     7       H          2.54805000  *   3.37468000  *   3.56824000  *
     8       H          2.94937000  *   0.96009000  *   3.20466000  *
     9       H         -0.60164000  *   0.71972000  *   0.75242000  *
    10      Cl         -1.47819000  *   3.40381000  *   0.89494000  *
    11       H          0.56856000  *   4.48657000  *   2.54453000  *
    12       C          1.46909000  *  -0.78052000  *   1.75872000  *
    13       C          0.30024000  *  -1.63734000  *   2.23003000  *
    14       H          0.51394000  *  -2.71429000  *   2.15052000  *
    15       H         -0.62692000  *  -1.44248000  *   1.67184000  *
    16       H          0.07824000  *  -1.43839000  *   3.29185000  *
    17       N          1.71422000  *  -1.06007000  *   0.30073000  *
    18       O          2.74748000  *  -1.63897000  *  -0.00394000  *
    19       O          0.89775000  *  -0.70037000  *  -0.52651000  *
    20       N          5.03085000  *  -0.74593000  *   1.92489000  *
    21       C          6.15514000  *  -1.69800000  *   2.10439000  *
    22       C          7.04839000  *  -1.17235000  *   3.24001000  *
    23       O          7.51539000  *   0.13146000  *   2.93397000  *
    24       C          6.46280000  *   1.06249000  *   2.74189000  *
    25       C          5.55181000  *   0.60340000  *   1.59247000  *
    26       H          4.69314000  *   1.29956000  *   1.47458000  *
    27       H          6.11025000  *   0.61794000  *   0.63115000  *
    28       H          6.99494000  *   2.00032000  *   2.50117000  *
    29       H          5.90548000  *   1.18307000  *   3.68806000  *
    30       H          7.98009000  *  -1.75689000  *   3.34408000  *
    31       H          6.51355000  *  -1.15042000  *   4.20712000  *
    32       H          6.75073000  *  -1.83289000  *   1.17604000  *
    33       H          2.40404000  *  -1.09072000  *   2.31931000  *
    34       H          4.39207000  *  -1.07204000  *   1.19705000  *
    35       H          5.73882000  *  -2.69487000  *   2.36849000  *
    36       H          3.50266000  *  -1.64241000  *   4.62009000  *
    37       H          4.29512000  *  -0.69432000  *   3.70835000  *
    38       O          3.81826000  *  -0.73947000  *   4.56609000  *



          CARTESIAN COORDINATES 

    NO.       ATOM           X           Y           Z

     1         C          1.8548      2.7967      2.9515
     2         C          2.0813      1.4376      2.7389
     3         C          1.2062      0.6891      1.9495
     4         C          0.0903      1.2986      1.3713
     5         C         -0.1078      2.6511      1.6037
     6         C          0.7476      3.4215      2.3799
     7         H          2.5480      3.3747      3.5682
     8         H          2.9494      0.9601      3.2047
     9         H         -0.6016      0.7197      0.7524
    10        Cl         -1.4782      3.4038      0.8949
    11         H          0.5686      4.4866      2.5445
    12         C          1.4691     -0.7805      1.7587
    13         C          0.3002     -1.6373      2.2300
    14         H          0.5139     -2.7143      2.1505
    15         H         -0.6269     -1.4425      1.6718
    16         H          0.0782     -1.4384      3.2919
    17         N          1.7142     -1.0601      0.3007
    18         O          2.7475     -1.6390     -0.0039
    19         O          0.8978     -0.7004     -0.5265
    20         N          5.0309     -0.7459      1.9249
    21         C          6.1551     -1.6980      2.1044
    22         C          7.0484     -1.1724      3.2400
    23         O          7.5154      0.1315      2.9340
    24         C          6.4628      1.0625      2.7419
    25         C          5.5518      0.6034      1.5925
    26         H          4.6931      1.2996      1.4746
    27         H          6.1102      0.6179      0.6312
    28         H          6.9949      2.0003      2.5012
    29         H          5.9055      1.1831      3.6881
    30         H          7.9801     -1.7569      3.3441
    31         H          6.5136     -1.1504      4.2071
    32         H          6.7507     -1.8329      1.1760
    33         H          2.4040     -1.0907      2.3193
    34         H          4.3921     -1.0720      1.1970
    35         H          5.7388     -2.6949      2.3685
    36         H          3.5027     -1.6424      4.6201
    37         H          4.2951     -0.6943      3.7084
    38         O          3.8183     -0.7395      4.5661

 General Reference for PM7:
 "Optimization of Parameters for Semiempirical Methods VI: More Modifications to the 
 NDDO Approximations and Re-optimization of Parameters", J. J. P. Stewart, J. Mol. Mod., 1:32, 19 (2013)
 https://link.springer.com/article/10.1007/s00894-012-1667-x

           Empirical Formula: C12 H19 N2 O4 Cl  =    38 atoms



      MOLECULAR POINT GROUP   :   C1  


 SINGLET STATE CALCULATION


      RHF CALCULATION, NO. OF DOUBLY OCCUPIED LEVELS = 54


          Geometry optimization using L-BFGS
  SCF CRITERION =    0.1000E-03
 CYCLE:     1 TIME:   0.137 TIME LEFT:  2.00W  GRAD.:     0.995 HEAT: -133.3189

 -------------------------------------------------------------------------------
 PM7 BONDS AUX DUMP=30M ITRY=15000 T=14D CHARGE=0 SINGLET eps=78.4 RELSCF=1
 Title: ASE calculation



     HERBERTS TEST WAS SATISFIED IN BFGS                      
     SCF FIELD WAS ACHIEVED                                   


                              PM7 CALCULATION
                                                       MOPAC v22.0.6 Linux
                                                       Tue Mar 26 11:33:46 2024




          FINAL HEAT OF FORMATION =       -133.31886 KCAL/MOL =    -557.80610 KJ/MOL
          VAN DER WAALS AREA      =        298.13 SQUARE ANGSTROMS



          DIELECTRIC ENERGY       =         -0.75836 EV
          COSMO AREA              =        298.13 SQUARE ANGSTROMS
          COSMO VOLUME            =        349.09 CUBIC ANGSTROMS

          GRADIENT NORM           =          0.99521          =       0.16145 PER ATOM
          IONIZATION POTENTIAL    =          9.626813 EV
          HOMO LUMO ENERGIES (EV) =         -9.627 -0.778
          NO. OF FILLED LEVELS    =         54
          MOLECULAR WEIGHT        =        290.7461         POINT GROUP:  C1  

          MOLECULAR DIMENSIONS (Angstroms)

            Atom       Atom       Distance
            H    30   Cl    10    11.04944
            H    28    H    14     7.25492
            O    19    O    38     4.46493


          SCF CALCULATIONS        =          3

          WALL-CLOCK TIME         =      0.188 SECONDS
          COMPUTATION TIME        =     17.703 SECONDS




   ATOM   CHEMICAL          X               Y               Z
  NUMBER   SYMBOL      (ANGSTROMS)     (ANGSTROMS)     (ANGSTROMS)

     1       C          1.85476000  *   2.79668000  *   2.95151000  *
     2       C          2.08132000  *   1.43757000  *   2.73889000  *
     3       C          1.20618000  *   0.68913000  *   1.94951000  *
     4       C          0.09035000  *   1.29860000  *   1.37132000  *
     5       C         -0.10776000  *   2.65111000  *   1.60368000  *
     6       C          0.74759000  *   3.42151000  *   2.37994000  *
     7       H          2.54805000  *   3.37468000  *   3.56824000  *
     8       H          2.94937000  *   0.96009000  *   3.20466000  *
     9       H         -0.60164000  *   0.71972000  *   0.75242000  *
    10      Cl         -1.47819000  *   3.40381000  *   0.89494000  *
    11       H          0.56856000  *   4.48657000  *   2.54453000  *
    12       C          1.46909000  *  -0.78052000  *   1.75872000  *
    13       C          0.30024000  *  -1.63734000  *   2.23003000  *
    14       H          0.51394000  *  -2.71429000  *   2.15052000  *
    15       H         -0.62692000  *  -1.44248000  *   1.67184000  *
    16       H          0.07824000  *  -1.43839000  *   3.29185000  *
    17       N          1.71422000  *  -1.06007000  *   0.30073000  *
    18       O          2.74748000  *  -1.63897000  *  -0.00394000  *
    19       O          0.89775000  *  -0.70037000  *  -0.52651000  *
    20       N          5.03085000  *  -0.74593000  *   1.92489000  *
    21       C          6.15514000  *  -1.69800000  *   2.10439000  *
    22       C          7.04839000  *  -1.17235000  *   3.24001000  *
    23       O          7.51539000  *   0.13146000  *   2.93397000  *
    24       C          6.46280000  *   1.06249000  *   2.74189000  *
    25       C          5.55181000  *   0.60340000  *   1.59247000  *
    26       H          4.69314000  *   1.29956000  *   1.47458000  *
    27       H          6.11025000  *   0.61794000  *   0.63115000  *
    28       H          6.99494000  *   2.00032000  *   2.50117000  *
    29       H          5.90548000  *   1.18307000  *   3.68806000  *
    30       H          7.98009000  *  -1.75689000  *   3.34408000  *
    31       H          6.51355000  *  -1.15042000  *   4.20712000  *
    32       H          6.75073000  *  -1.83289000  *   1.17604000  *
    33       H          2.40404000  *  -1.09072000  *   2.31931000  *
    34       H          4.39207000  *  -1.07204000  *   1.19705000  *
    35       H          5.73882000  *  -2.69487000  *   2.36849000  *
    36       H          3.50266000  *  -1.64241000  *   4.62009000  *
    37       H          4.29512000  *  -0.69432000  *   3.70835000  *
    38       O          3.81826000  *  -0.73947000  *   4.56609000  *

                             CARTESIAN COORDINATES

   1    C        1.854760000     2.796680000     2.951510000
   2    C        2.081320000     1.437570000     2.738890000
   3    C        1.206180000     0.689130000     1.949510000
   4    C        0.090350000     1.298600000     1.371320000
   5    C       -0.107760000     2.651110000     1.603680000
   6    C        0.747590000     3.421510000     2.379940000
   7    H        2.548050000     3.374680000     3.568240000
   8    H        2.949370000     0.960090000     3.204660000
   9    H       -0.601640000     0.719720000     0.752420000
  10   Cl       -1.478190000     3.403810000     0.894940000
  11    H        0.568560000     4.486570000     2.544530000
  12    C        1.469090000    -0.780520000     1.758720000
  13    C        0.300240000    -1.637340000     2.230030000
  14    H        0.513940000    -2.714290000     2.150520000
  15    H       -0.626920000    -1.442480000     1.671840000
  16    H        0.078240000    -1.438390000     3.291850000
  17    N        1.714220000    -1.060070000     0.300730000
  18    O        2.747480000    -1.638970000    -0.003940000
  19    O        0.897750000    -0.700370000    -0.526510000
  20    N        5.030850000    -0.745930000     1.924890000
  21    C        6.155140000    -1.698000000     2.104390000
  22    C        7.048390000    -1.172350000     3.240010000
  23    O        7.515390000     0.131460000     2.933970000
  24    C        6.462800000     1.062490000     2.741890000
  25    C        5.551810000     0.603400000     1.592470000
  26    H        4.693140000     1.299560000     1.474580000
  27    H        6.110250000     0.617940000     0.631150000
  28    H        6.994940000     2.000320000     2.501170000
  29    H        5.905480000     1.183070000     3.688060000
  30    H        7.980090000    -1.756890000     3.344080000
  31    H        6.513550000    -1.150420000     4.207120000
  32    H        6.750730000    -1.832890000     1.176040000
  33    H        2.404040000    -1.090720000     2.319310000
  34    H        4.392070000    -1.072040000     1.197050000
  35    H        5.738820000    -2.694870000     2.368490000
  36    H        3.502660000    -1.642410000     4.620090000
  37    H        4.295120000    -0.694320000     3.708350000
  38    O        3.818260000    -0.739470000     4.566090000


           Empirical Formula: C12 H19 N2 O4 Cl  =    38 atoms



      MOLECULAR POINT GROUP   :   C1  


                  EIGENVALUES  
 -37.49996 -35.70206 -31.61483 -30.97838 -29.71254 -29.40100 -28.83505 -27.49902
 -26.65153 -26.15635 -25.07670 -24.96795 -24.78511 -22.56414 -22.26886 -21.28537
 -20.57414 -20.19952 -18.61248 -18.52238 -18.02952 -17.62957 -17.51416 -17.29479
 -16.40680 -16.36494 -15.72876 -15.63823 -15.54352 -15.18106 -15.13297 -14.75519
 -14.59006 -14.54519 -14.17492 -14.09463 -13.85274 -13.37141 -13.18014 -12.76236
 -12.60468 -12.44040 -12.27797 -12.19453 -12.12099 -12.02079 -11.93308 -11.61397
 -11.55703 -11.47998 -10.54660 -10.43903 -10.11632  -9.62681  -0.77814  -0.51280
  -0.45669   0.37941   0.63855   1.83221   2.03350   2.71004   2.81090   3.10822
   3.56606   3.78814   3.79569   3.97773   4.00208   4.07504   4.17889   4.30861
   4.37742   4.45931   4.54150   4.69073   4.85080   5.10101   5.31526   5.33419
   5.35619   5.37087   5.49804   5.54154   5.68418   5.75323   5.83301   5.85626
   5.87475   5.97342   6.02294   6.08145   6.44869   6.50558   6.89214  69.38864
  69.40311  69.43419  69.67524  69.69050


              NET ATOMIC CHARGES AND DIPOLE CONTRIBUTIONS

  ATOM NO.   TYPE          CHARGE      No. of ELECS.   s-Pop       p-Pop       d-Pop       
    1          C          -0.122741        4.1227     1.08814     3.03460
    2          C          -0.144228        4.1442     1.09253     3.05169
    3          C          -0.043777        4.0438     1.06678     2.97700
    4          C          -0.153068        4.1531     1.08809     3.06497
    5          C           0.010686        3.9893     1.09459     2.89472
    6          C          -0.157032        4.1570     1.08912     3.06791
    7          H           0.179773        0.8202     0.82023
    8          H           0.183301        0.8167     0.81670
    9          H           0.196247        0.8038     0.80375
   10         Cl          -0.112488        7.1125     1.98045     5.12562     0.00642
   11          H           0.186893        0.8131     0.81311
   12          C          -0.046222        4.0462     1.09555     2.95067
   13          C          -0.466004        4.4660     1.05850     3.40750
   14          H           0.181873        0.8181     0.81813
   15          H           0.180062        0.8199     0.81994
   16          H           0.187997        0.8120     0.81200
   17          N           0.621750        4.3783     1.47902     2.89923
   18          O          -0.462378        6.4624     1.93994     4.52244
   19          O          -0.419170        6.4192     1.93890     4.48027
   20          N          -0.563107        5.5631     1.66377     3.89934
   21          C          -0.160395        4.1604     1.07441     3.08599
   22          C          -0.038705        4.0387     1.09327     2.94544
   23          O          -0.461216        6.4612     1.87559     4.58562
   24          C          -0.034391        4.0344     1.09278     2.94161
   25          C          -0.162684        4.1627     1.07434     3.08834
   26          H           0.155763        0.8442     0.84424
   27          H           0.146489        0.8535     0.85351
   28          H           0.148836        0.8512     0.85116
   29          H           0.134696        0.8653     0.86530
   30          H           0.148445        0.8516     0.85156
   31          H           0.134785        0.8652     0.86521
   32          H           0.143819        0.8562     0.85618
   33          H           0.201225        0.7988     0.79878
   34          H           0.275007        0.7250     0.72499
   35          H           0.158772        0.8412     0.84123
   36          H           0.364338        0.6357     0.63566
   37          H           0.388547        0.6115     0.61145
   38          O          -0.781701        6.7817     1.81741     4.96429
 DIPOLE           X         Y         Z       TOTAL
 POINT-CHG.     0.102    -1.733     4.032     4.390
 HYBRID         0.260    -0.489    -1.601     1.694
 SUM            0.362    -2.222     2.432     3.314


          ATOMIC ORBITAL ELECTRON POPULATIONS

     Atom    s        px        py        pz      x^2-y^2     xz        z^2       yz        xy
    1  C   1.08814   1.01819   1.00623   1.01018
    2  C   1.09253   1.04958   1.00591   0.99620
    3  C   1.06678   0.99884   0.95078   1.02737
    4  C   1.08809   1.03313   1.00129   1.03055
    5  C   1.09459   0.91681   0.96895   1.00897
    6  C   1.08912   0.98874   1.09252   0.98665
    7  H   0.82023
    8  H   0.81670
    9  H   0.80375
   10 Cl   1.98045   1.45755   1.83208   1.83598   0.00137   0.00188   0.00072   0.00053   0.00193
   11  H   0.81311
   12  C   1.09555   1.11635   1.00585   0.82848
   13  C   1.05850   1.07495   1.13741   1.19514
   14  H   0.81813
   15  H   0.81994
   16  H   0.81200
   17  N   1.47902   0.94587   0.92120   1.03216
   18  O   1.93994   1.18992   1.44888   1.88364
   19  O   1.93890   1.41196   1.54323   1.52508
   20  N   1.66377   1.23733   1.10667   1.55534
   21  C   1.07441   0.97544   1.01667   1.09388
   22  C   1.09327   1.07610   0.82666   1.04267
   23  O   1.87559   1.37393   1.28137   1.93032
   24  C   1.09278   0.93605   0.94417   1.06140
   25  C   1.07434   1.09408   0.92146   1.07280
   26  H   0.84424
   27  H   0.85351
   28  H   0.85116
   29  H   0.86530
   30  H   0.85156
   31  H   0.86521
   32  H   0.85618
   33  H   0.79878
   34  H   0.72499
   35  H   0.84123
   36  H   0.63566
   37  H   0.61145
   38  O   1.81741   1.83992   1.50977   1.61460

          BONDING CONTRIBUTION OF EACH M.O.

  1.3133  1.3435  1.8659  0.9970  1.1868  1.6787  1.1418  1.2879  1.9001  1.6556
  1.2228  1.1753  1.4706  1.7312  1.9177  1.7359  1.5891  1.6682  1.3288  1.5907
  1.8576  1.6608  1.6568  1.7152  1.9259  1.9361  1.7262  1.9882  1.8441  1.9082
  1.3790  1.8998  1.7957  1.4998  1.5391  1.0380  1.7997  2.0133  1.8834  1.7524
  1.6795  1.9000  1.8115  1.0057  0.3162  0.8948  0.4435  0.6747  1.1867  0.7881
  0.7493  1.9576  1.5348  0.9592 -2.0926 -2.2934 -2.0531 -2.0583 -1.9792 -2.0098
 -1.8991 -1.9633 -1.9354 -1.9633 -1.9661 -1.9680 -2.0031 -2.0154 -1.9872 -1.8745
 -1.9680 -1.9828 -1.9520 -1.9923 -1.8831 -1.8823 -1.8987 -1.9815 -1.9488 -1.9558
 -1.9632 -1.9618 -1.9424 -1.9567 -1.9484 -1.9488 -1.9484 -1.9762 -1.9600 -1.9722
 -1.9790 -1.9617 -1.8579 -1.8875 -1.7299 -0.0060 -0.0107 -0.0025 -0.0001 -0.0013





            (VALENCIES)   BOND ORDERS

     1  C     (3.966)     6  C 1.440     2  C 1.439     7  H 0.955     4  C 0.110    10 Cl 0.011

     2  C     (3.965)     1  C 1.439     3  C 1.425     8  H 0.949     5  C 0.108

     3  C     (3.991)     2  C 1.425     4  C 1.417    12  C 0.993     6  C 0.111    10 Cl 0.010

     4  C     (3.962)     5  C 1.433     3  C 1.417     9  H 0.945     1  C 0.110    10 Cl 0.025

     5  C     (3.962)     4  C 1.433     6  C 1.418    10 Cl 0.983     2  C 0.108

     6  C     (3.965)     1  C 1.440     5  C 1.418    11  H 0.951     3  C 0.111    10 Cl 0.024

     7  H     (0.968)     1  C 0.955

     8  H     (0.966)     2  C 0.949

     9  H     (0.961)     4  C 0.945

    10 Cl     (1.066)     5  C 0.983     4  C 0.025     6  C 0.024     1  C 0.011     3  C 0.010

    11  H     (0.965)     6  C 0.951

    12  C     (3.908)     3  C 0.993    13  C 0.989    33  H 0.939    17  N 0.820    19  O 0.071    18  O 0.067

    13  C     (3.892)    12  C 0.989    15  H 0.957    14  H 0.957    16  H 0.949

    14  H     (0.967)    13  C 0.957

    15  H     (0.968)    13  C 0.957

    16  H     (0.965)    13  C 0.949

    17  N     (3.745)    19  O 1.467    18  O 1.424    12  C 0.820

    18  O     (1.825)    17  N 1.424    19  O 0.302    12  C 0.067

    19  O     (1.864)    17  N 1.467    18  O 0.302    12  C 0.071

    20  N     (2.922)    21  C 0.968    25  C 0.967    34  H 0.890    37  H 0.039    38  O 0.015

    21  C     (3.928)    22  C 0.994    20  N 0.968    32  H 0.965    35  H 0.958    23  O 0.016

    22  C     (3.899)    21  C 0.994    31  H 0.965    30  H 0.960    23  O 0.944    28  H 0.011

    23  O     (1.956)    22  C 0.944    24  C 0.943    21  C 0.016    25  C 0.016

    24  C     (3.898)    25  C 0.994    29  H 0.966    28  H 0.959    23  O 0.943    30  H 0.011

    25  C     (3.928)    24  C 0.994    20  N 0.967    27  H 0.964    26  H 0.958    23  O 0.016

    26  H     (0.976)    25  C 0.958

    27  H     (0.979)    25  C 0.964

    28  H     (0.978)    24  C 0.959    22  C 0.011

    29  H     (0.982)    24  C 0.966

    30  H     (0.978)    22  C 0.960    24  C 0.011

    31  H     (0.982)    22  C 0.965

    32  H     (0.979)    21  C 0.965

    33  H     (0.960)    12  C 0.939

    34  H     (0.924)    20  N 0.890

    35  H     (0.975)    21  C 0.958

    36  H     (0.867)    38  O 0.865

    37  H     (0.849)    38  O 0.803    20  N 0.039

    38  O     (1.694)    36  H 0.865    37  H 0.803    20  N 0.015


 **********************
 *                    *
 * JOB ENDED NORMALLY *
 *                    *
 **********************



 TOTAL JOB TIME:             0.20 SECONDS

 == MOPAC DONE ==
