
                                 *****************
                                 * O   R   C   A *
                                 *****************

                                            #,                                       
                                            ###                                      
                                            ####                                     
                                            #####                                    
                                            ######                                   
                                           ########,                                 
                                     ,,################,,,,,                         
                               ,,#################################,,                 
                          ,,##########################################,,             
                       ,#########################################, ''#####,          
                    ,#############################################,,   '####,        
                  ,##################################################,,,,####,       
                ,###########''''           ''''###############################       
              ,#####''   ,,,,##########,,,,          '''####'''          '####       
            ,##' ,,,,###########################,,,                        '##       
           ' ,,###''''                  '''############,,,                           
         ,,##''                                '''############,,,,        ,,,,,,###''
      ,#''                                            '''#######################'''  
     '                                                          ''''####''''         
             ,#######,   #######,   ,#######,      ##                                
            ,#'     '#,  ##    ##  ,#'     '#,    #''#        ######   ,####,        
            ##       ##  ##   ,#'  ##            #'  '#       #        #'  '#        
            ##       ##  #######   ##           ,######,      #####,   #    #        
            '#,     ,#'  ##    ##  '#,     ,#' ,#      #,         ##   #,  ,#        
             '#######'   ##     ##  '#######'  #'      '#     #####' # '####'        



                  #######################################################
                  #                        -***-                        #
                  #          Department of theory and spectroscopy      #
                  #    Directorship and core code : Frank Neese         #
                  #        Max Planck Institute fuer Kohlenforschung    #
                  #                Kaiser Wilhelm Platz 1               #
                  #                 D-45470 Muelheim/Ruhr               #
                  #                      Germany                        #
                  #                                                     #
                  #                  All rights reserved                #
                  #                        -***-                        #
                  #######################################################


                         Program Version 5.0.4 -  RELEASE  -


 With contributions from (in alphabetic order):
   Daniel Aravena         : Magnetic Suceptibility
   Michael Atanasov       : Ab Initio Ligand Field Theory (pilot matlab implementation)
   Alexander A. Auer      : GIAO ZORA, VPT2 properties, NMR spectrum
   Ute Becker             : Parallelization
   Giovanni Bistoni       : ED, misc. LED, open-shell LED, HFLD
   Martin Brehm           : Molecular dynamics
   Dmytro Bykov           : SCF Hessian
   Vijay G. Chilkuri      : MRCI spin determinant printing, contributions to CSF-ICE
   Dipayan Datta          : RHF DLPNO-CCSD density
   Achintya Kumar Dutta   : EOM-CC, STEOM-CC
   Dmitry Ganyushin       : Spin-Orbit,Spin-Spin,Magnetic field MRCI
   Miquel Garcia          : C-PCM and meta-GGA Hessian, CC/C-PCM, Gaussian charge scheme
   Yang Guo               : DLPNO-NEVPT2, F12-NEVPT2, CIM, IAO-localization
   Andreas Hansen         : Spin unrestricted coupled pair/coupled cluster methods
   Benjamin Helmich-Paris : MC-RPA, TRAH-SCF, COSX integrals
   Lee Huntington         : MR-EOM, pCC
   Robert Izsak           : Overlap fitted RIJCOSX, COSX-SCS-MP3, EOM
   Marcus Kettner         : VPT2
   Christian Kollmar      : KDIIS, OOCD, Brueckner-CCSD(T), CCSD density, CASPT2, CASPT2-K
   Simone Kossmann        : Meta GGA functionals, TD-DFT gradient, OOMP2, MP2 Hessian
   Martin Krupicka        : Initial AUTO-CI
   Lucas Lang             : DCDCAS
   Marvin Lechner         : AUTO-CI (C++ implementation), FIC-MRCC
   Dagmar Lenk            : GEPOL surface, SMD
   Dimitrios Liakos       : Extrapolation schemes; Compound Job, initial MDCI parallelization
   Dimitrios Manganas     : Further ROCIS development; embedding schemes
   Dimitrios Pantazis     : SARC Basis sets
   Anastasios Papadopoulos: AUTO-CI, single reference methods and gradients
   Taras Petrenko         : DFT Hessian,TD-DFT gradient, ASA, ECA, R-Raman, ABS, FL, XAS/XES, NRVS
   Peter Pinski           : DLPNO-MP2, DLPNO-MP2 Gradient
   Christoph Reimann      : Effective Core Potentials
   Marius Retegan         : Local ZFS, SOC
   Christoph Riplinger    : Optimizer, TS searches, QM/MM, DLPNO-CCSD(T), (RO)-DLPNO pert. Triples
   Tobias Risthaus        : Range-separated hybrids, TD-DFT gradient, RPA, STAB
   Michael Roemelt        : Original ROCIS implementation
   Masaaki Saitow         : Open-shell DLPNO-CCSD energy and density
   Barbara Sandhoefer     : DKH picture change effects
   Avijit Sen             : IP-ROCIS
   Kantharuban Sivalingam : CASSCF convergence, NEVPT2, FIC-MRCI
   Bernardo de Souza      : ESD, SOC TD-DFT
   Georgi Stoychev        : AutoAux, RI-MP2 NMR, DLPNO-MP2 response
   Willem Van den Heuvel  : Paramagnetic NMR
   Boris Wezisla          : Elementary symmetry handling
   Frank Wennmohs         : Technical directorship


 We gratefully acknowledge several colleagues who have allowed us to
 interface, adapt or use parts of their codes:
   Stefan Grimme, W. Hujo, H. Kruse, P. Pracht,  : VdW corrections, initial TS optimization,
                  C. Bannwarth, S. Ehlert          DFT functionals, gCP, sTDA/sTD-DF
   Ed Valeev, F. Pavosevic, A. Kumar             : LibInt (2-el integral package), F12 methods
   Garnet Chan, S. Sharma, J. Yang, R. Olivares  : DMRG
   Ulf Ekstrom                                   : XCFun DFT Library
   Mihaly Kallay                                 : mrcc  (arbitrary order and MRCC methods)
   Jiri Pittner, Ondrej Demel                    : Mk-CCSD
   Frank Weinhold                                : gennbo (NPA and NBO analysis)
   Christopher J. Cramer and Donald G. Truhlar   : smd solvation model
   Lars Goerigk                                  : TD-DFT with DH, B97 family of functionals
   V. Asgeirsson, H. Jonsson                     : NEB implementation
   FAccTs GmbH                                   : IRC, NEB, NEB-TS, DLPNO-Multilevel, CI-OPT
                                                   MM, QMMM, 2- and 3-layer-ONIOM, Crystal-QMMM,
                                                   LR-CPCM, SF, NACMEs, symmetry and pop. for TD-DFT,
                                                   nearIR, NL-DFT gradient (VV10), updates on ESD,
                                                   ML-optimized integration grids
   S Lehtola, MJT Oliveira, MAL Marques          : LibXC Library
   Liviu Ungur et al                             : ANISO software


 Your calculation uses the libint2 library for the computation of 2-el integrals
 For citations please refer to: http://libint.valeyev.net

 Your ORCA version has been built with support for libXC version: 5.1.0
 For citations please refer to: https://tddft.org/programs/libxc/

 This ORCA versions uses:
   CBLAS   interface :  Fast vector & matrix operations
   LAPACKE interface :  Fast linear algebra routines
   SCALAPACK package :  Parallel linear algebra routines
   Shared memory     :  Shared parallel matrices
   BLAS/LAPACK       :  OpenBLAS 0.3.15  USE64BITINT DYNAMIC_ARCH NO_AFFINITY Prescott SINGLE_THREADED
        Core in use  :  Prescott
   Copyright (c) 2011-2014, The OpenBLAS Project


Your calculation utilizes the atom-pairwise dispersion correction
with the Becke-Johnson damping scheme (D3BJ)
Cite in your paper:
S.Grimme, S.Ehrlich, L.Goerigk, J Comput Chem, (2011), 32, 1456–1465 
S.Grimme, J.Antony, S.Ehrlich and H.Krieg, J.Chem.Phys., 132, (2010), 154104 
   

================================================================================

----- Orbital basis set information -----
Your calculation utilizes the basis: def2-TZVP
   F. Weigend and R. Ahlrichs, Phys. Chem. Chem. Phys. 7, 3297 (2005).

----- AuxJ basis set information -----
Your calculation utilizes the auxiliary basis: def2/J
   F. Weigend, Phys. Chem. Chem. Phys. 8, 1057 (2006).

================================================================================
                                        WARNINGS
                       Please study these warnings very carefully!
================================================================================

WARNING: Gradients needed for Numerical Frequencies
  ===> : Setting RunTyp to EnGrad

INFO   : the flag for use of the SHARK integral package has been found!

================================================================================
                                       INPUT FILE
================================================================================
NAME = /home/rudenko/mop_saddle_orca_4_serv/for_orca/CH3NO2_H2O_near/orca/start_freq_D/start_f_D.inp
|  1> !  NUMFREQ B3LYP def2-TZVP CPCM D3 
|  2> %pal nprocs 102 end
|  3> %cpcm epsilon 78.4 end 
|  4> *xyz 0 1 
|  5> C   0.39051965611373 -0.76551645804682 0.63503398403169
|  6> H   0.91334167570778 -1.51525809718587 0.04821741496773
|  7> H   0.83985357542309 0.21290414648087 0.47563860612739
|  8> H   0.34708718233337 -1.01849229141798 1.68708380908029 M = 2
|  9> N   -1.00476539283747 -0.6836641149698 0.11122947468867
| 10> O   -1.92635342787765 -0.71541595607687 0.91094442619998
| 11> O   -1.14739999671018 -0.57493671941865 -1.09663954543951
| 12> H   3.42996929667795 -1.67929680295339 1.02758713137234
| 13> O   3.51224527561341 -1.1564877848353 1.83495481981332
| 14> H   3.43165051555595 -0.24149759157617 1.53752772915809
| 15> *
| 16> 
| 17>                          ****END OF INPUT****
================================================================================

                     *******************************
                     * Energy+Gradient Calculation *
                     *******************************

---------------------------------
CARTESIAN COORDINATES (ANGSTROEM)
---------------------------------
  C      0.390520   -0.765516    0.635034
  H      0.913342   -1.515258    0.048217
  H      0.839854    0.212904    0.475639
  H      0.347087   -1.018492    1.687084
  N     -1.004765   -0.683664    0.111229
  O     -1.926353   -0.715416    0.910944
  O     -1.147400   -0.574937   -1.096640
  H      3.429969   -1.679297    1.027587
  O      3.512245   -1.156488    1.834955
  H      3.431651   -0.241498    1.537528

----------------------------
CARTESIAN COORDINATES (A.U.)
----------------------------
  NO LB      ZA    FRAG     MASS         X           Y           Z
   0 C     6.0000    0    12.011    0.737975   -1.446616    1.200040
   1 H     1.0000    0     1.008    1.725966   -2.863423    0.091118
   2 H     1.0000    0     1.008    1.587093    0.402331    0.898827
   3 H     1.0000    0     2.000    0.655900   -1.924672    3.188126
   4 N     7.0000    0    14.007   -1.898731   -1.291938    0.210193
   5 O     8.0000    0    15.999   -3.640280   -1.351940    1.721435
   6 O     8.0000    0    15.999   -2.168272   -1.086473   -2.072348
   7 H     1.0000    0     1.008    6.481703   -3.173411    1.941858
   8 O     8.0000    0    15.999    6.637182   -2.185445    3.467562
   9 H     1.0000    0     1.008    6.484880   -0.456364    2.905506

--------------------------------
INTERNAL COORDINATES (ANGSTROEM)
--------------------------------
 C      0   0   0     0.000000000000     0.00000000     0.00000000
 H      1   0   0     1.086190165376     0.00000000     0.00000000
 H      1   2   0     1.088400081268   110.03949630     0.00000000
 H      1   2   3     1.082909038855   112.51432462   234.81704923
 N      1   2   3     1.492612253032   107.35014265   115.59712829
 O      5   1   2     1.220605050544   118.32315300   131.60823844
 O      5   1   2     1.221111725663   117.46450741   310.87568377
 H      2   1   3     2.705455289047   107.09890376    65.15660234
 O      8   2   1     0.965371011826   110.43790268     7.82676394
 H      9   8   2     0.965487153392   104.38786911   291.55005370

---------------------------
INTERNAL COORDINATES (A.U.)
---------------------------
 C      0   0   0     0.000000000000     0.00000000     0.00000000
 H      1   0   0     2.052601941919     0.00000000     0.00000000
 H      1   2   0     2.056778077734   110.03949630     0.00000000
 H      1   2   3     2.046401511383   112.51432462   234.81704923
 N      1   2   3     2.820628382366   107.35014265   115.59712829
 O      5   1   2     2.306609263209   118.32315300   131.60823844
 O      5   1   2     2.307566740422   117.46450741   310.87568377
 H      2   1   3     5.112569563867   107.09890376    65.15660234
 O      8   2   1     1.824286829978   110.43790268     7.82676394
 H      9   8   2     1.824506305730   104.38786911   291.55005370

---------------------
BASIS SET INFORMATION
---------------------
There are 4 groups of distinct atoms

 Group   1 Type C   : 11s6p2d1f contracted to 5s3p2d1f pattern {62111/411/11/1}
 Group   2 Type H   : 5s1p contracted to 3s1p pattern {311/1}
 Group   3 Type N   : 11s6p2d1f contracted to 5s3p2d1f pattern {62111/411/11/1}
 Group   4 Type O   : 11s6p2d1f contracted to 5s3p2d1f pattern {62111/411/11/1}

Atom   0C    basis set group =>   1
Atom   1H    basis set group =>   2
Atom   2H    basis set group =>   2
Atom   3H    basis set group =>   2
Atom   4N    basis set group =>   3
Atom   5O    basis set group =>   4
Atom   6O    basis set group =>   4
Atom   7H    basis set group =>   2
Atom   8O    basis set group =>   4
Atom   9H    basis set group =>   2
---------------------------------
AUXILIARY/J BASIS SET INFORMATION
---------------------------------
There are 4 groups of distinct atoms

 Group   1 Type C   : 12s5p4d2f1g contracted to 6s4p3d1f1g pattern {711111/2111/211/2/1}
 Group   2 Type H   : 5s2p1d contracted to 3s1p1d pattern {311/2/1}
 Group   3 Type N   : 12s5p4d2f1g contracted to 6s4p3d1f1g pattern {711111/2111/211/2/1}
 Group   4 Type O   : 12s5p4d2f1g contracted to 6s4p3d1f1g pattern {711111/2111/211/2/1}

Atom   0C    basis set group =>   1
Atom   1H    basis set group =>   2
Atom   2H    basis set group =>   2
Atom   3H    basis set group =>   2
Atom   4N    basis set group =>   3
Atom   5O    basis set group =>   4
Atom   6O    basis set group =>   4
Atom   7H    basis set group =>   2
Atom   8O    basis set group =>   4
Atom   9H    basis set group =>   2


           ************************************************************
           *        Program running with 102 parallel MPI-processes   *
           *              working on a common directory               *
           ************************************************************
------------------------------------------------------------------------------
                           ORCA GTO INTEGRAL CALCULATION
                           -- RI-GTO INTEGRALS CHOSEN --
------------------------------------------------------------------------------
------------------------------------------------------------------------------
                   ___                                                        
                  /   \      - P O W E R E D   B Y -                         
                 /     \                                                     
                 |  |  |   _    _      __       _____    __    __             
                 |  |  |  | |  | |    /  \     |  _  \  |  |  /  |          
                  \  \/   | |  | |   /    \    | | | |  |  | /  /          
                 / \  \   | |__| |  /  /\  \   | |_| |  |  |/  /          
                |  |  |   |  __  | /  /__\  \  |    /   |      \           
                |  |  |   | |  | | |   __   |  |    \   |  |\   \          
                \     /   | |  | | |  |  |  |  | |\  \  |  | \   \       
                 \___/    |_|  |_| |__|  |__|  |_| \__\ |__|  \__/        
                                                                              
                      - O R C A' S   B I G   F R I E N D -                    
                                      &                                       
                       - I N T E G R A L  F E E D E R -                       
                                                                              
 v1 FN, 2020, v2 2021                                                         
------------------------------------------------------------------------------


Reading SHARK input file /home/rudenko/mop_saddle_orca_4_serv/for_orca/CH3NO2_H2O_near/orca/start_freq_D/start_f_D.SHARKINP.tmp ... ok
----------------------
SHARK INTEGRAL PACKAGE
----------------------

Number of atoms                             ...     10
Number of basis functions                   ...    185
Number of shells                            ...     75
Maximum angular momentum                    ...      3
Integral batch strategy                     ... SHARK/LIBINT Hybrid
RI-J (if used) integral strategy            ... SPLIT-RIJ (Revised 2003 algorithm where possible)
Printlevel                                  ...      1
Contraction scheme used                     ... SEGMENTED contraction
Coulomb Range Separation                    ... NOT USED
Exchange Range Separation                   ... NOT USED
Finite Nucleus Model                        ... NOT USED
Auxiliary Coulomb fitting basis             ... AVAILABLE
   # of basis functions in Aux-J            ...    300
   # of shells in Aux-J                     ...    100
   Maximum angular momentum in Aux-J        ...      4
Auxiliary J/K fitting basis                 ... NOT available
Auxiliary Correlation fitting basis         ... NOT available
Auxiliary 'external' fitting basis          ... NOT available
Integral threshold                          ...     2.500000e-11
Primitive cut-off                           ...     2.500000e-12
Primitive pair pre-selection threshold      ...     2.500000e-12

Calculating pre-screening integrals         ... done (  0.0 sec) Dimension = 75
Organizing shell pair data                  ... done (  0.1 sec)
Shell pair information
Total number of shell pairs                 ...      2850
Shell pairs after pre-screening             ...      2477
Total number of primitive shell pairs       ...      8640
Primitive shell pairs kept                  ...      5793
          la=0 lb=0:    705 shell pairs
          la=1 lb=0:    719 shell pairs
          la=1 lb=1:    193 shell pairs
          la=2 lb=0:    338 shell pairs
          la=2 lb=1:    172 shell pairs
          la=2 lb=2:     44 shell pairs
          la=3 lb=0:    170 shell pairs
          la=3 lb=1:     84 shell pairs
          la=3 lb=2:     40 shell pairs
          la=3 lb=3:     12 shell pairs

Calculating one electron integrals          ... done (  0.0 sec)
Calculating RI/J V-Matrix + Cholesky decomp.... done (  0.0 sec)
Calculating Nuclear repulsion               ... done (  0.0 sec) ENN=    171.804849526500 Eh

SHARK setup successfully completed in   0.3 seconds

Maximum memory used throughout the entire GTOINT-calculation: 16.1 MB


           ************************************************************
           *        Program running with 102 parallel MPI-processes   *
           *              working on a common directory               *
           ************************************************************
-------------------------------------------------------------------------------
                                 ORCA SCF
-------------------------------------------------------------------------------

------------
SCF SETTINGS
------------
Hamiltonian:
 Density Functional     Method          .... DFT(GTOs)
 Exchange Functional    Exchange        .... B88
   X-Alpha parameter    XAlpha          ....  0.666667
   Becke's b parameter  XBeta           ....  0.004200
 Correlation Functional Correlation     .... LYP
 LDA part of GGA corr.  LDAOpt          .... VWN-5
 Gradients option       PostSCFGGA      .... off
 Hybrid DFT is turned on
   Fraction HF Exchange ScalHFX         ....  0.200000
   Scaling of DF-GGA-X  ScalDFX         ....  0.720000
   Scaling of DF-GGA-C  ScalDFC         ....  0.810000
   Scaling of DF-LDA-C  ScalLDAC        ....  1.000000
   Perturbative correction              ....  0.000000
   Density functional embedding theory  .... OFF
   NL short-range parameter             ....  4.800000
 RI-approximation to the Coulomb term is turned on
   Number of AuxJ basis functions       .... 300
   RIJ-COSX (HFX calculated with COS-X)).... on


General Settings:
 Integral files         IntName         .... /home/rudenko/mop_saddle_orca_4_serv/for_orca/CH3NO2_H2O_near/orca/start_freq_D/start_f_D
 Hartree-Fock type      HFTyp           .... RHF
 Total Charge           Charge          ....    0
 Multiplicity           Mult            ....    1
 Number of Electrons    NEL             ....   42
 Basis Dimension        Dim             ....  185
 Nuclear Repulsion      ENuc            ....    171.8048495265 Eh

Convergence Acceleration:
 DIIS                   CNVDIIS         .... on
   Start iteration      DIISMaxIt       ....    12
   Startup error        DIISStart       ....  0.200000
   # of expansion vecs  DIISMaxEq       ....     5
   Bias factor          DIISBfac        ....   1.050
   Max. coefficient     DIISMaxC        ....  10.000
 Trust-Rad. Augm. Hess. CNVTRAH         .... auto
   Auto Start mean grad. ratio tolernc. ....  1.125000
   Auto Start start iteration           ....    20
   Auto Start num. interpolation iter.  ....    10
   Max. Number of Micro iterations      ....    16
   Max. Number of Macro iterations      .... Maxiter - #DIIS iter
   Number of Davidson start vectors     ....     2
   Converg. threshold I  (grad. norm)   ....   1.000e-05
   Converg. threshold II (energy diff.) ....   1.000e-08
   Grad. Scal. Fac. for Micro threshold ....   0.100
   Minimum threshold for Micro iter.    ....   0.010
   NR start threshold (gradient norm)   ....   0.001
   Initial trust radius                 ....   0.400
   Minimum AH scaling param. (alpha)    ....   1.000
   Maximum AH scaling param. (alpha)    .... 1000.000
   Orbital update algorithm             .... Taylor
   White noise on init. David. guess    .... on
   Maximum white noise                  ....   0.010
   Quad. conv. algorithm                .... NR
 SOSCF                  CNVSOSCF        .... on
   Start iteration      SOSCFMaxIt      ....   150
   Startup grad/error   SOSCFStart      ....  0.003300
 Level Shifting         CNVShift        .... on
   Level shift para.    LevelShift      ....    0.2500
   Turn off err/grad.   ShiftErr        ....    0.0010
 Zerner damping         CNVZerner       .... off
 Static damping         CNVDamp         .... on
   Fraction old density DampFac         ....    0.7000
   Max. Damping (<1)    DampMax         ....    0.9800
   Min. Damping (>=0)   DampMin         ....    0.0000
   Turn off err/grad.   DampErr         ....    0.1000
 Fernandez-Rico         CNVRico         .... off

SCF Procedure:
 Maximum # iterations   MaxIter         ....   125
 SCF integral mode      SCFMode         .... Direct
   Integral package                     .... SHARK and LIBINT hybrid scheme
 Reset frequency        DirectResetFreq ....    20
 Integral Threshold     Thresh          ....  2.500e-11 Eh
 Primitive CutOff       TCut            ....  2.500e-12 Eh

Convergence Tolerance:
 Convergence Check Mode ConvCheckMode   .... Total+1el-Energy
 Convergence forced     ConvForced      .... 0
 Energy Change          TolE            ....  1.000e-08 Eh
 1-El. energy change                    ....  1.000e-05 Eh
 Orbital Gradient       TolG            ....  1.000e-05
 Orbital Rotation angle TolX            ....  1.000e-05
 DIIS Error             TolErr          ....  5.000e-07


Diagonalization of the overlap matrix:
Smallest eigenvalue                        ... 8.407e-04
Time for diagonalization                   ...    0.010 sec
Threshold for overlap eigenvalues          ... 1.000e-08
Number of eigenvalues below threshold      ... 0
Time for construction of square roots      ...    0.010 sec
Total time needed                          ...    0.022 sec

Time for model grid setup =    0.074 sec

------------------------------
INITIAL GUESS: MODEL POTENTIAL
------------------------------
Loading Hartree-Fock densities                     ... done
Calculating cut-offs                               ... done
Initializing the effective Hamiltonian             ... done
Setting up the integral package (SHARK)            ... done
Starting the Coulomb interaction                   ... done (   0.0 sec)
Reading the grid                                   ... done
Mapping shells                                     ... done
Starting the XC term evaluation                    ... done (   0.0 sec)
  promolecular density results
     # of electrons  =     41.996978192
     EX              =    -37.760500170
     EC              =     -1.456268459
     EX+EC           =    -39.216768629
Transforming the Hamiltonian                       ... done (   0.0 sec)
Diagonalizing the Hamiltonian                      ... done (   0.0 sec)
Back transforming the eigenvectors                 ... done (   0.0 sec)
Now organizing SCF variables                       ... done
                      ------------------
                      INITIAL GUESS DONE (   0.1 sec)
                      ------------------
-------------------
DFT GRID GENERATION
-------------------

General Integration Accuracy     IntAcc      ... 4.388
Radial Grid Type                 RadialGrid  ... OptM3 with GC (2021)
Angular Grid (max. ang.)         AngularGrid ... 4 (Lebedev-302)
Angular grid pruning method      GridPruning ... 4 (adaptive)
Weight generation scheme         WeightScheme... Becke
Basis function cutoff            BFCut       ... 1.0000e-11
Integration weight cutoff        WCut        ... 1.0000e-14
Angular grids for H and He will be reduced by one unit
Partially contracted basis set               ... off
Rotationally invariant grid construction     ... off

Total number of grid points                  ...    46815
Total number of batches                      ...      738
Average number of points per batch           ...       63
Average number of grid points per atom       ...     4682
Time for grid setup =    0.352 sec

--------------------
COSX GRID GENERATION
--------------------

GRIDX 1
-------
General Integration Accuracy     IntAcc      ... 3.816
Radial Grid Type                 RadialGrid  ... OptM3 with GC (2021)
Angular Grid (max. ang.)         AngularGrid ... 1 (Lebedev-50)
Angular grid pruning method      GridPruning ... 4 (adaptive)
Weight generation scheme         WeightScheme... Becke
Basis function cutoff            BFCut       ... 1.0000e-11
Integration weight cutoff        WCut        ... 1.0000e-14
Angular grids for H and He will be reduced by one unit
Partially contracted basis set               ... on
Rotationally invariant grid construction     ... off

Total number of grid points                  ...     6005
Total number of batches                      ...       98
Average number of points per batch           ...       61
Average number of grid points per atom       ...      600
UseSFitting                                  ... on

GRIDX 2
-------
General Integration Accuracy     IntAcc      ... 4.020
Radial Grid Type                 RadialGrid  ... OptM3 with GC (2021)
Angular Grid (max. ang.)         AngularGrid ... 2 (Lebedev-110)
Angular grid pruning method      GridPruning ... 4 (adaptive)
Weight generation scheme         WeightScheme... Becke
Basis function cutoff            BFCut       ... 1.0000e-11
Integration weight cutoff        WCut        ... 1.0000e-14
Angular grids for H and He will be reduced by one unit
Partially contracted basis set               ... on
Rotationally invariant grid construction     ... off

Total number of grid points                  ...    13210
Total number of batches                      ...      213
Average number of points per batch           ...       62
Average number of grid points per atom       ...     1321
UseSFitting                                  ... on

GRIDX 3
-------
General Integration Accuracy     IntAcc      ... 4.338
Radial Grid Type                 RadialGrid  ... OptM3 with GC (2021)
Angular Grid (max. ang.)         AngularGrid ... 3 (Lebedev-194)
Angular grid pruning method      GridPruning ... 4 (adaptive)
Weight generation scheme         WeightScheme... Becke
Basis function cutoff            BFCut       ... 1.0000e-11
Integration weight cutoff        WCut        ... 1.0000e-14
Angular grids for H and He will be reduced by one unit
Partially contracted basis set               ... on
Rotationally invariant grid construction     ... off

Total number of grid points                  ...    29105
Total number of batches                      ...      460
Average number of points per batch           ...       63
Average number of grid points per atom       ...     2910
UseSFitting                                  ... on

Time for X-Grid setup             =    0.307 sec


--------------------
CPCM SOLVATION MODEL
--------------------
CPCM parameters:
  Epsilon                                         ...      78.4000
  Refrac                                          ...       1.3300
  Rsolv                                           ...       1.3000
  Surface type                                    ... GAUSSIAN VDW
  Epsilon function type                           ...         CPCM
Radii:
 Radius for C  used is    3.8550 Bohr (=   2.0400 Ang.)
 Radius for H  used is    2.4944 Bohr (=   1.3200 Ang.)
 Radius for N  used is    3.5149 Bohr (=   1.8600 Ang.)
 Radius for O  used is    3.4469 Bohr (=   1.8240 Ang.)
Calculating surface                               ...        done! (  0.0s)
GEPOL surface points                              ...          699
GEPOL Volume                                      ...     687.1612
GEPOL Surface-area                                ...     477.8390
Calculating surface distance matrix               ...        done! (  0.0s)
Performing Cholesky decomposition & store         ...        done! (  0.1s)
Overall time for CPCM initialization              ...                 0.1s
--------------
SCF ITERATIONS
--------------
ITER       Energy         Delta-E        Max-DP      RMS-DP      [F,P]     Damp
               ***  Starting incremental Fock matrix formation  ***
  0   -321.1991332818   0.000000000000 0.05587947  0.00149949  0.3378495 0.7000
  1   -321.3243998232  -0.125266541373 0.03208320  0.00091188  0.1325453 0.7000
                               ***Turning on DIIS***
  2   -321.3630786915  -0.038678868275 0.03859084  0.00115862  0.0337633 0.0000
  3   -321.4380926981  -0.075014006614 0.02236420  0.00061510  0.0793824 0.0000
  4   -321.4489828962  -0.010890198139 0.00812351  0.00020044  0.0166902 0.0000
                      *** Initiating the SOSCF procedure ***
                           *** Shutting down DIIS ***
                      *** Re-Reading the Fockian *** 
                      *** Removing any level shift *** 
ITER      Energy       Delta-E        Grad      Rot      Max-DP    RMS-DP
  5   -321.44971820  -0.0007352989  0.000846  0.000846  0.002236  0.000056
               *** Restarting incremental Fock matrix formation ***
  6   -321.44972060  -0.0000024081  0.000654  0.001089  0.001890  0.000046
  7   -321.44971098   0.0000096190  0.001281  0.000998  0.000776  0.000021
  8   -321.44972738  -0.0000163989  0.000121  0.000216  0.000192  0.000005
  9   -321.44972713   0.0000002534  0.000177  0.000149  0.000131  0.000004
 10   -321.44972752  -0.0000003941  0.000036  0.000125  0.000073  0.000002
 11   -321.44972749   0.0000000325  0.000082  0.000090  0.000052  0.000001
 12   -321.44972753  -0.0000000414  0.000005  0.000007  0.000011  0.000000
 13   -321.44972753   0.0000000003  0.000006  0.000004  0.000007  0.000000
                 **** Energy Check signals convergence ****
              ***Rediagonalizing the Fockian in SOSCF/NRSCF***

               *****************************************************
               *                     SUCCESS                       *
               *           SCF CONVERGED AFTER  14 CYCLES          *
               *****************************************************

Old exchange energy                            =     -7.622137591 Eh
New exchange energy                            =     -7.622152095 Eh
Exchange energy change after final integration =     -0.000014504 Eh
Total energy after final integration           =   -321.449742037 Eh
Final COS-X integration done in                =     0.165 sec

----------------
TOTAL SCF ENERGY
----------------

Total Energy       :         -321.44974204 Eh           -8747.09217 eV

Components:
Nuclear Repulsion  :          171.80484953 Eh            4675.04763 eV
Electronic Energy  :         -493.25459156 Eh          -13422.13980 eV
One Electron Energy:         -779.66367115 Eh          -21215.72708 eV
Two Electron Energy:          286.40907959 Eh            7793.58727 eV
Max COSX asymmetry :            0.00000127 Eh               0.00003 eV
CPCM Dielectric    :           -0.02620367 Eh              -0.71304 eV

Virial components:
Potential Energy   :         -641.65978141 Eh          -17460.45032 eV
Kinetic Energy     :          320.21003937 Eh            8713.35815 eV
Virial Ratio       :            2.00387153


DFT components:
N(Alpha)           :       21.000001824545 electrons
N(Beta)            :       21.000001824545 electrons
N(Total)           :       42.000003649091 electrons
E(X)               :      -30.411014282874 Eh       
E(C)               :       -1.722324093565 Eh       
E(XC)              :      -32.133338376440 Eh       
DFET-embed. en.    :        0.000000000000 Eh       
CPCM Solvation Model Properties:
Surface-charge          :           -0.01358841
Charge-correction       :            0.00021055 Eh               0.00573 eV
Free-energy (cav+disp)  :  This term is not implemented in the current solvation scheme

---------------
SCF CONVERGENCE
---------------

  Last Energy change         ...   -1.0605e-09  Tolerance :   1.0000e-08
  Last MAX-Density change    ...    1.1102e-15  Tolerance :   1.0000e-07
  Last RMS-Density change    ...    1.9561e-17  Tolerance :   5.0000e-09
  Last Orbital Gradient      ...    2.5821e-07  Tolerance :   1.0000e-05
  Last Orbital Rotation      ...    3.9431e-07  Tolerance :   1.0000e-05

             **** THE GBW FILE WAS UPDATED (/home/rudenko/mop_saddle_orca_4_serv/for_orca/CH3NO2_H2O_near/orca/start_freq_D/start_f_D.gbw) ****
             **** DENSITY /home/rudenko/mop_saddle_orca_4_serv/for_orca/CH3NO2_H2O_near/orca/start_freq_D/start_f_D.scfp WAS UPDATED ****
             **** ENERGY FILE WAS UPDATED (/home/rudenko/mop_saddle_orca_4_serv/for_orca/CH3NO2_H2O_near/orca/start_freq_D/start_f_D.en.tmp) ****
             **** THE GBW FILE WAS UPDATED (/home/rudenko/mop_saddle_orca_4_serv/for_orca/CH3NO2_H2O_near/orca/start_freq_D/start_f_D.gbw) ****
             **** DENSITY /home/rudenko/mop_saddle_orca_4_serv/for_orca/CH3NO2_H2O_near/orca/start_freq_D/start_f_D.scfp WAS UPDATED ****
----------------
ORBITAL ENERGIES
----------------

  NO   OCC          E(Eh)            E(eV) 
   0   2.0000     -19.171934      -521.6949 
   1   2.0000     -19.170233      -521.6486 
   2   2.0000     -19.124409      -520.4016 
   3   2.0000     -14.559119      -396.1738 
   4   2.0000     -10.220536      -278.1149 
   5   2.0000      -1.243128       -33.8272 
   6   2.0000      -1.069225       -29.0951 
   7   2.0000      -1.007978       -27.4285 
   8   2.0000      -0.813040       -22.1239 
   9   2.0000      -0.624713       -16.9993 
  10   2.0000      -0.555670       -15.1206 
  11   2.0000      -0.544750       -14.8234 
  12   2.0000      -0.534350       -14.5404 
  13   2.0000      -0.525260       -14.2931 
  14   2.0000      -0.439427       -11.9574 
  15   2.0000      -0.421726       -11.4758 
  16   2.0000      -0.392741       -10.6870 
  17   2.0000      -0.332183        -9.0392 
  18   2.0000      -0.326130        -8.8745 
  19   2.0000      -0.315465        -8.5842 
  20   2.0000      -0.309442        -8.4203 
  21   0.0000      -0.081552        -2.2192 
  22   0.0000       0.023641         0.6433 
  23   0.0000       0.069520         1.8917 
  24   0.0000       0.096114         2.6154 
  25   0.0000       0.115819         3.1516 
  26   0.0000       0.126866         3.4522 
  27   0.0000       0.154533         4.2051 
  28   0.0000       0.177754         4.8369 
  29   0.0000       0.204920         5.5762 
  30   0.0000       0.208978         5.6866 
  31   0.0000       0.244658         6.6575 
  32   0.0000       0.306976         8.3532 
  33   0.0000       0.347147         9.4463 
  34   0.0000       0.348569         9.4850 
  35   0.0000       0.370352        10.0778 
  36   0.0000       0.384318        10.4578 
  37   0.0000       0.397232        10.8092 
  38   0.0000       0.414019        11.2660 
  39   0.0000       0.437625        11.9084 
  40   0.0000       0.440167        11.9775 
  41   0.0000       0.446790        12.1578 
  42   0.0000       0.452653        12.3173 
  43   0.0000       0.462580        12.5874 
  44   0.0000       0.493799        13.4370 
  45   0.0000       0.507106        13.7991 
  46   0.0000       0.527785        14.3618 
  47   0.0000       0.532543        14.4912 
  48   0.0000       0.564988        15.3741 
  49   0.0000       0.584831        15.9141 
  50   0.0000       0.593059        16.1380 
  51   0.0000       0.610515        16.6130 
  52   0.0000       0.685231        18.6461 
  53   0.0000       0.697905        18.9910 
  54   0.0000       0.773885        21.0585 
  55   0.0000       0.837784        22.7973 
  56   0.0000       0.869910        23.6715 
  57   0.0000       0.911583        24.8054 
  58   0.0000       0.985862        26.8267 
  59   0.0000       1.053969        28.6799 
  60   0.0000       1.128045        30.6957 
  61   0.0000       1.153100        31.3774 
  62   0.0000       1.178208        32.0607 
  63   0.0000       1.206958        32.8430 
  64   0.0000       1.286496        35.0073 
  65   0.0000       1.322389        35.9840 
  66   0.0000       1.362723        37.0816 
  67   0.0000       1.386463        37.7276 
  68   0.0000       1.479480        40.2587 
  69   0.0000       1.497637        40.7528 
  70   0.0000       1.499389        40.8004 
  71   0.0000       1.533898        41.7395 
  72   0.0000       1.554773        42.3075 
  73   0.0000       1.584535        43.1174 
  74   0.0000       1.604758        43.6677 
  75   0.0000       1.610275        43.8178 
  76   0.0000       1.659901        45.1682 
  77   0.0000       1.689062        45.9617 
  78   0.0000       1.742506        47.4160 
  79   0.0000       1.756707        47.8024 
  80   0.0000       1.764767        48.0217 
  81   0.0000       1.905509        51.8515 
  82   0.0000       1.920301        52.2540 
  83   0.0000       1.924126        52.3581 
  84   0.0000       1.975263        53.7497 
  85   0.0000       2.013554        54.7916 
  86   0.0000       2.018371        54.9227 
  87   0.0000       2.067203        56.2515 
  88   0.0000       2.102771        57.2193 
  89   0.0000       2.105904        57.3046 
  90   0.0000       2.121683        57.7339 
  91   0.0000       2.172005        59.1032 
  92   0.0000       2.198030        59.8114 
  93   0.0000       2.235089        60.8199 
  94   0.0000       2.250021        61.2262 
  95   0.0000       2.299426        62.5706 
  96   0.0000       2.311286        62.8933 
  97   0.0000       2.352269        64.0085 
  98   0.0000       2.392425        65.1012 
  99   0.0000       2.492535        67.8253 
 100   0.0000       2.544377        69.2360 
 101   0.0000       2.558265        69.6139 
 102   0.0000       2.567722        69.8713 
 103   0.0000       2.583486        70.3002 
 104   0.0000       2.595758        70.6342 
 105   0.0000       2.610339        71.0309 
 106   0.0000       2.656752        72.2939 
 107   0.0000       2.687215        73.1228 
 108   0.0000       2.713683        73.8431 
 109   0.0000       2.749016        74.8045 
 110   0.0000       2.827486        76.9398 
 111   0.0000       2.831956        77.0614 
 112   0.0000       2.918588        79.4188 
 113   0.0000       2.972712        80.8916 
 114   0.0000       2.993857        81.4670 
 115   0.0000       3.058871        83.2361 
 116   0.0000       3.155051        85.8533 
 117   0.0000       3.217994        87.5661 
 118   0.0000       3.223418        87.7137 
 119   0.0000       3.347461        91.0890 
 120   0.0000       3.392835        92.3237 
 121   0.0000       3.456313        94.0511 
 122   0.0000       3.468393        94.3798 
 123   0.0000       3.554418        96.7206 
 124   0.0000       3.652179        99.3808 
 125   0.0000       3.713038       101.0369 
 126   0.0000       3.769907       102.5844 
 127   0.0000       3.919673       106.6597 
 128   0.0000       3.972976       108.1102 
 129   0.0000       4.018536       109.3499 
 130   0.0000       4.087911       111.2377 
 131   0.0000       4.153276       113.0164 
 132   0.0000       4.269847       116.1884 
 133   0.0000       4.405943       119.8918 
 134   0.0000       4.533707       123.3684 
 135   0.0000       4.546256       123.7099 
 136   0.0000       4.595114       125.0394 
 137   0.0000       4.666879       126.9922 
 138   0.0000       4.749371       129.2370 
 139   0.0000       4.794329       130.4603 
 140   0.0000       4.881478       132.8318 
 141   0.0000       5.057030       137.6088 
 142   0.0000       5.076462       138.1375 
 143   0.0000       5.095319       138.6507 
 144   0.0000       5.112670       139.1228 
 145   0.0000       5.125192       139.4636 
 146   0.0000       5.130575       139.6101 
 147   0.0000       5.198546       141.4596 
 148   0.0000       5.265737       143.2880 
 149   0.0000       5.285018       143.8127 
 150   0.0000       5.314114       144.6044 
 151   0.0000       5.374694       146.2529 
 152   0.0000       5.399423       146.9258 
 153   0.0000       5.453127       148.3871 
 154   0.0000       5.554735       151.1520 
 155   0.0000       5.598460       152.3418 
 156   0.0000       5.675234       154.4310 
 157   0.0000       5.921160       161.1229 
 158   0.0000       6.015154       163.6807 
 159   0.0000       6.200859       168.7339 
 160   0.0000       6.221772       169.3030 
 161   0.0000       6.256017       170.2349 
 162   0.0000       6.308562       171.6647 
 163   0.0000       6.321002       172.0032 
 164   0.0000       6.323958       172.0836 
 165   0.0000       6.337415       172.4498 
 166   0.0000       6.359934       173.0626 
 167   0.0000       6.398883       174.1225 
 168   0.0000       6.423489       174.7920 
 169   0.0000       6.629367       180.3943 
 170   0.0000       6.833388       185.9460 
 171   0.0000       6.853010       186.4799 
 172   0.0000       6.896628       187.6668 
 173   0.0000       6.911211       188.0636 
 174   0.0000       6.988601       190.1695 
 175   0.0000       7.065523       192.2627 
 176   0.0000       7.208472       196.1525 
 177   0.0000       7.240686       197.0291 
 178   0.0000       7.297505       198.5752 
 179   0.0000       7.368507       200.5073 
 180   0.0000      22.334281       607.7467 
 181   0.0000      32.300676       878.9461 
 182   0.0000      43.271693      1177.4826 
 183   0.0000      43.884051      1194.1457 
 184   0.0000      43.913364      1194.9434 

                    ********************************
                    * MULLIKEN POPULATION ANALYSIS *
                    ********************************

-----------------------
MULLIKEN ATOMIC CHARGES
-----------------------
   0 C :   -0.272704
   1 H :    0.173675
   2 H :    0.179143
   3 H :    0.164651
   4 N :    0.430191
   5 O :   -0.348130
   6 O :   -0.346949
   7 H :    0.360873
   8 O :   -0.701650
   9 H :    0.360899
Sum of atomic charges:    0.0000000

--------------------------------
MULLIKEN REDUCED ORBITAL CHARGES
--------------------------------
  0 C s       :     3.291669  s :     3.291669
      pz      :     1.055917  p :     2.926740
      px      :     0.777369
      py      :     1.093454
      dz2     :     0.010348  d :     0.049107
      dxz     :     0.011580
      dyz     :     0.005623
      dx2y2   :     0.011541
      dxy     :     0.010015
      f0      :     0.001110  f :     0.005188
      f+1     :     0.000686
      f-1     :     0.000372
      f+2     :     0.000796
      f-2     :     0.000285
      f+3     :     0.001243
      f-3     :     0.000696
  1 H s       :     0.804735  s :     0.804735
      pz      :     0.006450  p :     0.021589
      px      :     0.006323
      py      :     0.008816
  2 H s       :     0.799085  s :     0.799085
      pz      :     0.004244  p :     0.021773
      px      :     0.005751
      py      :     0.011778
  3 H s       :     0.813700  s :     0.813700
      pz      :     0.013735  p :     0.021649
      px      :     0.003130
      py      :     0.004784
  4 N s       :     3.315379  s :     3.315379
      pz      :     0.884986  p :     3.001795
      px      :     1.035414
      py      :     1.081396
      dz2     :     0.064733  d :     0.238245
      dxz     :     0.074082
      dyz     :     0.055569
      dx2y2   :     0.018991
      dxy     :     0.024869
      f0      :     0.002553  f :     0.014389
      f+1     :     0.004964
      f-1     :     0.001953
      f+2     :     0.001411
      f-2     :     0.001660
      f+3     :     0.000842
      f-3     :     0.001007
  5 O s       :     3.879041  s :     3.879041
      pz      :     1.550989  p :     4.424553
      px      :     1.455540
      py      :     1.418024
      dz2     :     0.006838  d :     0.041266
      dxz     :     0.015109
      dyz     :     0.005279
      dx2y2   :     0.006769
      dxy     :     0.007270
      f0      :     0.000399  f :     0.003270
      f+1     :     0.000908
      f-1     :     0.000072
      f+2     :     0.000807
      f-2     :     0.000638
      f+3     :     0.000197
      f-3     :     0.000249
  6 O s       :     3.875351  s :     3.875351
      pz      :     1.150758  p :     4.427186
      px      :     1.856276
      py      :     1.420152
      dz2     :     0.019138  d :     0.041142
      dxz     :     0.008948
      dyz     :     0.012245
      dx2y2   :     0.000406
      dxy     :     0.000405
      f0      :     0.001447  f :     0.003270
      f+1     :     0.000795
      f-1     :     0.000916
      f+2     :     0.000050
      f-2     :     0.000054
      f+3     :     0.000004
      f-3     :     0.000004
  7 H s       :     0.593142  s :     0.593142
      pz      :     0.017652  p :     0.045985
      px      :     0.015502
      py      :     0.012831
  8 O s       :     3.808369  s :     3.808369
      pz      :     1.589815  p :     4.872532
      px      :     1.939285
      py      :     1.343432
      dz2     :     0.005866  d :     0.019463
      dxz     :     0.001949
      dyz     :     0.007782
      dx2y2   :     0.003410
      dxy     :     0.000455
      f0      :     0.000041  f :     0.001286
      f+1     :     0.000037
      f-1     :     0.000294
      f+2     :     0.000345
      f-2     :     0.000022
      f+3     :     0.000120
      f-3     :     0.000426
  9 H s       :     0.593104  s :     0.593104
      pz      :     0.011655  p :     0.045997
      px      :     0.015519
      py      :     0.018824


                     *******************************
                     * LOEWDIN POPULATION ANALYSIS *
                     *******************************

----------------------
LOEWDIN ATOMIC CHARGES
----------------------
   0 C :   -0.242726
   1 H :    0.137927
   2 H :    0.142869
   3 H :    0.130290
   4 N :   -0.067703
   5 O :   -0.057732
   6 O :   -0.061305
   7 H :    0.172954
   8 O :   -0.327900
   9 H :    0.173328

-------------------------------
LOEWDIN REDUCED ORBITAL CHARGES
-------------------------------
  0 C s       :     2.871608  s :     2.871608
      pz      :     1.088192  p :     3.086516
      px      :     0.886851
      py      :     1.111473
      dz2     :     0.058394  d :     0.251169
      dxz     :     0.054389
      dyz     :     0.023124
      dx2y2   :     0.061215
      dxy     :     0.054048
      f0      :     0.004084  f :     0.033432
      f+1     :     0.004461
      f-1     :     0.001489
      f+2     :     0.007673
      f-2     :     0.004019
      f+3     :     0.007325
      f-3     :     0.004382
  1 H s       :     0.797464  s :     0.797464
      pz      :     0.020584  p :     0.064609
      px      :     0.017350
      py      :     0.026675
  2 H s       :     0.792540  s :     0.792540
      pz      :     0.013547  p :     0.064591
      px      :     0.015672
      py      :     0.035372
  3 H s       :     0.805100  s :     0.805100
      pz      :     0.040524  p :     0.064610
      px      :     0.009000
      py      :     0.015086
  4 N s       :     2.952725  s :     2.952725
      pz      :     1.117844  p :     3.292968
      px      :     1.169107
      py      :     1.006017
      dz2     :     0.226439  d :     0.749340
      dxz     :     0.246173
      dyz     :     0.144081
      dx2y2   :     0.069694
      dxy     :     0.062953
      f0      :     0.013495  f :     0.072670
      f+1     :     0.027685
      f-1     :     0.007081
      f+2     :     0.007927
      f-2     :     0.008901
      f+3     :     0.003929
      f-3     :     0.003652
  5 O s       :     3.504455  s :     3.504455
      pz      :     1.566259  p :     4.443399
      px      :     1.504226
      py      :     1.372914
      dz2     :     0.018114  d :     0.098836
      dxz     :     0.039327
      dyz     :     0.010204
      dx2y2   :     0.018815
      dxy     :     0.012376
      f0      :     0.001376  f :     0.011042
      f+1     :     0.003181
      f-1     :     0.000249
      f+2     :     0.002962
      f-2     :     0.001616
      f+3     :     0.000934
      f-3     :     0.000725
  6 O s       :     3.503981  s :     3.503981
      pz      :     1.318661  p :     4.447544
      px      :     1.749724
      py      :     1.379159
      dz2     :     0.050364  d :     0.098745
      dxz     :     0.024417
      dyz     :     0.022654
      dx2y2   :     0.000762
      dxy     :     0.000548
      f0      :     0.005189  f :     0.011035
      f+1     :     0.002992
      f-1     :     0.002571
      f+2     :     0.000136
      f-2     :     0.000135
      f+3     :     0.000008
      f-3     :     0.000005
  7 H s       :     0.667519  s :     0.667519
      pz      :     0.073433  p :     0.159528
      px      :     0.045851
      py      :     0.040244
  8 O s       :     3.459603  s :     3.459603
      pz      :     1.601775  p :     4.837120
      px      :     1.884485
      py      :     1.350860
      dz2     :     0.007540  d :     0.028835
      dxz     :     0.000825
      dyz     :     0.013231
      dx2y2   :     0.006770
      dxy     :     0.000469
      f0      :     0.000267  f :     0.002342
      f+1     :     0.000026
      f-1     :     0.000827
      f+2     :     0.000518
      f-2     :     0.000046
      f+3     :     0.000040
      f-3     :     0.000619
  9 H s       :     0.667229  s :     0.667229
      pz      :     0.038710  p :     0.159443
      px      :     0.045802
      py      :     0.074932


                      *****************************
                      * MAYER POPULATION ANALYSIS *
                      *****************************

  NA   - Mulliken gross atomic population
  ZA   - Total nuclear charge
  QA   - Mulliken gross atomic charge
  VA   - Mayer's total valence
  BVA  - Mayer's bonded valence
  FA   - Mayer's free valence

  ATOM       NA         ZA         QA         VA         BVA        FA
  0 C      6.2727     6.0000    -0.2727     3.8015     3.8015    -0.0000
  1 H      0.8263     1.0000     0.1737     0.9699     0.9699     0.0000
  2 H      0.8209     1.0000     0.1791     0.9658     0.9658    -0.0000
  3 H      0.8353     1.0000     0.1647     0.9722     0.9722     0.0000
  4 N      6.5698     7.0000     0.4302     4.1099     4.1099    -0.0000
  5 O      8.3481     8.0000    -0.3481     1.9008     1.9008     0.0000
  6 O      8.3469     8.0000    -0.3469     1.8806     1.8806     0.0000
  7 H      0.6391     1.0000     0.3609     0.8861     0.8861    -0.0000
  8 O      8.7016     8.0000    -0.7016     1.8015     1.8015    -0.0000
  9 H      0.6391     1.0000     0.3609     0.8857     0.8857     0.0000

  Mayer bond orders larger than 0.100000
B(  0-C ,  1-H ) :   0.9436 B(  0-C ,  2-H ) :   0.9376 B(  0-C ,  3-H ) :   0.9537 
B(  0-C ,  4-N ) :   0.8745 B(  4-N ,  5-O ) :   1.6230 B(  4-N ,  6-O ) :   1.6084 
B(  5-O ,  6-O ) :   0.2101 B(  7-H ,  8-O ) :   0.8807 B(  8-O ,  9-H ) :   0.8806 


-------
TIMINGS
-------

Total SCF time: 0 days 0 hours 0 min 7 sec 

Total time                  ....       7.247 sec
Sum of individual times     ....       6.801 sec  ( 93.8%)

Fock matrix formation       ....       5.425 sec  ( 74.9%)
  Split-RI-J                ....       0.875 sec  ( 16.1% of F)
  Chain of spheres X        ....       1.631 sec  ( 30.1% of F)
  XC integration            ....       0.729 sec  ( 13.4% of F)
    Basis function eval.    ....       0.037 sec  (  5.1% of XC)
    Density eval.           ....       0.059 sec  (  8.1% of XC)
    XC-Functional eval.     ....       0.006 sec  (  0.8% of XC)
    XC-Potential eval.      ....       0.043 sec  (  6.0% of XC)
Diagonalization             ....       0.159 sec  (  2.2%)
Density matrix formation    ....       0.064 sec  (  0.9%)
Population analysis         ....       0.024 sec  (  0.3%)
Initial guess               ....       0.057 sec  (  0.8%)
Orbital Transformation      ....       0.000 sec  (  0.0%)
Orbital Orthonormalization  ....       0.000 sec  (  0.0%)
DIIS solution               ....       0.122 sec  (  1.7%)
SOSCF solution              ....       0.217 sec  (  3.0%)
Grid generation             ....       0.733 sec  ( 10.1%)

Maximum memory used throughout the entire SCF-calculation: 64.8 MB


-------------------------------------------------------------------------------
                          DFT DISPERSION CORRECTION                            
                                                                               
                              DFTD3 V3.1  Rev 1                                
                          USING Becke-Johnson damping                          
-------------------------------------------------------------------------------
The B3LYP functional is recognized
Active option DFTDOPT                   ...         4   

molecular C6(AA) [au] = 741.706372 


            DFT-D V3
 parameters
 s6 scaling factor         :     1.0000 
 a1 scaling factor         :     0.3981 
 s8 scaling factor         :     1.9889 
 a2 scaling factor         :     4.4211 
 ad hoc parameters k1-k3   :    16.0000     1.3333    -4.0000 

 Edisp/kcal,au: -4.895874140099  -0.007802071236 
 E6   /kcal   :  -2.483169383 
 E8   /kcal   :  -2.412704757 
 % E8         :  49.280367273 

-------------------------   ----------------
Dispersion correction           -0.007802071
-------------------------   ----------------


-------------------------   --------------------
FINAL SINGLE POINT ENERGY      -321.457544108648
-------------------------   --------------------



           ************************************************************
           *        Program running with 102 parallel MPI-processes   *
           *              working on a common directory               *
           ************************************************************
------------------------------------------------------------------------------
                         ORCA SCF GRADIENT CALCULATION
------------------------------------------------------------------------------

 ... reading COSX grid (gridx3)
Gradient of the Kohn-Sham DFT energy:
Kohn-Sham wavefunction type      ... RKS
Hartree-Fock exchange scaling    ...    0.200
Number of operators              ...    1
Number of atoms                  ...   10
Basis set dimensions             ...  185
Integral neglect threshold       ... 2.5e-11
Integral primitive cutoff        ... 2.5e-12
SHARK Integral package           ... ON

Nuc. rep. gradient       (SHARK) ... done (  0.0 sec)
HCore & Overlap gradient (SHARK) ... done (  0.0 sec)
RI-J gradient            (SHARK) ... done (  0.1 sec)
COSX-gradient                    ... done (  0.2 sec)
Exchange-correlation gradient    ... done
Dispersion correction            ... done

------------------
CARTESIAN GRADIENT
------------------

   1   C   :   -0.000035788   -0.000016025   -0.000015731
   2   H   :    0.000005890    0.000013222    0.000004531
   3   H   :   -0.000041681    0.000033365   -0.000040860
   4   H   :   -0.000059934    0.000016558   -0.000016798
   5   N   :   -0.000044001   -0.000017957   -0.000048976
   6   O   :   -0.000026938    0.000029712   -0.000056569
   7   O   :   -0.000005585   -0.000025223   -0.000047327
   8   H   :   -0.000042936    0.000050492    0.000017466
   9   O   :   -0.000053310   -0.000067444    0.000048404
  10   H   :   -0.000019770    0.000044444   -0.000038019

Difference to translation invariance:
           :   -0.0003240523    0.0000611429   -0.0001938782

Difference to rotation invariance:
           :   -0.0000847251   -0.0011504829   -0.0002713256

Norm of the cartesian gradient     ...    0.0002032229
RMS gradient                       ...    0.0000371033
MAX gradient                       ...    0.0000674445

-------
TIMINGS
-------

Total SCF gradient time            ...        1.208 sec

One electron gradient       ....       0.022 sec  (  1.8%)
RI-J Coulomb gradient       ....       0.113 sec  (  9.4%)
COSX gradient               ....       0.217 sec  ( 18.0%)
XC gradient                 ....       0.116 sec  (  9.6%)
CPCM gradient               ....       0.099 sec  (  8.2%)
   A-Matrix (El+Nuc)        ....       0.039 sec  (  3.3%)
   Potential                ....       0.060 sec  (  5.0%)

Maximum memory used throughout the entire SCFGRAD-calculation: 39.3 MB

                            ***************************************
                            *     ORCA property calculations      *
                            ***************************************

                                    ---------------------
                                    Active property flags
                                    ---------------------
   (+) Dipole Moment


------------------------------------------------------------------------------
                       ORCA ELECTRIC PROPERTIES CALCULATION
------------------------------------------------------------------------------

Dipole Moment Calculation                       ... on
Quadrupole Moment Calculation                   ... off
Polarizability Calculation                      ... off
GBWName                                         ... /home/rudenko/mop_saddle_orca_4_serv/for_orca/CH3NO2_H2O_near/orca/start_freq_D/start_f_D.gbw
Electron density                                ... /home/rudenko/mop_saddle_orca_4_serv/for_orca/CH3NO2_H2O_near/orca/start_freq_D/start_f_D.scfp
The origin for moment calculation is the CENTER OF MASS  = ( 0.165493, -1.492093  0.992934)

-------------
DIPOLE MOMENT
-------------
                                X             Y             Z
Electronic contribution:     -6.18328       0.27323      -1.16657
Nuclear contribution   :      7.75061      -0.06178       0.92699
                        -----------------------------------------
Total Dipole Moment    :      1.56733       0.21145      -0.23957
                        -----------------------------------------
Magnitude (a.u.)       :      1.59957
Magnitude (Debye)      :      4.06578



--------------------
Rotational spectrum 
--------------------
 
Rotational constants in cm-1:     0.389897     0.046465     0.042098 
Rotational constants in MHz : 11688.817055  1392.979494  1262.054996 

 Dipole components along the rotational axes: 
x,y,z [a.u.] :    -1.360462    -0.791261    -0.285783 
x,y,z [Debye]:    -3.458019    -2.011226    -0.726403 

 

----------------------------------------------------------------------------
                           ORCA NUMERICAL FREQUENCIES
                              (102-process run)
----------------------------------------------------------------------------

Number of atoms                ... 10
Central differences            ... used
Number of displacements        ... 60
Numerical increment            ... 5.000e-03 bohr
IR-spectrum generation         ... on
Raman-spectrum generation      ... off
Surface Crossing Hessian       ... off

The output will be reduced. Please look at the following files:
SCF program output             ... >/home/rudenko/mop_saddle_orca_4_serv/for_orca/CH3NO2_H2O_near/orca/start_freq_D/start_f_D.lastscf
Integral program output        ... >/home/rudenko/mop_saddle_orca_4_serv/for_orca/CH3NO2_H2O_near/orca/start_freq_D/start_f_D.lastint
Gradient program output        ... >/home/rudenko/mop_saddle_orca_4_serv/for_orca/CH3NO2_H2O_near/orca/start_freq_D/start_f_D.lastgrad
Dipole moment program output   ... >/home/rudenko/mop_saddle_orca_4_serv/for_orca/CH3NO2_H2O_near/orca/start_freq_D/start_f_D.lastmom
AutoCI program output          ... >/home/rudenko/mop_saddle_orca_4_serv/for_orca/CH3NO2_H2O_near/orca/start_freq_D/start_f_D.lastautoci

	<< Calculating on displaced geometry   2 (of  60) >>
	<< Calculating on displaced geometry   6 (of  60) >>
	<< Calculating on displaced geometry  18 (of  60) >>
	<< Calculating on displaced geometry   4 (of  60) >>
	<< Calculating on displaced geometry  12 (of  60) >>
	<< Calculating on displaced geometry  13 (of  60) >>
	<< Calculating on displaced geometry  28 (of  60) >>
	<< Calculating on displaced geometry   3 (of  60) >>
	<< Calculating on displaced geometry   1 (of  60) >>
	<< Calculating on displaced geometry   5 (of  60) >>
	<< Calculating on displaced geometry  10 (of  60) >>
	<< Calculating on displaced geometry  14 (of  60) >>
	<< Calculating on displaced geometry   9 (of  60) >>
	<< Calculating on displaced geometry   8 (of  60) >>
	<< Calculating on displaced geometry  20 (of  60) >>
	<< Calculating on displaced geometry  36 (of  60) >>
	<< Calculating on displaced geometry  16 (of  60) >>
	<< Calculating on displaced geometry  15 (of  60) >>
	<< Calculating on displaced geometry  26 (of  60) >>
	<< Calculating on displaced geometry   7 (of  60) >>
	<< Calculating on displaced geometry  19 (of  60) >>
	<< Calculating on displaced geometry  21 (of  60) >>
	<< Calculating on displaced geometry  22 (of  60) >>
	<< Calculating on displaced geometry  24 (of  60) >>
	<< Calculating on displaced geometry  42 (of  60) >>
	<< Calculating on displaced geometry  11 (of  60) >>
	<< Calculating on displaced geometry  32 (of  60) >>
	<< Calculating on displaced geometry  30 (of  60) >>
	<< Calculating on displaced geometry  38 (of  60) >>
	<< Calculating on displaced geometry  54 (of  60) >>
	<< Calculating on displaced geometry  25 (of  60) >>
	<< Calculating on displaced geometry  27 (of  60) >>
	<< Calculating on displaced geometry  34 (of  60) >>
	<< Calculating on displaced geometry  17 (of  60) >>
	<< Calculating on displaced geometry  29 (of  60) >>
	<< Calculating on displaced geometry  50 (of  60) >>
	<< Calculating on displaced geometry  52 (of  60) >>
	<< Calculating on displaced geometry  58 (of  60) >>
	<< Calculating on displaced geometry  44 (of  60) >>
	<< Calculating on displaced geometry  48 (of  60) >>
	<< Calculating on displaced geometry  23 (of  60) >>
	<< Calculating on displaced geometry  46 (of  60) >>
	<< Calculating on displaced geometry  35 (of  60) >>
	<< Calculating on displaced geometry  56 (of  60) >>
	<< Calculating on displaced geometry  31 (of  60) >>
	<< Calculating on displaced geometry  40 (of  60) >>
	<< Calculating on displaced geometry  39 (of  60) >>
	<< Calculating on displaced geometry  49 (of  60) >>
	<< Calculating on displaced geometry  33 (of  60) >>
	<< Calculating on displaced geometry  47 (of  60) >>
	<< Calculating on displaced geometry  45 (of  60) >>
	<< Calculating on displaced geometry  43 (of  60) >>
	<< Calculating on displaced geometry  37 (of  60) >>
	<< Calculating on displaced geometry  60 (of  60) >>
	<< Calculating on displaced geometry  41 (of  60) >>
	<< Calculating on displaced geometry  51 (of  60) >>
	<< Calculating on displaced geometry  59 (of  60) >>
	<< Calculating on displaced geometry  53 (of  60) >>
	<< Calculating on displaced geometry  55 (of  60) >>
	<< Calculating on displaced geometry  57 (of  60) >>

-----------------------
VIBRATIONAL FREQUENCIES
-----------------------

Scaling factor for frequencies =  1.000000000 (already applied!)

   0:         0.00 cm**-1
   1:         0.00 cm**-1
   2:         0.00 cm**-1
   3:         0.00 cm**-1
   4:         0.00 cm**-1
   5:         0.00 cm**-1
   6:       -63.36 cm**-1 ***imaginary mode***
   7:       -41.63 cm**-1 ***imaginary mode***
   8:        12.15 cm**-1
   9:        37.08 cm**-1
  10:        64.05 cm**-1
  11:       196.48 cm**-1
  12:       242.64 cm**-1
  13:       460.19 cm**-1
  14:       615.94 cm**-1
  15:       648.85 cm**-1
  16:       906.54 cm**-1
  17:       949.57 cm**-1
  18:      1077.13 cm**-1
  19:      1290.57 cm**-1
  20:      1316.77 cm**-1
  21:      1405.82 cm**-1
  22:      1440.45 cm**-1
  23:      1559.39 cm**-1
  24:      1599.34 cm**-1
  25:      2342.26 cm**-1
  26:      3111.95 cm**-1
  27:      3171.99 cm**-1
  28:      3763.74 cm**-1
  29:      3845.90 cm**-1


------------
NORMAL MODES
------------

These modes are the cartesian displacements weighted by the diagonal matrix
M(i,i)=1/sqrt(m[i]) where m[i] is the mass of the displaced atom
Thus, these vectors are normalized but *not* orthogonal

                  0          1          2          3          4          5    
      0       0.000000   0.000000   0.000000   0.000000   0.000000   0.000000
      1       0.000000   0.000000   0.000000   0.000000   0.000000   0.000000
      2       0.000000   0.000000   0.000000   0.000000   0.000000   0.000000
      3       0.000000   0.000000   0.000000   0.000000   0.000000   0.000000
      4       0.000000   0.000000   0.000000   0.000000   0.000000   0.000000
      5       0.000000   0.000000   0.000000   0.000000   0.000000   0.000000
      6       0.000000   0.000000   0.000000   0.000000   0.000000   0.000000
      7       0.000000   0.000000   0.000000   0.000000   0.000000   0.000000
      8       0.000000   0.000000   0.000000   0.000000   0.000000   0.000000
      9       0.000000   0.000000   0.000000   0.000000   0.000000   0.000000
     10       0.000000   0.000000   0.000000   0.000000   0.000000   0.000000
     11       0.000000   0.000000   0.000000   0.000000   0.000000   0.000000
     12       0.000000   0.000000   0.000000   0.000000   0.000000   0.000000
     13       0.000000   0.000000   0.000000   0.000000   0.000000   0.000000
     14       0.000000   0.000000   0.000000   0.000000   0.000000   0.000000
     15       0.000000   0.000000   0.000000   0.000000   0.000000   0.000000
     16       0.000000   0.000000   0.000000   0.000000   0.000000   0.000000
     17       0.000000   0.000000   0.000000   0.000000   0.000000   0.000000
     18       0.000000   0.000000   0.000000   0.000000   0.000000   0.000000
     19       0.000000   0.000000   0.000000   0.000000   0.000000   0.000000
     20       0.000000   0.000000   0.000000   0.000000   0.000000   0.000000
     21       0.000000   0.000000   0.000000   0.000000   0.000000   0.000000
     22       0.000000   0.000000   0.000000   0.000000   0.000000   0.000000
     23       0.000000   0.000000   0.000000   0.000000   0.000000   0.000000
     24       0.000000   0.000000   0.000000   0.000000   0.000000   0.000000
     25       0.000000   0.000000   0.000000   0.000000   0.000000   0.000000
     26       0.000000   0.000000   0.000000   0.000000   0.000000   0.000000
     27       0.000000   0.000000   0.000000   0.000000   0.000000   0.000000
     28       0.000000   0.000000   0.000000   0.000000   0.000000   0.000000
     29       0.000000   0.000000   0.000000   0.000000   0.000000   0.000000
                  6          7          8          9         10         11    
      0       0.001053   0.008287  -0.100645  -0.066479  -0.151264  -0.000301
      1       0.008893   0.054009  -0.247607   0.318986  -0.045598  -0.006823
      2       0.003816  -0.024401   0.222848   0.194974  -0.106605   0.000183
      3       0.065196   0.201912  -0.068119   0.147038  -0.212096  -0.005805
      4       0.142799   0.452001  -0.165711   0.382178  -0.101793  -0.011138
      5      -0.108057  -0.353254   0.150160   0.305464  -0.092069   0.000125
      6      -0.070113  -0.225702   0.004811  -0.238950  -0.097988   0.006263
      7       0.069284   0.241074  -0.249838   0.396910  -0.078744  -0.010715
      8       0.169344   0.446535   0.503301   0.185598  -0.161517  -0.000823
      9       0.003768   0.040590  -0.288161  -0.145991  -0.136834  -0.001006
     10      -0.154252  -0.414174  -0.453981   0.378391  -0.002473  -0.005766
     11      -0.035106  -0.134772   0.166192   0.206380  -0.094252   0.000212
     12       0.001734  -0.001322  -0.012381  -0.018872  -0.166080   0.000071
     13      -0.001298  -0.005490  -0.014334   0.014367   0.014761  -0.003763
     14       0.000017  -0.007629   0.025650   0.017357  -0.067856  -0.000320
     15       0.001367   0.019795  -0.128542  -0.112523  -0.145600  -0.000653
     16      -0.013668   0.062450   0.140417  -0.098319   0.023066  -0.003037
     17      -0.000839   0.019629  -0.102160  -0.095395  -0.044143  -0.000979
     18       0.002166  -0.032050   0.174727   0.111139  -0.195546   0.000575
     19       0.015897  -0.077110   0.025137  -0.110459   0.050439  -0.002621
     20       0.001506  -0.010412   0.007031  -0.009366  -0.060732  -0.000383
     21      -0.184805   0.056137   0.070300  -0.058139   0.098103  -0.470966
     22      -0.506576   0.171185   0.152564  -0.103261  -0.098161   0.213963
     23       0.384141  -0.115009  -0.175337  -0.101979   0.332473  -0.098009
     24      -0.007910   0.004255   0.077207   0.091264   0.608635  -0.022045
     25       0.039403  -0.026422   0.099020  -0.125841  -0.030590  -0.004966
     26       0.012193   0.018311  -0.141220  -0.102901   0.237386  -0.002147
     27       0.215083  -0.066278  -0.022440   0.067527   0.348124   0.826244
     28      -0.148160   0.042297   0.113995  -0.116115  -0.059329   0.121551
     29      -0.625609   0.248979  -0.068333  -0.066975   0.218085   0.156240
                 12         13         14         15         16         17    
      0      -0.007402   0.061057  -0.056507  -0.409443   0.017246  -0.297440
      1       0.004352   0.008793  -0.015204   0.031873  -0.034335  -0.026840
      2       0.004046  -0.175820  -0.011540  -0.196421   0.200498   0.097254
      3       0.001302  -0.162412   0.429029  -0.457452  -0.107728  -0.384197
      4       0.007373   0.068087   0.213560   0.017220   0.044107   0.135013
      5       0.010405  -0.449403   0.137907  -0.220504  -0.013163  -0.189218
      6      -0.010586  -0.063970  -0.639201  -0.266413  -0.019123  -0.304296
      7       0.005585   0.031904   0.235786  -0.027191  -0.053933  -0.064682
      8       0.006709  -0.388095  -0.169284  -0.166126  -0.022675  -0.195675
      9      -0.013866   0.638606   0.054266  -0.452847   0.834694   0.669323
     10       0.005953  -0.026002   0.273077  -0.007896  -0.053220  -0.017757
     11       0.003691  -0.161581   0.060885  -0.222950   0.257856   0.151729
     12      -0.011498  -0.069133  -0.015991  -0.039583  -0.198115   0.149535
     13       0.001171  -0.017748  -0.364226   0.071829   0.048523   0.033700
     14      -0.001060   0.145805  -0.037472   0.009106  -0.107465   0.034262
     15      -0.015535  -0.245268   0.031455   0.142403   0.007847   0.142987
     16       0.000981   0.020084   0.126073  -0.050159  -0.023400   0.001595
     17      -0.004581  -0.046552   0.035487   0.235085   0.195444  -0.180049
     18      -0.012529   0.193771   0.031470   0.296963   0.056227  -0.092577
     19      -0.000495  -0.014751   0.142110  -0.034280   0.013818  -0.013094
     20      -0.001490   0.122763   0.001069  -0.044544  -0.281877   0.082011
     21       0.858954   0.007242  -0.000856   0.053991   0.002400   0.014835
     22      -0.010732   0.000834   0.002239   0.000908   0.000415   0.001291
     23      -0.074072  -0.000123  -0.002103  -0.004954  -0.000390  -0.002136
     24      -0.038983   0.000045  -0.000363  -0.000648  -0.000133   0.000239
     25      -0.005581   0.000459  -0.000527  -0.000719   0.000119  -0.000104
     26       0.014411   0.001022  -0.000664   0.002163   0.000059   0.000710
     27       0.489985   0.001853   0.005893   0.033880   0.000919   0.008013
     28      -0.001291   0.000685   0.000735  -0.001538   0.000067  -0.000705
     29      -0.116230   0.001333   0.001210  -0.010706  -0.000220  -0.004165
                 18         19         20         21         22         23    
      0       0.010951  -0.025333  -0.089619   0.073312  -0.016401   0.006754
      1      -0.200671  -0.002424   0.021646   0.009473  -0.010026  -0.000730
      2      -0.046468  -0.030343  -0.090519  -0.031306   0.038366   0.051366
      3       0.530568  -0.265453   0.471043  -0.436301   0.459117  -0.444423
      4       0.256434   0.087180  -0.192638  -0.502153   0.441175  -0.181978
      5      -0.145258  -0.343439   0.677056   0.193787  -0.130193  -0.131955
      6      -0.533457   0.474898   0.222230  -0.466063   0.510161  -0.315825
      7       0.112746  -0.111589  -0.051493   0.311933  -0.297851   0.153788
      8       0.234514   0.668245   0.365405   0.405774  -0.274512   0.061480
      9      -0.006257   0.055604   0.249313   0.057127  -0.012480   0.133805
     10       0.448371   0.328235  -0.066518   0.015771  -0.001680   0.009041
     11       0.108911   0.049925  -0.111430  -0.025061   0.044960   0.058738
     12       0.003578   0.002581   0.013204  -0.125359  -0.258809   0.260525
     13       0.147644  -0.065626   0.014542   0.009615   0.016525   0.039007
     14       0.012113  -0.001302  -0.011427  -0.019995  -0.145315  -0.600705
     15      -0.012140  -0.002499  -0.021109   0.084139   0.127362  -0.220697
     16      -0.030801   0.009207  -0.002148   0.000426   0.002132  -0.008586
     17       0.002586   0.001808   0.011379  -0.053026  -0.072326   0.206138
     18       0.002188  -0.001046   0.002095   0.020202   0.052313   0.018501
     19      -0.027302   0.010757  -0.003000  -0.006058  -0.017807  -0.024431
     20       0.002621  -0.004715   0.014898   0.059389   0.190720   0.278387
     21      -0.006344   0.002967  -0.003768   0.002041   0.000064   0.000547
     22       0.000772  -0.000473  -0.001521   0.005620  -0.001658   0.015292
     23       0.000199  -0.000134   0.001391  -0.003751   0.001206  -0.010362
     24      -0.000107   0.000085   0.000186  -0.000129  -0.000329   0.000250
     25       0.000059  -0.000127  -0.000072  -0.000099  -0.000030  -0.000537
     26      -0.000347   0.000140  -0.000255   0.000681  -0.000344   0.001721
     27       0.001097  -0.001818  -0.000957   0.001339   0.000639  -0.001179
     28       0.001204  -0.000423   0.000491  -0.002209   0.000772  -0.005817
     29       0.002704  -0.000162   0.001589  -0.007001   0.002721  -0.018181
                 24         25         26         27         28         29    
      0      -0.000001  -0.004652  -0.049602  -0.014989   0.000040  -0.000031
      1      -0.000150   0.037422  -0.031607   0.086863  -0.000041   0.000017
      2      -0.000102  -0.157427   0.040863   0.032132  -0.000061   0.000022
      3       0.007673   0.067703   0.255588   0.402431  -0.000805   0.000498
      4       0.003824  -0.086474  -0.387323  -0.571477   0.001035  -0.000157
      5      -0.000271  -0.052074  -0.291781  -0.457892   0.000737  -0.000047
      6       0.005663   0.055459   0.338533  -0.229024  -0.000247  -0.000062
      7      -0.002209   0.102300   0.751553  -0.482329  -0.000789   0.000059
      8      -0.002230  -0.007874  -0.115981   0.088201   0.000086   0.000004
      9      -0.000384  -0.049419   0.001798   0.000493   0.000040  -0.000007
     10      -0.000100  -0.227372   0.007024   0.008374   0.000022   0.000036
     11       0.000214   0.944064  -0.037987  -0.007066  -0.000185   0.000004
     12      -0.000208   0.002780  -0.001451   0.000052   0.000044  -0.000002
     13      -0.000095  -0.000814  -0.000004  -0.000152   0.000003   0.000000
     14       0.001816   0.001504   0.000530   0.000508   0.000008   0.000003
     15       0.000110  -0.001599   0.000724   0.000188  -0.000026  -0.000000
     16      -0.000012   0.000028  -0.000028   0.000338   0.000004  -0.000013
     17      -0.000336   0.000728  -0.000572  -0.000116   0.000006  -0.000004
     18      -0.000207   0.001251   0.000131   0.000037  -0.000014   0.000006
     19       0.000102   0.000008  -0.000080  -0.000038   0.000001   0.000006
     20      -0.000991   0.001944  -0.000081  -0.000250  -0.000013  -0.000001
     21      -0.082168   0.000854   0.001015   0.001009   0.054160  -0.061271
     22       0.588703  -0.000242   0.000149   0.000106   0.413490  -0.388603
     23      -0.378920   0.000474   0.001195   0.000768   0.556371  -0.598846
     24       0.009801  -0.000287  -0.000127  -0.000062  -0.006833   0.000182
     25      -0.023338   0.000033   0.000043  -0.000014   0.017571   0.065909
     26       0.065792  -0.000100  -0.000170  -0.000085  -0.046264   0.024223
     27      -0.081533   0.000909   0.000945  -0.000076   0.054808   0.058274
     28      -0.218015  -0.000125  -0.000608  -0.000382  -0.692299  -0.657579
     29      -0.666205   0.000460   0.000719   0.000153   0.178220   0.214198


-----------
IR SPECTRUM
-----------

 Mode   freq       eps      Int      T**2         TX        TY        TZ
       cm**-1   L/(mol*cm) km/mol    a.u.
----------------------------------------------------------------------------
  8:     12.15   0.001834    9.27  0.047108  (-0.104580 -0.121889  0.145995)
  9:     37.08   0.003139   15.86  0.026414  (-0.066355  0.127547  0.075783)
 10:     64.05   0.002542   12.85  0.012385  (-0.108764 -0.023429 -0.002443)
 11:    196.48   0.010211   51.60  0.016217  ( 0.094864  0.083326  0.016586)
 12:    242.64   0.074278  375.37  0.095530  ( 0.306243  0.000108 -0.041773)
 13:    460.19   0.000180    0.91  0.000122  ( 0.003701 -0.000259 -0.010401)
 14:    615.94   0.001169    5.91  0.000592  (-0.009406 -0.022010 -0.004380)
 15:    648.85   0.006386   32.27  0.003071  (-0.048266  0.008708 -0.025807)
 16:    906.54   0.003359   16.98  0.001156  (-0.031899  0.000334  0.011774)
 17:    949.57   0.003180   16.07  0.001045  ( 0.011473 -0.000290  0.030224)
 18:   1077.13   0.001678    8.48  0.000486  ( 0.005948  0.021196  0.001190)
 19:   1290.57   0.001796    9.08  0.000434  ( 0.003930  0.017144  0.011179)
 20:   1316.77   0.001073    5.42  0.000254  ( 0.012446 -0.007415 -0.006665)
 21:   1405.82   0.023719  119.86  0.005265  (-0.069113 -0.004443  0.021649)
 22:   1440.45   0.021727  109.80  0.004707  (-0.040867  0.008361 -0.054470)
 23:   1559.39   0.129641  655.15  0.025944  ( 0.057792  0.010361 -0.149988)
 24:   1599.34   0.024212  122.36  0.004724  (-0.012506  0.023103 -0.063515)
 25:   2342.26   0.000115    0.58  0.000015  (-0.003291  0.000559 -0.002043)
 26:   3111.95   0.000274    1.38  0.000027  ( 0.004926  0.001416  0.001088)
 27:   3171.99   0.000100    0.51  0.000010  (-0.001542 -0.002544 -0.001012)
 28:   3763.74   0.004640   23.45  0.000385  ( 0.000575 -0.007320  0.018188)
 29:   3845.90   0.021584  109.08  0.001751  (-0.000203 -0.039367 -0.014200)

* The epsilon (eps) is given for a Dirac delta lineshape.
** The dipole moment derivative (T) already includes vibrational overlap.

The first frequency considered to be a vibration is 8
The total number of vibrations considered is 22


--------------------------
THERMOCHEMISTRY AT 298.15K
--------------------------

Temperature         ... 298.15 K
Pressure            ... 1.00 atm
Total Mass          ... 80.05 AMU

Throughout the following assumptions are being made:
  (1) The electronic state is orbitally nondegenerate
  (2) There are no thermally accessible electronically excited states
  (3) Hindered rotations indicated by low frequency modes are not
      treated as such but are treated as vibrations and this may
      cause some error
  (4) All equations used are the standard statistical mechanics
      equations for an ideal gas
  (5) All vibrations are strictly harmonic

freq.      12.15  E(vib)   ...       0.58 
freq.      37.08  E(vib)   ...       0.54 
freq.      64.05  E(vib)   ...       0.51 
freq.     196.48  E(vib)   ...       0.36 
freq.     242.64  E(vib)   ...       0.31 
freq.     460.19  E(vib)   ...       0.16 
freq.     615.94  E(vib)   ...       0.10 
freq.     648.85  E(vib)   ...       0.08 
freq.     906.54  E(vib)   ...       0.03 
freq.     949.57  E(vib)   ...       0.03 
freq.    1077.13  E(vib)   ...       0.02 
freq.    1290.57  E(vib)   ...       0.01 
freq.    1316.77  E(vib)   ...       0.01 
freq.    1405.82  E(vib)   ...       0.00 
freq.    1440.45  E(vib)   ...       0.00 
freq.    1559.39  E(vib)   ...       0.00 
freq.    1599.34  E(vib)   ...       0.00 
freq.    2342.26  E(vib)   ...       0.00 
freq.    3111.95  E(vib)   ...       0.00 
freq.    3171.99  E(vib)   ...       0.00 
freq.    3763.74  E(vib)   ...       0.00 
freq.    3845.90  E(vib)   ...       0.00 

------------
INNER ENERGY
------------

The inner energy is: U= E(el) + E(ZPE) + E(vib) + E(rot) + E(trans)
    E(el)   - is the total energy from the electronic structure calculation
              = E(kin-el) + E(nuc-el) + E(el-el) + E(nuc-nuc)
    E(ZPE)  - the the zero temperature vibrational energy from the frequency calculation
    E(vib)  - the the finite temperature correction to E(ZPE) due to population
              of excited vibrational states
    E(rot)  - is the rotational thermal energy
    E(trans)- is the translational thermal energy

Summary of contributions to the inner energy U:
Electronic energy                ...   -321.45754411 Eh
Zero point energy                ...      0.06847902 Eh      42.97 kcal/mol
Thermal vibrational correction   ...      0.00435728 Eh       2.73 kcal/mol
Thermal rotational correction    ...      0.00141627 Eh       0.89 kcal/mol
Thermal translational correction ...      0.00141627 Eh       0.89 kcal/mol
-----------------------------------------------------------------------
Total thermal energy                   -321.38187527 Eh


Summary of corrections to the electronic energy:
(perhaps to be used in another calculation)
Total thermal correction                  0.00718982 Eh       4.51 kcal/mol
Non-thermal (ZPE) correction              0.06847902 Eh      42.97 kcal/mol
-----------------------------------------------------------------------
Total correction                          0.07566884 Eh      47.48 kcal/mol


--------
ENTHALPY
--------

The enthalpy is H = U + kB*T
                kB is Boltzmann's constant
Total free energy                 ...   -321.38187527 Eh 
Thermal Enthalpy correction       ...      0.00094421 Eh       0.59 kcal/mol
-----------------------------------------------------------------------
Total Enthalpy                    ...   -321.38093106 Eh


Note: Only C1 symmetry has been detected, increase convergence thresholds 
      if your molecule has a higher symmetry. Symmetry factor of 1.0 is   
      used for the rotational entropy correction. 
 

Note: Rotational entropy computed according to Herzberg 
Infrared and Raman Spectra, Chapter V,1, Van Nostrand Reinhold, 1945 
Point Group:  C1, Symmetry Number:   1  
Rotational constants in cm-1:     0.389897     0.046465     0.042098 

Vibrational entropy computed according to the QRRHO of S. Grimme
Chem.Eur.J. 2012 18 9955


-------
ENTROPY
-------

The entropy contributions are T*S = T*(S(el)+S(vib)+S(rot)+S(trans))
     S(el)   - electronic entropy
     S(vib)  - vibrational entropy
     S(rot)  - rotational entropy
     S(trans)- translational entropy
The entropies will be listed as multiplied by the temperature to get
units of energy

Electronic entropy                ...      0.00000000 Eh      0.00 kcal/mol
Vibrational entropy               ...      0.00865149 Eh      5.43 kcal/mol
Rotational entropy                ...      0.01289980 Eh      8.09 kcal/mol
Translational entropy             ...      0.01855604 Eh     11.64 kcal/mol
-----------------------------------------------------------------------
Final entropy term                ...      0.04010734 Eh     25.17 kcal/mol

In case the symmetry of your molecule has not been determined correctly
or in case you have a reason to use a different symmetry number we print 
out the resulting rotational entropy values for sn=1,12 :
 --------------------------------------------------------
|  sn= 1 | S(rot)=       0.01289980 Eh      8.09 kcal/mol|
|  sn= 2 | S(rot)=       0.01224535 Eh      7.68 kcal/mol|
|  sn= 3 | S(rot)=       0.01186252 Eh      7.44 kcal/mol|
|  sn= 4 | S(rot)=       0.01159089 Eh      7.27 kcal/mol|
|  sn= 5 | S(rot)=       0.01138020 Eh      7.14 kcal/mol|
|  sn= 6 | S(rot)=       0.01120806 Eh      7.03 kcal/mol|
|  sn= 7 | S(rot)=       0.01106251 Eh      6.94 kcal/mol|
|  sn= 8 | S(rot)=       0.01093644 Eh      6.86 kcal/mol|
|  sn= 9 | S(rot)=       0.01082523 Eh      6.79 kcal/mol|
|  sn=10 | S(rot)=       0.01072575 Eh      6.73 kcal/mol|
|  sn=11 | S(rot)=       0.01063576 Eh      6.67 kcal/mol|
|  sn=12 | S(rot)=       0.01055360 Eh      6.62 kcal/mol|
 --------------------------------------------------------


-------------------
GIBBS FREE ENERGY
-------------------

The Gibbs free energy is G = H - T*S

Total enthalpy                    ...   -321.38093106 Eh 
Total entropy correction          ...     -0.04010734 Eh    -25.17 kcal/mol
-----------------------------------------------------------------------
Final Gibbs free energy         ...   -321.42103840 Eh

For completeness - the Gibbs free energy minus the electronic energy
G-E(el)                           ...      0.03650571 Eh     22.91 kcal/mol



Timings for individual modules:

Sum of individual times         ...      109.156 sec (=   1.819 min)
GTO integral calculation        ...        7.976 sec (=   0.133 min)   7.3 %
SCF iterations                  ...       22.387 sec (=   0.373 min)  20.5 %
SCF Gradient evaluation         ...        9.738 sec (=   0.162 min)   8.9 %
Numerical frequency calculation ...       69.056 sec (=   1.151 min)  63.3 %
                             ****ORCA TERMINATED NORMALLY****
TOTAL RUN TIME: 0 days 0 hours 1 minutes 32 seconds 559 msec
