
                                 *****************
                                 * O   R   C   A *
                                 *****************

                                            #,                                       
                                            ###                                      
                                            ####                                     
                                            #####                                    
                                            ######                                   
                                           ########,                                 
                                     ,,################,,,,,                         
                               ,,#################################,,                 
                          ,,##########################################,,             
                       ,#########################################, ''#####,          
                    ,#############################################,,   '####,        
                  ,##################################################,,,,####,       
                ,###########''''           ''''###############################       
              ,#####''   ,,,,##########,,,,          '''####'''          '####       
            ,##' ,,,,###########################,,,                        '##       
           ' ,,###''''                  '''############,,,                           
         ,,##''                                '''############,,,,        ,,,,,,###''
      ,#''                                            '''#######################'''  
     '                                                          ''''####''''         
             ,#######,   #######,   ,#######,      ##                                
            ,#'     '#,  ##    ##  ,#'     '#,    #''#        ######   ,####,        
            ##       ##  ##   ,#'  ##            #'  '#       #        #'  '#        
            ##       ##  #######   ##           ,######,      #####,   #    #        
            '#,     ,#'  ##    ##  '#,     ,#' ,#      #,         ##   #,  ,#        
             '#######'   ##     ##  '#######'  #'      '#     #####' # '####'        



                  #######################################################
                  #                        -***-                        #
                  #          Department of theory and spectroscopy      #
                  #    Directorship and core code : Frank Neese         #
                  #        Max Planck Institute fuer Kohlenforschung    #
                  #                Kaiser Wilhelm Platz 1               #
                  #                 D-45470 Muelheim/Ruhr               #
                  #                      Germany                        #
                  #                                                     #
                  #                  All rights reserved                #
                  #                        -***-                        #
                  #######################################################


                         Program Version 5.0.4 -  RELEASE  -


 With contributions from (in alphabetic order):
   Daniel Aravena         : Magnetic Suceptibility
   Michael Atanasov       : Ab Initio Ligand Field Theory (pilot matlab implementation)
   Alexander A. Auer      : GIAO ZORA, VPT2 properties, NMR spectrum
   Ute Becker             : Parallelization
   Giovanni Bistoni       : ED, misc. LED, open-shell LED, HFLD
   Martin Brehm           : Molecular dynamics
   Dmytro Bykov           : SCF Hessian
   Vijay G. Chilkuri      : MRCI spin determinant printing, contributions to CSF-ICE
   Dipayan Datta          : RHF DLPNO-CCSD density
   Achintya Kumar Dutta   : EOM-CC, STEOM-CC
   Dmitry Ganyushin       : Spin-Orbit,Spin-Spin,Magnetic field MRCI
   Miquel Garcia          : C-PCM and meta-GGA Hessian, CC/C-PCM, Gaussian charge scheme
   Yang Guo               : DLPNO-NEVPT2, F12-NEVPT2, CIM, IAO-localization
   Andreas Hansen         : Spin unrestricted coupled pair/coupled cluster methods
   Benjamin Helmich-Paris : MC-RPA, TRAH-SCF, COSX integrals
   Lee Huntington         : MR-EOM, pCC
   Robert Izsak           : Overlap fitted RIJCOSX, COSX-SCS-MP3, EOM
   Marcus Kettner         : VPT2
   Christian Kollmar      : KDIIS, OOCD, Brueckner-CCSD(T), CCSD density, CASPT2, CASPT2-K
   Simone Kossmann        : Meta GGA functionals, TD-DFT gradient, OOMP2, MP2 Hessian
   Martin Krupicka        : Initial AUTO-CI
   Lucas Lang             : DCDCAS
   Marvin Lechner         : AUTO-CI (C++ implementation), FIC-MRCC
   Dagmar Lenk            : GEPOL surface, SMD
   Dimitrios Liakos       : Extrapolation schemes; Compound Job, initial MDCI parallelization
   Dimitrios Manganas     : Further ROCIS development; embedding schemes
   Dimitrios Pantazis     : SARC Basis sets
   Anastasios Papadopoulos: AUTO-CI, single reference methods and gradients
   Taras Petrenko         : DFT Hessian,TD-DFT gradient, ASA, ECA, R-Raman, ABS, FL, XAS/XES, NRVS
   Peter Pinski           : DLPNO-MP2, DLPNO-MP2 Gradient
   Christoph Reimann      : Effective Core Potentials
   Marius Retegan         : Local ZFS, SOC
   Christoph Riplinger    : Optimizer, TS searches, QM/MM, DLPNO-CCSD(T), (RO)-DLPNO pert. Triples
   Tobias Risthaus        : Range-separated hybrids, TD-DFT gradient, RPA, STAB
   Michael Roemelt        : Original ROCIS implementation
   Masaaki Saitow         : Open-shell DLPNO-CCSD energy and density
   Barbara Sandhoefer     : DKH picture change effects
   Avijit Sen             : IP-ROCIS
   Kantharuban Sivalingam : CASSCF convergence, NEVPT2, FIC-MRCI
   Bernardo de Souza      : ESD, SOC TD-DFT
   Georgi Stoychev        : AutoAux, RI-MP2 NMR, DLPNO-MP2 response
   Willem Van den Heuvel  : Paramagnetic NMR
   Boris Wezisla          : Elementary symmetry handling
   Frank Wennmohs         : Technical directorship


 We gratefully acknowledge several colleagues who have allowed us to
 interface, adapt or use parts of their codes:
   Stefan Grimme, W. Hujo, H. Kruse, P. Pracht,  : VdW corrections, initial TS optimization,
                  C. Bannwarth, S. Ehlert          DFT functionals, gCP, sTDA/sTD-DF
   Ed Valeev, F. Pavosevic, A. Kumar             : LibInt (2-el integral package), F12 methods
   Garnet Chan, S. Sharma, J. Yang, R. Olivares  : DMRG
   Ulf Ekstrom                                   : XCFun DFT Library
   Mihaly Kallay                                 : mrcc  (arbitrary order and MRCC methods)
   Jiri Pittner, Ondrej Demel                    : Mk-CCSD
   Frank Weinhold                                : gennbo (NPA and NBO analysis)
   Christopher J. Cramer and Donald G. Truhlar   : smd solvation model
   Lars Goerigk                                  : TD-DFT with DH, B97 family of functionals
   V. Asgeirsson, H. Jonsson                     : NEB implementation
   FAccTs GmbH                                   : IRC, NEB, NEB-TS, DLPNO-Multilevel, CI-OPT
                                                   MM, QMMM, 2- and 3-layer-ONIOM, Crystal-QMMM,
                                                   LR-CPCM, SF, NACMEs, symmetry and pop. for TD-DFT,
                                                   nearIR, NL-DFT gradient (VV10), updates on ESD,
                                                   ML-optimized integration grids
   S Lehtola, MJT Oliveira, MAL Marques          : LibXC Library
   Liviu Ungur et al                             : ANISO software


 Your calculation uses the libint2 library for the computation of 2-el integrals
 For citations please refer to: http://libint.valeyev.net

 Your ORCA version has been built with support for libXC version: 5.1.0
 For citations please refer to: https://tddft.org/programs/libxc/

 This ORCA versions uses:
   CBLAS   interface :  Fast vector & matrix operations
   LAPACKE interface :  Fast linear algebra routines
   SCALAPACK package :  Parallel linear algebra routines
   Shared memory     :  Shared parallel matrices
   BLAS/LAPACK       :  OpenBLAS 0.3.15  USE64BITINT DYNAMIC_ARCH NO_AFFINITY Prescott SINGLE_THREADED
        Core in use  :  Prescott
   Copyright (c) 2011-2014, The OpenBLAS Project




***************************************
The coordinates will be read from file: start.xyz
***************************************


Your calculation utilizes the atom-pairwise dispersion correction
with the Becke-Johnson damping scheme (D3BJ)
Cite in your paper:
S.Grimme, S.Ehrlich, L.Goerigk, J Comput Chem, (2011), 32, 1456–1465 
S.Grimme, J.Antony, S.Ehrlich and H.Krieg, J.Chem.Phys., 132, (2010), 154104 
   

Your calculation utilizes a Nudged-Elastic-Band implementation
 by V.Asgeirsson, C. Riplinger & H. Jonsson
Please cite in your paper:
 V. Asgeirsson et al., in prep. (2019)
   

================================================================================

----- Orbital basis set information -----
Your calculation utilizes the basis: def2-TZVP
   F. Weigend and R. Ahlrichs, Phys. Chem. Chem. Phys. 7, 3297 (2005).

----- AuxJ basis set information -----
Your calculation utilizes the auxiliary basis: def2/J
   F. Weigend, Phys. Chem. Chem. Phys. 8, 1057 (2006).

================================================================================
                                        WARNINGS
                       Please study these warnings very carefully!
================================================================================


WARNING: Geometry Optimization
  ===> : Switching off AutoStart
         For restart on a previous wavefunction, please use MOREAD

INFO   : the flag for use of the SHARK integral package has been found!

================================================================================
                                       INPUT FILE
================================================================================
NAME = neb.inp
|  1> ! NEB-TS b3lyp D3 def2-TZVP CPCM
|  2> 
|  3> %pal
|  4> nprocs 102
|  5> end
|  6> 
|  7> %cpcm
|  8> epsilon 78.4
|  9> end
| 10> 
| 11> %neb
| 12> NEB_End_XYZFile "end.xyz"
| 13> Nimages 6
| 14> end
| 15> 
| 16> 
| 17> *XYZfile 0 1 start.xyz
| 18> 
| 19>                          ****END OF INPUT****
================================================================================


--------------------------------------------------------------------------------
                        Nudged Elastic Band Calculation
--------------------------------------------------------------------------------

Number of images (incl. end points)     ....  8
Number of intermediate images           ....  6
Number of optimized images              ....  6
Optimization of end points before NEB   ....  NO
Use existing gbw files for MO input     ....  NO
Number of atoms                         ....  27
Number of (active) degrees of freedom   ....  81
Constrained atoms                       ....  None

-----------------------------------------
  REACTANT (ANGSTROEM)
-----------------------------------------
C      2.236600    -0.643511    -0.382552 
H      2.856686    -0.875935    -1.248028 
N      1.623316    -3.014263    -0.229726 
O      2.437785    -3.825408    -0.643861 
O      0.424077    -3.082319    -0.446258 
H      1.730472    -0.791544     2.371237 
C      2.149311    -1.829601     0.569661 
H      3.144024    -2.146579     0.868457 
H      1.242905    -0.342937    -0.715872 
C      1.265740    -1.578190     1.776130 
H      0.272055    -1.247397     1.477292 
C      5.809146    -0.849351    -0.369247 
C      6.161407    -1.316190    -1.628273 
C      6.431522    -2.670242    -1.783583 
C      6.341091    -3.502703    -0.674783 
C      5.982143    -2.946607     0.545436 
N      5.719376    -1.645250     0.700301 
H      6.217724    -0.632137    -2.464206 
H      6.705716    -3.069808    -2.751571 
H      6.540545    -4.563077    -0.750502 
H      2.692832     0.189467     0.152344 
H      1.177164    -2.470780     2.396130 
H      5.894506    -3.564075     1.432149 
H      5.583897     0.198702    -0.209652 
H      4.042251    -1.284687     3.397326 
H      5.087250    -1.013200     2.289057 
O      4.735067    -0.663655     3.144625 

-----------------------------------------
  PRODUCT (ANGSTROEM)
-----------------------------------------
C      0.467560    -0.620089    -0.595703 
H      0.990469    -0.145232    -1.429878 
N      1.294302    -2.857336    -1.027899 
O      0.971460    -2.694175    -2.272179 
O      1.787007    -4.007641    -0.669651 
H      1.369022    -1.239053     1.871419 
C      1.143983    -1.879374    -0.148584 
H      3.106549    -1.325376    -0.721051 
H     -0.555785    -0.808944    -0.939899 
C      1.456918    -2.157101     1.290401 
H      0.776575    -2.900306     1.723466 
C      5.261250    -2.661492    -4.122401 
C      5.477584    -3.537602    -5.163976 
C      4.796661    -4.751883    -5.172191 
C      3.915926    -5.058165    -4.141164 
C      3.729341    -4.147599    -3.119336 
N      4.404413    -2.988241    -3.143167 
H      6.167238    -3.270656    -5.950820 
H      4.952565    -5.453857    -5.980658 
H      3.376113    -5.994213    -4.124215 
H      0.426058     0.091209     0.228634 
H      2.468131    -2.550643     1.421094 
H      3.046837    -4.284746    -2.284152 
H      5.745707    -1.699513    -4.039240 
H      4.608526    -1.301108    -0.360063 
H      4.254751    -2.313130    -2.363024 
O      3.996730    -1.173577    -1.097695 



----------------------
NEB settings
----------------------
Method type                             ....  climbing image
Threshold for climbing image            ....  2.00e-02 Eh/Bohr 
Free endpoints                          ....  off 
Tangent type                            ....  improved 
Number of intermediate images           ....  6 
Number of images free to move           ....  6 
Spring type for image distribution      ....  distance between adjacent images 
Spring constant                         ....  energy weighted (0.0100 -to- 0.1000) Eh/Bohr^2 
Spring force perp. to the path          ....  none 
Generation of initial path              ....  image dependent pair potential 
Initial path via TS guess               ....  off 

Minimization of RMSD: Rotation          ....  always 
Minimization of RMSD: Translation type  ....  centroid 
Center fixed to origin                  ....  true 
Remove external force                   ....  true 

Reparametrization of the path           ....  off 
Convergence thresholds:
Convergence monitored for               ....  all images
Scaling factor                          ....  10.00

Convergence parameters for regular images:
               Max(|Fp|)                ....  2.00e-02 Eh/Bohr
               RMS(Fp)                  ....  1.00e-02 Eh/Bohr

Convergence parameters for climbing image:
               Max(|F|)                 ....  2.00e-03 Eh/Bohr
               RMS(F)                   ....  1.00e-03 Eh/Bohr
Optimization method:
Method                                  ....  L-BFGS
Max. iterations                         ....  500 
Step size                               ....  1.00 
Maximum allowed step size               ....  0.10 Bohr

LBFGS parameters: 
               Memory                   ....  20 
               Initial step size        ....  0.0010 
               Estimate curvature       ....  YES 
               Reset on maxmove         ....  YES 
               Reparam. on reset        ....  NO 
Generation of  the initial path:
Minimize RMSD between reactant and product configurations     .... done
       RMSD before minimization         ....  3.6937 Bohr
       RMSD after minimization          ....  1.7448 Bohr
Performing linear interpolation         ....  done
Interpolation using                     ....  IDPP (Image Dependent Pair Potential)
IDPP-Settings:
       Remove global transl. and rot.   ...   true
       Convergence tolerance            ....  0.0100 1/Ang.^3
       Max. numer of iterations         ....    7000
       Spring constant                  ....  1.0000 1/Ang.^4
       Time step                        ....  0.0100 fs
       Max. movement per iteration      ....  0.0500 Ang.
       Full print                       ....  false 
idpp initial path generation successfully converged in 88 iterations
Displacement along initial path:             16.3972 Bohr
Writing initial trajectory to file      ....  neb_initial_path_trj.xyz



----------------------
NEB OPTIMIZATION      
----------------------

Following output files will be written:
Energy profile during opt. written to    ....  neb.interp
Optimization log-file                    ....  neb.NEB.log
Current trajectory will be written to    ....  neb_MEP_trj.xyz
       and to allxyz file                ....  neb_MEP.allxyz
       and individual images to xyz file ....  neb_im{NIm}.xyz
Trajectory history will be written to    ....  neb_MEP_ALL_trj.xyz
Converged CI will be written to          ....  neb_NEB-CI_converged.xyz
Converged TS will be written to          ....  neb_NEB-TS_converged.xyz

Single point energy and gradient calculation of reactant and
product configurations (have to be performed only once)
Properties of fixed NEB end points:
               Reactant:
                         E               ....   -648.335375 Eh
                         RMS(F)          ....      0.000058 Eh/Bohr
                         MAX(|F|)        ....      0.000251 Eh/Bohr
               Product:
                         E               ....   -648.309873 Eh
                         RMS(F)          ....      0.000274 Eh/Bohr
                         MAX(|F|)        ....      0.000910 Eh/Bohr



Starting iterations:

Optim.  Iteration  HEI  E(HEI)-E(0)  max(|Fp|)   RMS(Fp)    dS
Switch-on CI threshold               0.020000 
   LBFGS     0      4    0.123771    0.123582   0.016619  16.3972       
   LBFGS     1      4    0.099015    0.101749   0.012308  16.3940       
   LBFGS     2      5    0.088539    0.075317   0.009793  16.4169       
   LBFGS     3      5    0.079222    0.062689   0.007460  16.4645       
   LBFGS     4      5    0.071066    0.054836   0.005586  16.5311       
   LBFGS     5      5    0.063685    0.039145   0.004455  16.5887       
   LBFGS     6      5    0.057926    0.028055   0.003487  16.6715       
   LBFGS     7      5    0.053955    0.029385   0.003319  16.7280       
   LBFGS     8      5    0.049986    0.024767   0.003157  16.8234       
   LBFGS     9      5    0.047487    0.040953   0.005039  16.9074       
   LBFGS    10      5    0.044807    0.034115   0.004531  17.0438       
   LBFGS    11      5    0.044446    0.016156   0.002759  17.0840       

Image  5 will be converted to a climbing image in the next iteration (max(|Fp|) < 0.0200) 

Optim.  Iteration  CI   E(CI)-E(0)   max(|Fp|)   RMS(Fp)    dS     max(|FCI|)   RMS(FCI)
Convergence thresholds               0.020000   0.010000            0.002000    0.001000 
   LBFGS    12      5    0.044403    0.014706   0.002154  17.0880    0.025215    0.004286       
   LBFGS    13      5    0.043374    0.023670   0.002843  17.1576    0.023847    0.004349       
   LBFGS    14      5    0.043016    0.031781   0.003907  17.2942    0.020351    0.004726       
   LBFGS    15      5    0.043015    0.011043   0.001763  17.3288    0.019225    0.003556       
   LBFGS    16      5    0.043226    0.008551   0.001423  17.3410    0.018353    0.003354       
   LBFGS    17      5    0.044585    0.007504   0.001320  17.4673    0.007912    0.002297       
   LBFGS    18      5    0.044535    0.029717   0.003995  17.5341    0.010131    0.002958       
   LBFGS    19      5    0.043969    0.025622   0.003696  17.6075    0.010120    0.002718       
   LBFGS    20      5    0.041607    0.016381   0.002065  17.7780    0.012263    0.002829       
   LBFGS    21      5    0.041481    0.015380   0.001825  17.7941    0.011862    0.002559       
   LBFGS    22      5    0.041427    0.017376   0.002083  17.8159    0.011365    0.002458       
   LBFGS    23      5    0.041700    0.021777   0.002987  17.9464    0.008596    0.002429       
   LBFGS    24      5    0.041729    0.027878   0.003505  17.9615    0.007044    0.002536       
   LBFGS    25      5    0.041585    0.005473   0.000859  17.9476    0.006541    0.001259       
   LBFGS    26      5    0.041594    0.006035   0.000936  17.9193    0.005534    0.001154       
   LBFGS    27      5    0.041721    0.021446   0.002796  17.8405    0.006137    0.002142       
   LBFGS    28      5    0.042044    0.040847   0.005493  17.7652    0.012636    0.004370       
   LBFGS    29      5    0.041600    0.031869   0.003985  17.9260    0.009946    0.003327       
   LBFGS    30      5    0.041229    0.012404   0.001151  17.9080    0.005679    0.001177       
   LBFGS    31      5    0.041167    0.008673   0.001162  17.8768    0.005647    0.001349       
   LBFGS    32      5    0.041044    0.012791   0.001753  17.7860    0.005371    0.001516       
   LBFGS    33      5    0.041034    0.007617   0.000696  17.8381    0.005355    0.001000       
   LBFGS    34      5    0.041013    0.005634   0.000523  17.8382    0.005154    0.000941       
   LBFGS    35      5    0.041038    0.004096   0.000739  17.8193    0.003377    0.000918       
   LBFGS    36      5    0.041444    0.009789   0.001371  17.8232    0.005230    0.001300       
   LBFGS    37      5    0.041327    0.012098   0.001339  17.8293    0.004623    0.001279       
   LBFGS    38      5    0.041217    0.006923   0.000866  17.8320    0.004260    0.001023       
   LBFGS    39      5    0.040664    0.009539   0.001301  17.8666    0.006143    0.001508       
   LBFGS    40      5    0.040580    0.020662   0.002749  17.9707    0.011973    0.002981       
   LBFGS    41      5    0.040656    0.037084   0.003855  18.0230    0.008113    0.003092       
   LBFGS    42      5    0.040483    0.009543   0.001055  18.0111    0.007652    0.001564       
   LBFGS    43      5    0.040553    0.007011   0.001001  17.9929    0.006736    0.001343       
   LBFGS    44      5    0.040693    0.008733   0.001152  17.9746    0.004588    0.001069       
   LBFGS    45      5    0.040799    0.011408   0.001441  17.9662    0.003002    0.001125       
   LBFGS    46      5    0.040206    0.021863   0.002187  18.0400    0.010336    0.002655       
   LBFGS    47      5    0.040206    0.021863   0.002187  18.0400    0.010334    0.002655       
   LBFGS    48      5    0.039976    0.029861   0.002480  18.1200    0.010077    0.002396       
   LBFGS    49      5    0.039961    0.020036   0.001681  18.0904    0.009396    0.001908       
   LBFGS    50      5    0.040247    0.023601   0.002770  18.0117    0.008717    0.002770       
   LBFGS    51      5    0.040293    0.018258   0.002203  17.9609    0.006901    0.002008       
   LBFGS    52      5    0.040422    0.015010   0.001353  17.9500    0.005104    0.001258       
   LBFGS    53      5    0.040556    0.010337   0.001122  17.9430    0.003528    0.001167       
   LBFGS    54      5    0.040634    0.005602   0.000662  17.9576    0.002099    0.000665       
   LBFGS    55      5    0.040567    0.008637   0.000900  18.0082    0.004430    0.001081       
   LBFGS    56      5    0.039906    0.017350   0.001618  18.1315    0.011353    0.002266       
   LBFGS    57      5    0.038613    0.027134   0.002510  18.3422    0.016121    0.003383       
   LBFGS    58      5    0.039227    0.053429   0.004094  18.2914    0.015775    0.003970       
   LBFGS    59      5    0.039165    0.014419   0.001590  18.2775    0.015030    0.002594       
   LBFGS    60      5    0.039620    0.009111   0.001129  18.2371    0.012649    0.001969       
   LBFGS    61      5    0.040198    0.024034   0.001881  18.1845    0.007741    0.001610       
   LBFGS    62      5    0.040505    0.015707   0.001808  18.1481    0.005590    0.001925       
   LBFGS    63      5    0.040388    0.017493   0.002572  18.1455    0.010751    0.003679       
   LBFGS    64      5    0.040139    0.008139   0.000783  18.1354    0.005577    0.001080       
   LBFGS    65      5    0.040215    0.006364   0.000542  18.1364    0.003366    0.000708       
   LBFGS    66      5    0.040220    0.003333   0.000457  18.1480    0.002188    0.000690       
   LBFGS    67      5    0.040261    0.009652   0.001011  18.1879    0.003583    0.001141       
   LBFGS    68      5    0.040371    0.007122   0.000832  18.2600    0.002894    0.001080       
   LBFGS    69      5    0.040618    0.007125   0.001050  18.3807    0.004027    0.001461       
   LBFGS    70      5    0.040514    0.014812   0.002169  18.5354    0.007650    0.002207       
   LBFGS    71      5    0.040163    0.008636   0.001429  18.5508    0.007642    0.001976       
   LBFGS    72      5    0.040279    0.016161   0.001595  18.4750    0.005630    0.001490       
   LBFGS    73      5    0.040171    0.017011   0.001475  18.4542    0.004851    0.001032       
   LBFGS    74      5    0.040148    0.010850   0.000948  18.4424    0.004556    0.001017       
   LBFGS    75      5    0.040118    0.010956   0.000886  18.4412    0.003267    0.000926       
   LBFGS    76      5    0.040077    0.010093   0.000712  18.4490    0.001747    0.000389       

                                .--------------------.
          ----------------------| CI-NEB convergence |-------------------------
          Item                value                   Tolerance       Converged
          ---------------------------------------------------------------------
          RMS(Fp)             0.0007122592            0.0100000000      YES
          MAX(|Fp|)           0.0100934439            0.0200000000      YES
          RMS(FCI)            0.0003889545            0.0010000000      YES
          MAX(|FCI|)          0.0017466804            0.0020000000      YES
          ---------------------------------------------------------------------

The elastic band and climbing image have converged successfully to a MEP in 76 iterations!


                    *********************H U R R A Y*********************
                    ***        THE NEB OPTIMIZATION HAS CONVERGED     ***
                    *****************************************************



---------------------------------------------------------------
                         PATH SUMMARY              
---------------------------------------------------------------
All forces in Eh/Bohr.

Image Dist.(Ang.)    E(Eh)   dE(kcal/mol)  max(|Fp|)  RMS(Fp)
  0     0.000    -648.33538      0.00       0.00025   0.00006
  1     2.051    -648.33427      0.69       0.00074   0.00018
  2     4.225    -648.33284      1.59       0.00110   0.00029
  3     6.548    -648.32846      4.34       0.01009   0.00156
  4     7.152    -648.30502     19.05       0.00259   0.00091
  5     7.390    -648.29530     25.15       0.00185   0.00038 <= CI
  6     7.845    -648.30754     17.47       0.00130   0.00043
  7     9.763    -648.30987     16.00       0.00090   0.00027

Straight line distance between images along the path:
        D( 0- 1) =   2.0506 Ang.
        D( 1- 2) =   2.1739 Ang.
        D( 2- 3) =   2.3237 Ang.
        D( 3- 4) =   0.6038 Ang.
        D( 4- 5) =   0.2378 Ang.
        D( 5- 6) =   0.4548 Ang.
        D( 6- 7) =   1.9181 Ang.

---------------------------------------------------------------
               INFORMATION ABOUT SADDLE POINT     
---------------------------------------------------------------

Climbing image                            ....  5 
Energy                                    ....  -648.29529771 Eh
Max. abs. force                           ....  1.7467e-03 Eh/Bohr

-----------------------------------------
  SADDLE POINT (ANGSTROEM)
-----------------------------------------
C     -2.727777     1.503388    -0.189186 
H     -1.985026     1.929659    -0.862955 
N     -1.772195    -0.749125    -0.141204 
O     -1.481760    -0.596014    -1.347965 
O     -1.630143    -1.866916     0.406925 
H     -3.186085     0.911993     2.418065 
C     -2.161772     0.362923     0.631794 
H     -0.936983     0.800334     1.058213 
H     -3.585848     1.188572    -0.792649 
C     -2.907267    -0.004844     1.897962 
H     -3.822450    -0.569286     1.688922 
C      2.815760     0.728829    -0.670814 
C      3.615418     0.119814    -1.618310 
C      3.393174    -1.219252    -1.922503 
C      2.384248    -1.914117    -1.264577 
C      1.618360    -1.248040    -0.327687 
N      1.845415     0.042003    -0.056573 
H      4.391936     0.687331    -2.111886 
H      3.998477    -1.715695    -2.669298 
H      2.184899    -2.954616    -1.478804 
H     -3.060037     2.291331     0.487166 
H     -2.292960    -0.600137     2.572437 
H      0.804971    -1.716928     0.209430 
H      2.924795     1.766681    -0.388245 
H      0.242874     1.007731     2.371760 
H      1.153628     0.568424     0.663073 
O      0.176348     1.245958     1.436908 

-----------------------------------------
  FORCES (Eh/Bohr)
-----------------------------------------
C     -0.000140     0.000016    -0.000020 
H     -0.000065    -0.000283    -0.000254 
N     -0.000026     0.000119     0.000416 
O      0.000147    -0.000156    -0.000092 
O      0.000303     0.000171    -0.000114 
H      0.000072     0.000075     0.000045 
C      0.000622     0.000523     0.000376 
H     -0.000609    -0.000260    -0.000610 
H     -0.000386     0.000088     0.000089 
C     -0.000134    -0.000039    -0.000011 
H     -0.000308     0.000116     0.000021 
C      0.000352     0.000438    -0.000318 
C      0.000550     0.000220    -0.000337 
C     -0.000331    -0.000061     0.000398 
C      0.000428    -0.000334    -0.000450 
C     -0.000633    -0.001128    -0.000023 
N     -0.000326     0.000647     0.000172 
H     -0.000280    -0.000171     0.000352 
H      0.000218    -0.000064     0.000145 
H      0.000094     0.000320     0.000159 
H      0.000224     0.000076     0.000055 
H     -0.000119    -0.000299    -0.000131 
H      0.000122     0.000290    -0.000278 
H     -0.000296    -0.000092    -0.000020 
H      0.000207     0.000201    -0.001239 
H     -0.000127    -0.000091    -0.000231 
O      0.000478    -0.000206     0.001747 

-----------------------------------------
  UNIT TANGENT
-----------------------------------------
C     -0.049838    -0.015191    -0.032710 
H      0.041777    -0.044672     0.055723 
N     -0.044130     0.066330     0.042076 
O      0.064958     0.030861    -0.024787 
O      0.100900    -0.008805     0.055265 
H     -0.031493    -0.009198    -0.036018 
C     -0.326584    -0.185159    -0.161616 
H      0.520943     0.241603     0.273164 
H     -0.021179     0.134586    -0.149651 
C     -0.044618    -0.031657    -0.005149 
H     -0.045385    -0.095590     0.176654 
C      0.025966     0.010756    -0.011454 
C      0.013687    -0.007693    -0.007031 
C     -0.001289    -0.009497    -0.001378 
C     -0.009464     0.001363    -0.010448 
C     -0.025315    -0.006983    -0.014396 
N      0.019030    -0.003066    -0.024357 
H      0.020199    -0.018340    -0.009146 
H     -0.003483    -0.015957    -0.002649 
H     -0.016223     0.000743    -0.011977 
H     -0.042772    -0.036292    -0.003109 
H      0.055382     0.029511    -0.048389 
H     -0.054116     0.030852    -0.032172 
H      0.025858     0.002709     0.000077 
H     -0.128242     0.059025     0.111320 
H      0.249795    -0.170152    -0.238668 
O     -0.294361     0.049915     0.110827 
 => Unit tangent is an approximation to the TS mode at the saddle point

Next a TS optimization is performed on the CI from the NEB run.

         *************************************************************
         *                       TS OPTIMIZATION                     *
         *************************************************************


Following output files will be written:
Converged TS will be written to          ....  neb_NEB-TS_converged.xyz
                                         ....  neb.xyz
Current trajectory will be written to    ....  neb_trj.xyz
Initial Hessian will be stored in        ....  neb.appr.hess
Geometry optimization settings:
Update method            Update   .... Bofill
Choice of coordinates    CoordSys .... Z-matrix Internals
Initial Hessian          InHess   .... Read

Convergence Tolerances:
Energy Change            TolE     ....  5.0000e-06 Eh
Max. Gradient            TolMAXG  ....  3.0000e-04 Eh/bohr
RMS Gradient             TolRMSG  ....  1.0000e-04 Eh/bohr
Max. Displacement        TolMAXD  ....  4.0000e-03 bohr
RMS Displacement         TolRMSD  ....  2.0000e-03 bohr
Strict Convergence                ....  False
------------------------------------------------------------------------------
                        ORCA OPTIMIZATION COORDINATE SETUP
------------------------------------------------------------------------------

The optimization will be done in new redundant internal coordinates
Making redundant internal coordinates   ...  (new redundants) done
Following TS mode number                ...     0
TS-active-atoms for coordinate setup... 6 7 25 26 
Evaluating the initial hessian          ... (Reading Exact Hessian)...  
InHessName: neb.appr.hess	The file <neb.appr.hess> is opened as a .hess file
done
done
Diagonalizing the Hessian               .... done
Dimension of the hessian                .... 132
Lowest eigenvalues of the non projected Hessian:
 -0.010054727 -0.000000000 -0.000000000 -0.000000000 -0.000000000
done
Evaluating the coordinates              ...  done
Calculating the B-matrix                .... done
Calculating the G-matrix                .... done
Diagonalizing the G-matrix              .... done
Small eigenvalue found = 4.171e-03
Small eigenvalue found = 9.403e-03
Small eigenvalue found = 1.491e-02
The first mode is                       ....   57
The number of degrees of freedom        ....   75

    -----------------------------------------------------------------
                    Redundant Internal Coordinates


    -----------------------------------------------------------------
         Definition                    Initial Value    d2E/dq (diagonal element)
    -----------------------------------------------------------------
      1. B(H   1,C   0)                  1.0897         0.360720   
      2. B(O   3,N   2)                  1.2506         0.572682   
      3. B(O   4,N   2)                  1.2530         0.567783   
      4. B(C   6,O   4)                  2.3033         0.115733   
      5. B(C   6,N   2)                  1.4092         0.262509   
      6. B(C   6,C   0)                  1.5149         0.405827   
      7. B(C   6,O   3)                  2.3025         0.116328   
      8. B(H   7,C   6)                  1.3687         0.089320   
      9. B(H   8,C   0)                  1.0952         0.354787   
     10. B(C   9,C   6)                  1.5147         0.407091   
     11. B(C   9,H   5)                  1.0903         0.359781   
     12. B(H  10,C   9)                  1.0954         0.354286   
     13. B(C  12,C  11)                  1.3813         0.596419   
     14. B(C  13,C  12)                  1.3911         0.574429   
     15. B(C  14,C  13)                  1.3906         0.575312   
     16. B(C  15,C  14)                  1.3813         0.594223   
     17. B(N  16,C  11)                  1.3381         0.623911   
     18. B(N  16,C  15)                  1.3376         0.623281   
     19. B(H  17,C  12)                  1.0811         0.372167   
     20. B(H  18,C  13)                  1.0819         0.370957   
     21. B(H  19,C  14)                  1.0809         0.372389   
     22. B(H  20,C   0)                  1.0903         0.359839   
     23. B(H  21,C   9)                  1.0893         0.361024   
     24. B(H  22,C  15)                  1.0816         0.371409   
     25. B(H  23,C  11)                  1.0811         0.372039   
     26. B(H  25,N  16)                  1.1285         0.299514   
     27. B(O  26,H  25)                  1.4188         0.123654   
     28. B(O  26,H  24)                  0.9670         0.508845   
     29. B(O  26,H   7)                  1.2576         0.129292   
     30. A(C   6,C   0,H  20)          108.7679         0.222008   
     31. A(H   1,C   0,H   8)          107.8054         0.123375   
     32. A(C   6,C   0,H   8)          112.0190         0.263734   
     33. A(H   1,C   0,C   6)          112.0192         0.237795   
     34. A(H   1,C   0,H  20)          107.9743         0.114552   
     35. A(H   8,C   0,H  20)          108.1062         0.115947   
     36. A(O   4,N   2,C   6)          119.6921         0.168150   
     37. A(O   3,N   2,C   6)          119.7934         0.168626   
     38. A(O   3,N   2,O   4)          120.3304         0.261262   
     39. A(N   2,C   6,H   7)          100.1196         0.044237   
     40. A(C   0,C   6,H   7)          105.2237         0.045947   
     41. A(H   7,C   6,C   9)          104.9276         0.043405   
     42. A(N   2,C   6,C   9)          113.7656         0.070848   
     43. A(C   0,C   6,N   2)          113.5834         0.068365   
     44. A(C   0,C   6,C   9)          116.8666         0.076753   
     45. L(C   6,H   7,O  26,C   0, 1) 177.9061         0.343539   
     46. L(C   6,H   7,O  26,C   0, 2) 179.2459         0.243431   
     47. A(C   6,C   9,H  10)          112.1359         0.266963   
     48. A(H   5,C   9,H  10)          108.1002         0.115924   
     49. A(H   5,C   9,C   6)          108.6899         0.222503   
     50. A(H   5,C   9,H  21)          107.9612         0.113911   
     51. A(H  10,C   9,H  21)          107.9220         0.123841   
     52. A(C   6,C   9,H  21)          111.8828         0.237984   
     53. A(C  12,C  11,N  16)          120.5542         0.162762   
     54. A(N  16,C  11,H  23)          116.4797         0.220119   
     55. A(C  12,C  11,H  23)          122.9649         0.219349   
     56. A(C  13,C  12,H  17)          121.3502         0.218351   
     57. A(C  11,C  12,H  17)          119.8377         0.218483   
     58. A(C  11,C  12,C  13)          118.8108         0.160150   
     59. A(C  14,C  13,H  18)          120.2134         0.217594   
     60. A(C  12,C  13,H  18)          120.2162         0.217574   
     61. A(C  12,C  13,C  14)          119.5698         0.159988   
     62. A(C  15,C  14,H  19)          119.7600         0.218344   
     63. A(C  13,C  14,H  19)          121.4050         0.217993   
     64. A(C  13,C  14,C  15)          118.8324         0.160197   
     65. A(C  14,C  15,N  16)          120.5577         0.164305   
     66. A(N  16,C  15,H  22)          116.4279         0.220379   
     67. A(C  14,C  15,H  22)          123.0061         0.219313   
     68. A(C  11,N  16,C  15)          121.6725         0.163652   
     69. A(C  15,N  16,H  25)          118.3635         0.237082   
     70. A(C  11,N  16,H  25)          119.8550         0.245490   
     71. A(N  16,H  25,O  26)          173.1243         0.275557   
     72. A(H  24,O  26,H  25)          111.2382         0.147242   
     73. A(H   7,O  26,H  25)          106.0422         0.402527   
     74. A(H   7,O  26,H  24)          105.3505         0.133031   
     75. D(C   9,C   6,C   0,H  20)     40.8923         0.024987   
     76. D(H   7,C   6,C   0,H   8)    165.5334         0.033202   
     77. D(C   0,C   6,N   2,O   4)   -161.0075         0.022586   
     78. D(C   9,C   6,C   0,H   1)    160.1662         0.025685   
     79. D(H   7,C   6,N   2,O   3)    -87.7448         0.021720   
     80. D(C   9,C   6,N   2,O   4)    -24.0362         0.019408   
     81. D(N   2,C   6,C   0,H  20)    176.4600         0.028430   
     82. D(N   2,C   6,C   0,H   8)     57.0223         0.025796   
     83. D(H   7,C   6,C   0,H   1)     44.2450         0.033924   
     84. D(H   7,C   6,C   0,H  20)    -75.0289         0.029015   
     85. D(C   9,C   6,N   2,O   3)    160.8781         0.021541   
     86. D(N   2,C   6,C   0,H   1)    -64.2661         0.025537   
     87. D(H   7,C   6,N   2,O   4)     87.3409         0.024612   
     88. D(C   9,C   6,C   0,H   8)    -78.5454         0.025230   
     89. D(C   0,C   6,N   2,O   3)     23.9067         0.019097   
     90. D(H  21,C   9,C   6,H   7)    -46.3494         0.035503   
     91. D(H  21,C   9,C   6,C   0)   -162.4341         0.025056   
     92. D(H  10,C   9,C   6,H   7)   -167.7749         0.034428   
     93. D(H  10,C   9,C   6,N   2)    -59.3490         0.025553   
     94. D(H  10,C   9,C   6,C   0)     76.1404         0.024666   
     95. D(H   5,C   9,C   6,H   7)     72.7738         0.029443   
     96. D(H  21,C   9,C   6,N   2)     62.0766         0.025318   
     97. D(H   5,C   9,C   6,N   2)   -178.8002         0.028249   
     98. D(H   5,C   9,C   6,C   0)    -43.3109         0.025508   
     99. D(H  17,C  12,C  11,H  23)      0.0338         0.013740   
    100. D(H  17,C  12,C  11,N  16)    179.6172         0.010699   
    101. D(C  13,C  12,C  11,H  23)   -179.5481         0.011891   
    102. D(C  13,C  12,C  11,N  16)      0.0352         0.010487   
    103. D(H  18,C  13,C  12,C  11)    179.2867         0.009999   
    104. D(C  14,C  13,C  12,H  17)    179.9820         0.010322   
    105. D(C  14,C  13,C  12,C  11)     -0.4426         0.009288   
    106. D(H  18,C  13,C  12,H  17)     -0.2887         0.012292   
    107. D(H  19,C  14,C  13,H  18)      0.1738         0.012372   
    108. D(H  19,C  14,C  13,C  12)    179.9030         0.010545   
    109. D(C  15,C  14,C  13,H  18)   -179.2399         0.009959   
    110. D(C  15,C  14,C  13,C  12)      0.4894         0.009412   
    111. D(H  22,C  15,C  14,H  19)     -0.6335         0.013959   
    112. D(H  22,C  15,C  14,C  13)    178.7901         0.012192   
    113. D(N  16,C  15,C  14,H  19)   -179.5545         0.010769   
    114. D(N  16,C  15,C  14,C  13)     -0.1310         0.010342   
    115. D(H  25,N  16,C  15,H  22)     -3.0767         0.015426   
    116. D(C  11,N  16,C  15,H  22)   -179.2759         0.012736   
    117. D(C  11,N  16,C  15,C  14)     -0.2863         0.011645   
    118. D(H  25,N  16,C  11,H  23)      3.8010         0.016192   
    119. D(H  25,N  16,C  11,C  12)   -175.8085         0.013255   
    120. D(H  25,N  16,C  15,C  14)    175.9129         0.013059   
    121. D(C  15,N  16,C  11,H  23)    179.9446         0.011920   
    122. D(C  15,N  16,C  11,C  12)      0.3352         0.011937   
    123. D(O  26,H  25,N  16,C  15)    -80.4553         0.058142   
    124. D(O  26,H  25,N  16,C  11)     95.8152         0.051651   
    125. D(H  24,O  26,H  25,N  16)    153.3671         0.030866   
    126. D(H   7,O  26,H  25,N  16)     39.3336         0.098239   
    127. D(H  25,O  26,C   6,C   9)    130.7737         0.036609   
    128. D(H  25,O  26,C   6,N   2)     12.2554         0.028732   
    129. D(H  25,O  26,C   6,C   0)   -105.6836         0.027797   
    130. D(H  24,O  26,C   6,C   9)     12.2009         0.029064   
    131. D(H  24,O  26,C   6,N   2)   -106.3175         0.030750   
    132. D(H  24,O  26,C   6,C   0)    135.7435         0.031878   
    -----------------------------------------------------------------

Number of atoms                         .... 27
Number of degrees of freedom            .... 132

         *************************************************************
         *                GEOMETRY OPTIMIZATION CYCLE   1            *
         *************************************************************


           ************************************************************
           *        Program running with 102 parallel MPI-processes   *
           *              working on a common directory               *
           ************************************************************
------------------------------------------------------------------------------
                           ORCA GTO INTEGRAL CALCULATION
                           -- RI-GTO INTEGRALS CHOSEN --
------------------------------------------------------------------------------
------------------------------------------------------------------------------
                   ___                                                        
                  /   \      - P O W E R E D   B Y -                         
                 /     \                                                     
                 |  |  |   _    _      __       _____    __    __             
                 |  |  |  | |  | |    /  \     |  _  \  |  |  /  |          
                  \  \/   | |  | |   /    \    | | | |  |  | /  /          
                 / \  \   | |__| |  /  /\  \   | |_| |  |  |/  /          
                |  |  |   |  __  | /  /__\  \  |    /   |      \           
                |  |  |   | |  | | |   __   |  |    \   |  |\   \          
                \     /   | |  | | |  |  |  |  | |\  \  |  | \   \       
                 \___/    |_|  |_| |__|  |__|  |_| \__\ |__|  \__/        
                                                                              
                      - O R C A' S   B I G   F R I E N D -                    
                                      &                                       
                       - I N T E G R A L  F E E D E R -                       
                                                                              
 v1 FN, 2020, v2 2021                                                         
------------------------------------------------------------------------------


Reading SHARK input file neb.SHARKINP.tmp ... ok
----------------------
SHARK INTEGRAL PACKAGE
----------------------

Number of atoms                             ...     27
Number of basis functions                   ...    487
Number of shells                            ...    199
Maximum angular momentum                    ...      3
Integral batch strategy                     ... SHARK/LIBINT Hybrid
RI-J (if used) integral strategy            ... SPLIT-RIJ (Revised 2003 algorithm where possible)
Printlevel                                  ...      1
Contraction scheme used                     ... SEGMENTED contraction
Coulomb Range Separation                    ... NOT USED
Exchange Range Separation                   ... NOT USED
Finite Nucleus Model                        ... NOT USED
Auxiliary Coulomb fitting basis             ... AVAILABLE
   # of basis functions in Aux-J            ...    791
   # of shells in Aux-J                     ...    265
   Maximum angular momentum in Aux-J        ...      4
Auxiliary J/K fitting basis                 ... NOT available
Auxiliary Correlation fitting basis         ... NOT available
Auxiliary 'external' fitting basis          ... NOT available
Integral threshold                          ...     2.500000e-11
Primitive cut-off                           ...     2.500000e-12
Primitive pair pre-selection threshold      ...     2.500000e-12

Calculating pre-screening integrals         ... done (  0.1 sec) Dimension = 199
Organizing shell pair data                  ... done (  0.4 sec)
Shell pair information
Total number of shell pairs                 ...     19900
Shell pairs after pre-screening             ...     15713
Total number of primitive shell pairs       ...     59668
Primitive shell pairs kept                  ...     32759
          la=0 lb=0:   4461 shell pairs
          la=1 lb=0:   4584 shell pairs
          la=1 lb=1:   1216 shell pairs
          la=2 lb=0:   2151 shell pairs
          la=2 lb=1:   1134 shell pairs
          la=2 lb=2:    283 shell pairs
          la=3 lb=0:   1021 shell pairs
          la=3 lb=1:    542 shell pairs
          la=3 lb=2:    257 shell pairs
          la=3 lb=3:     64 shell pairs

Calculating one electron integrals          ... done (  0.1 sec)
Calculating RI/J V-Matrix + Cholesky decomp.... done (  0.1 sec)
Calculating Nuclear repulsion               ... done (  0.0 sec) ENN=    819.427211893872 Eh

SHARK setup successfully completed in   1.0 seconds

Maximum memory used throughout the entire GTOINT-calculation: 27.9 MB


           ************************************************************
           *        Program running with 102 parallel MPI-processes   *
           *              working on a common directory               *
           ************************************************************
-------------------------------------------------------------------------------
                                 ORCA SCF
-------------------------------------------------------------------------------

------------
SCF SETTINGS
------------
Hamiltonian:
 Density Functional     Method          .... DFT(GTOs)
 Exchange Functional    Exchange        .... B88
   X-Alpha parameter    XAlpha          ....  0.666667
   Becke's b parameter  XBeta           ....  0.004200
 Correlation Functional Correlation     .... LYP
 LDA part of GGA corr.  LDAOpt          .... VWN-5
 Gradients option       PostSCFGGA      .... off
 Hybrid DFT is turned on
   Fraction HF Exchange ScalHFX         ....  0.200000
   Scaling of DF-GGA-X  ScalDFX         ....  0.720000
   Scaling of DF-GGA-C  ScalDFC         ....  0.810000
   Scaling of DF-LDA-C  ScalLDAC        ....  1.000000
   Perturbative correction              ....  0.000000
   Density functional embedding theory  .... OFF
   NL short-range parameter             ....  4.800000
 RI-approximation to the Coulomb term is turned on
   Number of AuxJ basis functions       .... 791
   RIJ-COSX (HFX calculated with COS-X)).... on


General Settings:
 Integral files         IntName         .... neb
 Hartree-Fock type      HFTyp           .... RHF
 Total Charge           Charge          ....    0
 Multiplicity           Mult            ....    1
 Number of Electrons    NEL             ....  100
 Basis Dimension        Dim             ....  487
 Nuclear Repulsion      ENuc            ....    819.4272118939 Eh

Convergence Acceleration:
 DIIS                   CNVDIIS         .... on
   Start iteration      DIISMaxIt       ....    12
   Startup error        DIISStart       ....  0.200000
   # of expansion vecs  DIISMaxEq       ....     5
   Bias factor          DIISBfac        ....   1.050
   Max. coefficient     DIISMaxC        ....  10.000
 Trust-Rad. Augm. Hess. CNVTRAH         .... auto
   Auto Start mean grad. ratio tolernc. ....  1.125000
   Auto Start start iteration           ....     1
   Auto Start num. interpolation iter.  ....    10
   Max. Number of Micro iterations      ....    16
   Max. Number of Macro iterations      .... Maxiter - #DIIS iter
   Number of Davidson start vectors     ....     2
   Converg. threshold I  (grad. norm)   ....   1.000e-05
   Converg. threshold II (energy diff.) ....   1.000e-08
   Grad. Scal. Fac. for Micro threshold ....   0.100
   Minimum threshold for Micro iter.    ....   0.010
   NR start threshold (gradient norm)   ....   0.001
   Initial trust radius                 ....   0.400
   Minimum AH scaling param. (alpha)    ....   1.000
   Maximum AH scaling param. (alpha)    .... 1000.000
   Orbital update algorithm             .... Taylor
   White noise on init. David. guess    .... on
   Maximum white noise                  ....   0.010
   Quad. conv. algorithm                .... NR
 SOSCF                  CNVSOSCF        .... on
   Start iteration      SOSCFMaxIt      ....   150
   Startup grad/error   SOSCFStart      ....  0.003300
 Level Shifting         CNVShift        .... on
   Level shift para.    LevelShift      ....    0.2500
   Turn off err/grad.   ShiftErr        ....    0.0010
 Zerner damping         CNVZerner       .... off
 Static damping         CNVDamp         .... on
   Fraction old density DampFac         ....    0.7000
   Max. Damping (<1)    DampMax         ....    0.9800
   Min. Damping (>=0)   DampMin         ....    0.0000
   Turn off err/grad.   DampErr         ....    0.1000
 Fernandez-Rico         CNVRico         .... off

SCF Procedure:
 Maximum # iterations   MaxIter         ....   125
 SCF integral mode      SCFMode         .... Direct
   Integral package                     .... SHARK and LIBINT hybrid scheme
 Reset frequency        DirectResetFreq ....    20
 Integral Threshold     Thresh          ....  2.500e-11 Eh
 Primitive CutOff       TCut            ....  2.500e-12 Eh

Convergence Tolerance:
 Convergence Check Mode ConvCheckMode   .... Total+1el-Energy
 Convergence forced     ConvForced      .... 0
 Energy Change          TolE            ....  1.000e-08 Eh
 1-El. energy change                    ....  1.000e-05 Eh
 Orbital Gradient       TolG            ....  1.000e-05
 Orbital Rotation angle TolX            ....  1.000e-05
 DIIS Error             TolErr          ....  5.000e-07


Diagonalization of the overlap matrix:
Smallest eigenvalue                        ... 5.138e-05
Time for diagonalization                   ...    0.119 sec
Threshold for overlap eigenvalues          ... 1.000e-08
Number of eigenvalues below threshold      ... 0
Time for construction of square roots      ...    0.159 sec
Total time needed                          ...    0.281 sec

---------------------
INITIAL GUESS: MOREAD
---------------------
Guess MOs are being read from file: neb.gbw
Input Geometry matches current geometry (good)
Input basis set matches current basis set (good)
MOs were renormalized
MOs were reorthogonalized (Cholesky)
                      ------------------
                      INITIAL GUESS DONE (   0.4 sec)
                      ------------------
-------------------
DFT GRID GENERATION
-------------------

General Integration Accuracy     IntAcc      ... 4.388
Radial Grid Type                 RadialGrid  ... OptM3 with GC (2021)
Angular Grid (max. ang.)         AngularGrid ... 4 (Lebedev-302)
Angular grid pruning method      GridPruning ... 4 (adaptive)
Weight generation scheme         WeightScheme... Becke
Basis function cutoff            BFCut       ... 1.0000e-11
Integration weight cutoff        WCut        ... 1.0000e-14
Angular grids for H and He will be reduced by one unit
Partially contracted basis set               ... off
Rotationally invariant grid construction     ... off

Total number of grid points                  ...   123168
Total number of batches                      ...     1941
Average number of points per batch           ...       63
Average number of grid points per atom       ...     4562
Time for grid setup =    0.986 sec

--------------------
COSX GRID GENERATION
--------------------

GRIDX 1
-------
General Integration Accuracy     IntAcc      ... 3.816
Radial Grid Type                 RadialGrid  ... OptM3 with GC (2021)
Angular Grid (max. ang.)         AngularGrid ... 1 (Lebedev-50)
Angular grid pruning method      GridPruning ... 4 (adaptive)
Weight generation scheme         WeightScheme... Becke
Basis function cutoff            BFCut       ... 1.0000e-11
Integration weight cutoff        WCut        ... 1.0000e-14
Angular grids for H and He will be reduced by one unit
Partially contracted basis set               ... on
Rotationally invariant grid construction     ... off

Total number of grid points                  ...    15709
Total number of batches                      ...      259
Average number of points per batch           ...       60
Average number of grid points per atom       ...      582
UseSFitting                                  ... on

GRIDX 2
-------
General Integration Accuracy     IntAcc      ... 4.020
Radial Grid Type                 RadialGrid  ... OptM3 with GC (2021)
Angular Grid (max. ang.)         AngularGrid ... 2 (Lebedev-110)
Angular grid pruning method      GridPruning ... 4 (adaptive)
Weight generation scheme         WeightScheme... Becke
Basis function cutoff            BFCut       ... 1.0000e-11
Integration weight cutoff        WCut        ... 1.0000e-14
Angular grids for H and He will be reduced by one unit
Partially contracted basis set               ... on
Rotationally invariant grid construction     ... off

Total number of grid points                  ...    33745
Total number of batches                      ...      541
Average number of points per batch           ...       62
Average number of grid points per atom       ...     1250
UseSFitting                                  ... on

GRIDX 3
-------
General Integration Accuracy     IntAcc      ... 4.338
Radial Grid Type                 RadialGrid  ... OptM3 with GC (2021)
Angular Grid (max. ang.)         AngularGrid ... 3 (Lebedev-194)
Angular grid pruning method      GridPruning ... 4 (adaptive)
Weight generation scheme         WeightScheme... Becke
Basis function cutoff            BFCut       ... 1.0000e-11
Integration weight cutoff        WCut        ... 1.0000e-14
Angular grids for H and He will be reduced by one unit
Partially contracted basis set               ... on
Rotationally invariant grid construction     ... off

Total number of grid points                  ...    73803
Total number of batches                      ...     1168
Average number of points per batch           ...       63
Average number of grid points per atom       ...     2733
UseSFitting                                  ... on

Time for X-Grid setup             =    1.328 sec


--------------------
CPCM SOLVATION MODEL
--------------------
CPCM parameters:
  Epsilon                                         ...      78.4000
  Refrac                                          ...       1.3300
  Rsolv                                           ...       1.3000
  Surface type                                    ... GAUSSIAN VDW
  Epsilon function type                           ...         CPCM
Radii:
 Radius for C  used is    3.8550 Bohr (=   2.0400 Ang.)
 Radius for H  used is    2.4944 Bohr (=   1.3200 Ang.)
 Radius for N  used is    3.5149 Bohr (=   1.8600 Ang.)
 Radius for O  used is    3.4469 Bohr (=   1.8240 Ang.)
Calculating surface                               ...        done! (  0.0s)
GEPOL surface points                              ...         1532
GEPOL Volume                                      ...    1592.9988
GEPOL Surface-area                                ...     890.7103
Calculating surface distance matrix               ...        done! (  0.1s)
Performing Cholesky decomposition & store         ...        done! (  0.5s)
Overall time for CPCM initialization              ...                 0.6s
--------------
SCF ITERATIONS
--------------
ITER       Energy         Delta-E        Max-DP      RMS-DP      [F,P]     Damp
               ***  Starting incremental Fock matrix formation  ***
                      *** Initiating the SOSCF procedure ***
                      *** Re-Reading the Fockian *** 
                      *** Removing any level shift *** 
ITER      Energy       Delta-E        Grad      Rot      Max-DP    RMS-DP
  0   -648.25144694 -648.2514469409  0.000001  0.000001  0.000013  0.000000
               *** Restarting incremental Fock matrix formation ***
                 **** Energy Check signals convergence ****
              ***Rediagonalizing the Fockian in SOSCF/NRSCF***

               *****************************************************
               *                     SUCCESS                       *
               *           SCF CONVERGED AFTER   1 CYCLES          *
               *****************************************************

Old exchange energy                            =    -16.842227639 Eh
New exchange energy                            =    -16.842247695 Eh
Exchange energy change after final integration =     -0.000020056 Eh
Total energy after final integration           =   -648.251466997 Eh
Final COS-X integration done in                =     1.455 sec

----------------
TOTAL SCF ENERGY
----------------

Total Energy       :         -648.25146700 Eh          -17639.81921 eV

Components:
Nuclear Repulsion  :          819.42721189 Eh           22297.74803 eV
Electronic Energy  :        -1467.67867889 Eh          -39937.56724 eV
One Electron Energy:        -2509.58331031 Eh          -68289.23363 eV
Two Electron Energy:         1041.90463142 Eh           28351.66639 eV
Max COSX asymmetry :            0.00000256 Eh               0.00007 eV
CPCM Dielectric    :           -0.03559606 Eh              -0.96862 eV

Virial components:
Potential Energy   :        -1293.74628156 Eh          -35204.62609 eV
Kinetic Energy     :          645.49481456 Eh           17564.80688 eV
Virial Ratio       :            2.00427060


DFT components:
N(Alpha)           :       49.999996035851 electrons
N(Beta)            :       49.999996035851 electrons
N(Total)           :       99.999992071702 electrons
E(X)               :      -67.047844684908 Eh       
E(C)               :       -4.010637458316 Eh       
E(XC)              :      -71.058482143224 Eh       
DFET-embed. en.    :        0.000000000000 Eh       
CPCM Solvation Model Properties:
Surface-charge          :           -0.02767444
Charge-correction       :           -0.00038072 Eh              -0.01036 eV
Free-energy (cav+disp)  :  This term is not implemented in the current solvation scheme

---------------
SCF CONVERGENCE
---------------

  Last Energy change         ...    1.0391e-10  Tolerance :   1.0000e-08
  Last MAX-Density change    ...    2.6645e-15  Tolerance :   1.0000e-07
  Last RMS-Density change    ...    1.6410e-17  Tolerance :   5.0000e-09
  Last Orbital Gradient      ...    4.3926e-07  Tolerance :   1.0000e-05
  Last Orbital Rotation      ...    1.0225e-06  Tolerance :   1.0000e-05

             **** THE GBW FILE WAS UPDATED (neb.gbw) ****
             **** DENSITY neb.scfp WAS UPDATED ****
             **** ENERGY FILE WAS UPDATED (neb.en.tmp) ****
             **** THE GBW FILE WAS UPDATED (neb.gbw) ****
             **** DENSITY neb.scfp WAS UPDATED ****
----------------
ORBITAL ENERGIES
----------------

  NO   OCC          E(Eh)            E(eV) 
   0   2.0000     -19.121586      -520.3248 
   1   2.0000     -19.121074      -520.3109 
   2   2.0000     -19.091814      -519.5147 
   3   2.0000     -14.507730      -394.7754 
   4   2.0000     -14.387270      -391.4975 
   5   2.0000     -10.243049      -278.7275 
   6   2.0000     -10.240944      -278.6703 
   7   2.0000     -10.214104      -277.9399 
   8   2.0000     -10.203890      -277.6620 
   9   2.0000     -10.203218      -277.6437 
  10   2.0000     -10.182166      -277.0708 
  11   2.0000     -10.155188      -276.3367 
  12   2.0000     -10.155025      -276.3323 
  13   2.0000      -1.182465       -32.1765 
  14   2.0000      -1.007091       -27.4043 
  15   2.0000      -1.005369       -27.3575 
  16   2.0000      -0.953087       -25.9348 
  17   2.0000      -0.837065       -22.7777 
  18   2.0000      -0.819912       -22.3109 
  19   2.0000      -0.799799       -21.7636 
  20   2.0000      -0.690335       -18.7850 
  21   2.0000      -0.684146       -18.6166 
  22   2.0000      -0.668832       -18.1999 
  23   2.0000      -0.664764       -18.0891 
  24   2.0000      -0.586628       -15.9630 
  25   2.0000      -0.549851       -14.9622 
  26   2.0000      -0.522103       -14.2071 
  27   2.0000      -0.518298       -14.1036 
  28   2.0000      -0.506618       -13.7858 
  29   2.0000      -0.491514       -13.3748 
  30   2.0000      -0.487218       -13.2579 
  31   2.0000      -0.483967       -13.1694 
  32   2.0000      -0.460728       -12.5370 
  33   2.0000      -0.450708       -12.2644 
  34   2.0000      -0.445979       -12.1357 
  35   2.0000      -0.415459       -11.3052 
  36   2.0000      -0.398534       -10.8447 
  37   2.0000      -0.394032       -10.7222 
  38   2.0000      -0.392130       -10.6704 
  39   2.0000      -0.385789       -10.4978 
  40   2.0000      -0.383338       -10.4312 
  41   2.0000      -0.352549        -9.5933 
  42   2.0000      -0.346495        -9.4286 
  43   2.0000      -0.325988        -8.8706 
  44   2.0000      -0.298429        -8.1207 
  45   2.0000      -0.294618        -8.0170 
  46   2.0000      -0.290744        -7.9116 
  47   2.0000      -0.289041        -7.8652 
  48   2.0000      -0.264631        -7.2010 
  49   2.0000      -0.214262        -5.8304 
  50   0.0000      -0.070159        -1.9091 
  51   0.0000      -0.044412        -1.2085 
  52   0.0000      -0.040989        -1.1154 
  53   0.0000       0.037719         1.0264 
  54   0.0000       0.058030         1.5791 
  55   0.0000       0.073927         2.0117 
  56   0.0000       0.080419         2.1883 
  57   0.0000       0.088127         2.3981 
  58   0.0000       0.098050         2.6681 
  59   0.0000       0.100370         2.7312 
  60   0.0000       0.103620         2.8196 
  61   0.0000       0.110434         3.0051 
  62   0.0000       0.114996         3.1292 
  63   0.0000       0.119682         3.2567 
  64   0.0000       0.131939         3.5902 
  65   0.0000       0.138671         3.7734 
  66   0.0000       0.154271         4.1979 
  67   0.0000       0.155356         4.2274 
  68   0.0000       0.166353         4.5267 
  69   0.0000       0.173517         4.7216 
  70   0.0000       0.187725         5.1082 
  71   0.0000       0.191483         5.2105 
  72   0.0000       0.194699         5.2980 
  73   0.0000       0.206940         5.6311 
  74   0.0000       0.209981         5.7139 
  75   0.0000       0.213171         5.8007 
  76   0.0000       0.219526         5.9736 
  77   0.0000       0.221299         6.0219 
  78   0.0000       0.230762         6.2793 
  79   0.0000       0.239277         6.5111 
  80   0.0000       0.242323         6.5940 
  81   0.0000       0.253302         6.8927 
  82   0.0000       0.256527         6.9805 
  83   0.0000       0.262601         7.1457 
  84   0.0000       0.268830         7.3152 
  85   0.0000       0.284622         7.7450 
  86   0.0000       0.290512         7.9052 
  87   0.0000       0.306061         8.3283 
  88   0.0000       0.316209         8.6045 
  89   0.0000       0.320081         8.7099 
  90   0.0000       0.322746         8.7824 
  91   0.0000       0.329971         8.9790 
  92   0.0000       0.339577         9.2403 
  93   0.0000       0.343121         9.3368 
  94   0.0000       0.349886         9.5209 
  95   0.0000       0.375604        10.2207 
  96   0.0000       0.380543        10.3551 
  97   0.0000       0.388857        10.5813 
  98   0.0000       0.397078        10.8051 
  99   0.0000       0.406099        11.0505 
 100   0.0000       0.407793        11.0966 
 101   0.0000       0.416583        11.3358 
 102   0.0000       0.420912        11.4536 
 103   0.0000       0.426582        11.6079 
 104   0.0000       0.429213        11.6795 
 105   0.0000       0.437301        11.8996 
 106   0.0000       0.447902        12.1880 
 107   0.0000       0.451485        12.2855 
 108   0.0000       0.455609        12.3978 
 109   0.0000       0.463014        12.5992 
 110   0.0000       0.464510        12.6400 
 111   0.0000       0.468422        12.7464 
 112   0.0000       0.473513        12.8849 
 113   0.0000       0.479772        13.0553 
 114   0.0000       0.481346        13.0981 
 115   0.0000       0.487602        13.2683 
 116   0.0000       0.488132        13.2828 
 117   0.0000       0.504889        13.7387 
 118   0.0000       0.509700        13.8696 
 119   0.0000       0.513503        13.9731 
 120   0.0000       0.531209        14.4549 
 121   0.0000       0.542509        14.7624 
 122   0.0000       0.549316        14.9476 
 123   0.0000       0.561644        15.2831 
 124   0.0000       0.573635        15.6094 
 125   0.0000       0.579418        15.7668 
 126   0.0000       0.590647        16.0723 
 127   0.0000       0.599003        16.2997 
 128   0.0000       0.607404        16.5283 
 129   0.0000       0.623431        16.9644 
 130   0.0000       0.629910        17.1407 
 131   0.0000       0.637245        17.3403 
 132   0.0000       0.647213        17.6116 
 133   0.0000       0.654824        17.8187 
 134   0.0000       0.661059        17.9883 
 135   0.0000       0.674796        18.3621 
 136   0.0000       0.702326        19.1113 
 137   0.0000       0.704978        19.1834 
 138   0.0000       0.720376        19.6024 
 139   0.0000       0.731457        19.9040 
 140   0.0000       0.739426        20.1208 
 141   0.0000       0.749093        20.3839 
 142   0.0000       0.751723        20.4554 
 143   0.0000       0.761479        20.7209 
 144   0.0000       0.778786        21.1918 
 145   0.0000       0.800218        21.7750 
 146   0.0000       0.815369        22.1873 
 147   0.0000       0.833678        22.6855 
 148   0.0000       0.840763        22.8783 
 149   0.0000       0.851428        23.1685 
 150   0.0000       0.861992        23.4560 
 151   0.0000       0.864776        23.5318 
 152   0.0000       0.886902        24.1338 
 153   0.0000       0.893319        24.3084 
 154   0.0000       0.905869        24.6499 
 155   0.0000       0.938946        25.5500 
 156   0.0000       0.948045        25.7976 
 157   0.0000       0.965481        26.2721 
 158   0.0000       0.985484        26.8164 
 159   0.0000       0.998066        27.1588 
 160   0.0000       1.002994        27.2929 
 161   0.0000       1.013727        27.5849 
 162   0.0000       1.022584        27.8259 
 163   0.0000       1.032623        28.0991 
 164   0.0000       1.042482        28.3674 
 165   0.0000       1.066972        29.0338 
 166   0.0000       1.078638        29.3512 
 167   0.0000       1.091316        29.6962 
 168   0.0000       1.112411        30.2702 
 169   0.0000       1.136001        30.9122 
 170   0.0000       1.141598        31.0645 
 171   0.0000       1.167666        31.7738 
 172   0.0000       1.179630        32.0994 
 173   0.0000       1.188318        32.3358 
 174   0.0000       1.202096        32.7107 
 175   0.0000       1.209472        32.9114 
 176   0.0000       1.228756        33.4362 
 177   0.0000       1.245082        33.8804 
 178   0.0000       1.251571        34.0570 
 179   0.0000       1.255914        34.1751 
 180   0.0000       1.267612        34.4935 
 181   0.0000       1.284650        34.9571 
 182   0.0000       1.287261        35.0282 
 183   0.0000       1.300005        35.3749 
 184   0.0000       1.316269        35.8175 
 185   0.0000       1.326989        36.1092 
 186   0.0000       1.369070        37.2543 
 187   0.0000       1.376526        37.4572 
 188   0.0000       1.391302        37.8592 
 189   0.0000       1.400778        38.1171 
 190   0.0000       1.409400        38.3517 
 191   0.0000       1.430273        38.9197 
 192   0.0000       1.447260        39.3820 
 193   0.0000       1.457998        39.6741 
 194   0.0000       1.470637        40.0181 
 195   0.0000       1.475772        40.1578 
 196   0.0000       1.505380        40.9635 
 197   0.0000       1.510298        41.0973 
 198   0.0000       1.529563        41.6215 
 199   0.0000       1.538298        41.8592 
 200   0.0000       1.552190        42.2372 
 201   0.0000       1.554874        42.3103 
 202   0.0000       1.558787        42.4167 
 203   0.0000       1.563166        42.5359 
 204   0.0000       1.570522        42.7361 
 205   0.0000       1.576026        42.8859 
 206   0.0000       1.591459        43.3058 
 207   0.0000       1.602145        43.5966 
 208   0.0000       1.619367        44.0652 
 209   0.0000       1.634049        44.4647 
 210   0.0000       1.641173        44.6586 
 211   0.0000       1.647265        44.8244 
 212   0.0000       1.662796        45.2470 
 213   0.0000       1.664571        45.2953 
 214   0.0000       1.677972        45.6599 
 215   0.0000       1.685755        45.8717 
 216   0.0000       1.692325        46.0505 
 217   0.0000       1.695833        46.1460 
 218   0.0000       1.700211        46.2651 
 219   0.0000       1.721144        46.8347 
 220   0.0000       1.729779        47.0697 
 221   0.0000       1.743788        47.4509 
 222   0.0000       1.750042        47.6211 
 223   0.0000       1.757032        47.8113 
 224   0.0000       1.769857        48.1603 
 225   0.0000       1.783513        48.5319 
 226   0.0000       1.786722        48.6192 
 227   0.0000       1.797851        48.9220 
 228   0.0000       1.826300        49.6962 
 229   0.0000       1.837973        50.0138 
 230   0.0000       1.876652        51.0663 
 231   0.0000       1.902372        51.7662 
 232   0.0000       1.927155        52.4405 
 233   0.0000       1.950206        53.0678 
 234   0.0000       1.965811        53.4924 
 235   0.0000       1.969857        53.6025 
 236   0.0000       1.973760        53.7087 
 237   0.0000       1.999883        54.4196 
 238   0.0000       2.019899        54.9643 
 239   0.0000       2.038783        55.4781 
 240   0.0000       2.051026        55.8113 
 241   0.0000       2.058718        56.0206 
 242   0.0000       2.060834        56.0781 
 243   0.0000       2.071462        56.3673 
 244   0.0000       2.096237        57.0415 
 245   0.0000       2.112498        57.4840 
 246   0.0000       2.133013        58.0422 
 247   0.0000       2.146776        58.4167 
 248   0.0000       2.150719        58.5240 
 249   0.0000       2.162938        58.8565 
 250   0.0000       2.167428        58.9787 
 251   0.0000       2.197019        59.7839 
 252   0.0000       2.202797        59.9412 
 253   0.0000       2.216538        60.3151 
 254   0.0000       2.231787        60.7300 
 255   0.0000       2.238169        60.9037 
 256   0.0000       2.256343        61.3982 
 257   0.0000       2.274866        61.9022 
 258   0.0000       2.302620        62.6575 
 259   0.0000       2.312703        62.9318 
 260   0.0000       2.336990        63.5927 
 261   0.0000       2.340629        63.6917 
 262   0.0000       2.366005        64.3823 
 263   0.0000       2.376266        64.6615 
 264   0.0000       2.380812        64.7852 
 265   0.0000       2.388327        64.9897 
 266   0.0000       2.402535        65.3763 
 267   0.0000       2.405056        65.4449 
 268   0.0000       2.411390        65.6173 
 269   0.0000       2.432535        66.1926 
 270   0.0000       2.440672        66.4141 
 271   0.0000       2.451855        66.7184 
 272   0.0000       2.473393        67.3044 
 273   0.0000       2.479773        67.4781 
 274   0.0000       2.510235        68.3070 
 275   0.0000       2.535581        68.9967 
 276   0.0000       2.542758        69.1920 
 277   0.0000       2.563903        69.7673 
 278   0.0000       2.576880        70.1205 
 279   0.0000       2.582271        70.2672 
 280   0.0000       2.588136        70.4268 
 281   0.0000       2.589592        70.4664 
 282   0.0000       2.594245        70.5930 
 283   0.0000       2.614821        71.1529 
 284   0.0000       2.621451        71.3333 
 285   0.0000       2.630156        71.5702 
 286   0.0000       2.646331        72.0103 
 287   0.0000       2.655726        72.2660 
 288   0.0000       2.664657        72.5090 
 289   0.0000       2.677722        72.8645 
 290   0.0000       2.681836        72.9765 
 291   0.0000       2.693216        73.2861 
 292   0.0000       2.699431        73.4553 
 293   0.0000       2.710495        73.7563 
 294   0.0000       2.717761        73.9540 
 295   0.0000       2.747009        74.7499 
 296   0.0000       2.757431        75.0335 
 297   0.0000       2.764444        75.2243 
 298   0.0000       2.778438        75.6051 
 299   0.0000       2.782533        75.7166 
 300   0.0000       2.790097        75.9224 
 301   0.0000       2.794695        76.0475 
 302   0.0000       2.802054        76.2478 
 303   0.0000       2.815505        76.6138 
 304   0.0000       2.820304        76.7444 
 305   0.0000       2.849392        77.5359 
 306   0.0000       2.862876        77.9028 
 307   0.0000       2.897923        78.8565 
 308   0.0000       2.902486        78.9807 
 309   0.0000       2.906512        79.0902 
 310   0.0000       2.922816        79.5339 
 311   0.0000       2.928399        79.6858 
 312   0.0000       2.934887        79.8623 
 313   0.0000       2.942977        80.0825 
 314   0.0000       2.964646        80.6721 
 315   0.0000       2.984039        81.1998 
 316   0.0000       2.990749        81.3824 
 317   0.0000       3.021749        82.2260 
 318   0.0000       3.035972        82.6130 
 319   0.0000       3.064816        83.3979 
 320   0.0000       3.068009        83.4848 
 321   0.0000       3.073000        83.6206 
 322   0.0000       3.090581        84.0990 
 323   0.0000       3.111211        84.6604 
 324   0.0000       3.121792        84.9483 
 325   0.0000       3.121981        84.9534 
 326   0.0000       3.132940        85.2516 
 327   0.0000       3.140946        85.4695 
 328   0.0000       3.149486        85.7019 
 329   0.0000       3.156889        85.9033 
 330   0.0000       3.167002        86.1785 
 331   0.0000       3.181787        86.5808 
 332   0.0000       3.198852        87.0452 
 333   0.0000       3.200359        87.0862 
 334   0.0000       3.213411        87.4414 
 335   0.0000       3.220447        87.6328 
 336   0.0000       3.229641        87.8830 
 337   0.0000       3.234323        88.0104 
 338   0.0000       3.250853        88.4602 
 339   0.0000       3.262026        88.7642 
 340   0.0000       3.274701        89.1092 
 341   0.0000       3.287562        89.4591 
 342   0.0000       3.312642        90.1416 
 343   0.0000       3.336332        90.7862 
 344   0.0000       3.345366        91.0320 
 345   0.0000       3.354444        91.2791 
 346   0.0000       3.360099        91.4329 
 347   0.0000       3.364680        91.5576 
 348   0.0000       3.371335        91.7387 
 349   0.0000       3.384737        92.1034 
 350   0.0000       3.394720        92.3750 
 351   0.0000       3.405708        92.6740 
 352   0.0000       3.444964        93.7422 
 353   0.0000       3.460206        94.1570 
 354   0.0000       3.468971        94.3955 
 355   0.0000       3.472664        94.4960 
 356   0.0000       3.509791        95.5063 
 357   0.0000       3.521125        95.8147 
 358   0.0000       3.526309        95.9557 
 359   0.0000       3.531006        96.0836 
 360   0.0000       3.567419        97.0744 
 361   0.0000       3.573527        97.2406 
 362   0.0000       3.644454        99.1706 
 363   0.0000       3.657499        99.5256 
 364   0.0000       3.664167        99.7070 
 365   0.0000       3.674038        99.9757 
 366   0.0000       3.694208       100.5245 
 367   0.0000       3.712968       101.0350 
 368   0.0000       3.756684       102.2246 
 369   0.0000       3.764763       102.4444 
 370   0.0000       3.770192       102.5921 
 371   0.0000       3.778599       102.8209 
 372   0.0000       3.829687       104.2111 
 373   0.0000       3.855616       104.9166 
 374   0.0000       3.873006       105.3899 
 375   0.0000       3.888243       105.8045 
 376   0.0000       3.904707       106.2525 
 377   0.0000       3.931929       106.9932 
 378   0.0000       3.942347       107.2767 
 379   0.0000       3.977060       108.2213 
 380   0.0000       3.996979       108.7633 
 381   0.0000       4.013157       109.2036 
 382   0.0000       4.023600       109.4877 
 383   0.0000       4.057478       110.4096 
 384   0.0000       4.074312       110.8677 
 385   0.0000       4.084762       111.1520 
 386   0.0000       4.094207       111.4090 
 387   0.0000       4.127898       112.3258 
 388   0.0000       4.162621       113.2707 
 389   0.0000       4.175415       113.6188 
 390   0.0000       4.179802       113.7382 
 391   0.0000       4.191695       114.0618 
 392   0.0000       4.203164       114.3739 
 393   0.0000       4.275378       116.3390 
 394   0.0000       4.285726       116.6205 
 395   0.0000       4.288318       116.6911 
 396   0.0000       4.330743       117.8455 
[...]
 194   0.0000       1.465508        39.8785 
 195   0.0000       1.472804        40.0770 
 196   0.0000       1.503802        40.9205 
 197   0.0000       1.510083        41.0915 
 198   0.0000       1.529090        41.6086 
 199   0.0000       1.537244        41.8305 
 200   0.0000       1.546054        42.0703 
 201   0.0000       1.553638        42.2766 
 202   0.0000       1.561336        42.4861 
 203   0.0000       1.566239        42.6195 
 204   0.0000       1.568773        42.6885 
 205   0.0000       1.575799        42.8797 
 206   0.0000       1.584407        43.1139 
 207   0.0000       1.605714        43.6937 
 208   0.0000       1.618027        44.0288 
 209   0.0000       1.631504        44.3955 
 210   0.0000       1.642643        44.6986 
 211   0.0000       1.646378        44.8002 
 212   0.0000       1.663253        45.2594 
 213   0.0000       1.669350        45.4253 
 214   0.0000       1.676258        45.6133 
 215   0.0000       1.685322        45.8600 
 216   0.0000       1.689783        45.9813 
 217   0.0000       1.697230        46.1840 
 218   0.0000       1.700242        46.2659 
 219   0.0000       1.720331        46.8126 
 220   0.0000       1.727258        47.0011 
 221   0.0000       1.739761        47.3413 
 222   0.0000       1.749546        47.6076 
 223   0.0000       1.757197        47.8158 
 224   0.0000       1.772216        48.2245 
 225   0.0000       1.778195        48.3871 
 226   0.0000       1.784518        48.5592 
 227   0.0000       1.805018        49.1170 
 228   0.0000       1.829504        49.7833 
 229   0.0000       1.836659        49.9780 
 230   0.0000       1.877626        51.0928 
 231   0.0000       1.902714        51.7755 
 232   0.0000       1.927447        52.4485 
 233   0.0000       1.943984        52.8985 
 234   0.0000       1.963059        53.4175 
 235   0.0000       1.974394        53.7260 
 236   0.0000       1.976363        53.7796 
 237   0.0000       2.001567        54.4654 
 238   0.0000       2.026065        55.1320 
 239   0.0000       2.042676        55.5840 
 240   0.0000       2.049293        55.7641 
 241   0.0000       2.062988        56.1368 
 242   0.0000       2.063971        56.1635 
 243   0.0000       2.080258        56.6067 
 244   0.0000       2.097485        57.0755 
 245   0.0000       2.110359        57.4258 
 246   0.0000       2.140422        58.2438 
 247   0.0000       2.145139        58.3722 
 248   0.0000       2.149424        58.4888 
 249   0.0000       2.157567        58.7104 
 250   0.0000       2.171965        59.1022 
 251   0.0000       2.188210        59.5442 
 252   0.0000       2.201726        59.9120 
 253   0.0000       2.215581        60.2890 
 254   0.0000       2.223790        60.5124 
 255   0.0000       2.235298        60.8256 
 256   0.0000       2.259049        61.4718 
 257   0.0000       2.276192        61.9383 
 258   0.0000       2.300346        62.5956 
 259   0.0000       2.303877        62.6917 
 260   0.0000       2.332587        63.4729 
 261   0.0000       2.337343        63.6023 
 262   0.0000       2.368003        64.4366 
 263   0.0000       2.374814        64.6220 
 264   0.0000       2.379891        64.7601 
 265   0.0000       2.387803        64.9754 
 266   0.0000       2.401161        65.3389 
 267   0.0000       2.405018        65.4439 
 268   0.0000       2.414633        65.7055 
 269   0.0000       2.430883        66.1477 
 270   0.0000       2.437516        66.3282 
 271   0.0000       2.455483        66.8171 
 272   0.0000       2.481548        67.5264 
 273   0.0000       2.496404        67.9306 
 274   0.0000       2.511032        68.3286 
 275   0.0000       2.531691        68.8908 
 276   0.0000       2.544934        69.2512 
 277   0.0000       2.562412        69.7268 
 278   0.0000       2.576786        70.1179 
 279   0.0000       2.582562        70.2751 
 280   0.0000       2.586888        70.3928 
 281   0.0000       2.591122        70.5080 
 282   0.0000       2.597389        70.6785 
 283   0.0000       2.617807        71.2342 
 284   0.0000       2.624255        71.4096 
 285   0.0000       2.630371        71.5760 
 286   0.0000       2.647738        72.0486 
 287   0.0000       2.651098        72.1400 
 288   0.0000       2.661528        72.4239 
 289   0.0000       2.666378        72.5558 
 290   0.0000       2.675681        72.8090 
 291   0.0000       2.693020        73.2808 
 292   0.0000       2.703647        73.5700 
 293   0.0000       2.709989        73.7426 
 294   0.0000       2.733428        74.3804 
 295   0.0000       2.741925        74.6116 
 296   0.0000       2.751055        74.8600 
 297   0.0000       2.765971        75.2659 
 298   0.0000       2.778370        75.6033 
 299   0.0000       2.784113        75.7596 
 300   0.0000       2.789785        75.9139 
 301   0.0000       2.798917        76.1624 
 302   0.0000       2.802138        76.2500 
 303   0.0000       2.813439        76.5576 
 304   0.0000       2.824619        76.8618 
 305   0.0000       2.840538        77.2950 
 306   0.0000       2.861281        77.8594 
 307   0.0000       2.895348        78.7864 
 308   0.0000       2.901027        78.9410 
 309   0.0000       2.905308        79.0575 
 310   0.0000       2.910293        79.1931 
 311   0.0000       2.921101        79.4872 
 312   0.0000       2.935568        79.8809 
 313   0.0000       2.947291        80.1999 
 314   0.0000       2.965217        80.6877 
 315   0.0000       2.979102        81.0655 
 316   0.0000       2.998305        81.5880 
 317   0.0000       3.016355        82.0792 
 318   0.0000       3.034080        82.5615 
 319   0.0000       3.061573        83.3096 
 320   0.0000       3.071180        83.5711 
 321   0.0000       3.080034        83.8120 
 322   0.0000       3.092745        84.1579 
 323   0.0000       3.107393        84.5565 
 324   0.0000       3.116764        84.8115 
 325   0.0000       3.119135        84.8760 
 326   0.0000       3.132392        85.2367 
 327   0.0000       3.138024        85.3900 
 328   0.0000       3.145088        85.5822 
 329   0.0000       3.158958        85.9596 
 330   0.0000       3.168233        86.2120 
 331   0.0000       3.183949        86.6397 
 332   0.0000       3.186254        86.7024 
 333   0.0000       3.200609        87.0930 
 334   0.0000       3.212916        87.4279 
 335   0.0000       3.220568        87.6361 
 336   0.0000       3.227191        87.8163 
 337   0.0000       3.240106        88.1678 
 338   0.0000       3.248779        88.4038 
 339   0.0000       3.260439        88.7210 
 340   0.0000       3.267469        88.9124 
 341   0.0000       3.292269        89.5872 
 342   0.0000       3.317215        90.2660 
 343   0.0000       3.337533        90.8189 
 344   0.0000       3.338961        90.8577 
 345   0.0000       3.352410        91.2237 
 346   0.0000       3.353832        91.2624 
 347   0.0000       3.362947        91.5105 
 348   0.0000       3.372217        91.7627 
 349   0.0000       3.383758        92.0767 
 350   0.0000       3.406160        92.6863 
 351   0.0000       3.411828        92.8406 
 352   0.0000       3.441327        93.6433 
 353   0.0000       3.462375        94.2160 
 354   0.0000       3.464599        94.2765 
 355   0.0000       3.470882        94.4475 
 356   0.0000       3.513118        95.5968 
 357   0.0000       3.521675        95.8296 
 358   0.0000       3.527904        95.9991 
 359   0.0000       3.531554        96.0985 
 360   0.0000       3.562312        96.9354 
 361   0.0000       3.564881        97.0053 
 362   0.0000       3.628827        98.7454 
 363   0.0000       3.648515        99.2811 
 364   0.0000       3.652911        99.4008 
 365   0.0000       3.674071        99.9766 
 366   0.0000       3.692657       100.4823 
 367   0.0000       3.712701       101.0277 
 368   0.0000       3.755833       102.2014 
 369   0.0000       3.762828       102.3917 
 370   0.0000       3.766285       102.4858 
 371   0.0000       3.779619       102.8487 
 372   0.0000       3.842387       104.5567 
 373   0.0000       3.854555       104.8878 
 374   0.0000       3.874858       105.4402 
 375   0.0000       3.896035       106.0165 
 376   0.0000       3.902737       106.1989 
 377   0.0000       3.940598       107.2291 
 378   0.0000       3.941849       107.2632 
 379   0.0000       3.986449       108.4768 
 380   0.0000       3.997228       108.7701 
 381   0.0000       4.011906       109.1695 
 382   0.0000       4.022489       109.4575 
 383   0.0000       4.059113       110.4541 
 384   0.0000       4.070307       110.7587 
 385   0.0000       4.086073       111.1877 
 386   0.0000       4.093551       111.3912 
 387   0.0000       4.135754       112.5396 
 388   0.0000       4.164993       113.3352 
 389   0.0000       4.172430       113.5376 
 390   0.0000       4.188654       113.9791 
 391   0.0000       4.197511       114.2201 
 392   0.0000       4.208306       114.5138 
 393   0.0000       4.272369       116.2571 
 394   0.0000       4.275720       116.3483 
 395   0.0000       4.285701       116.6199 
 396   0.0000       4.335433       117.9731 
 397   0.0000       4.342502       118.1655 
 398   0.0000       4.376735       119.0970 
 399   0.0000       4.387247       119.3831 
 400   0.0000       4.395134       119.5977 
 401   0.0000       4.421052       120.3030 
 402   0.0000       4.484204       122.0214 
 403   0.0000       4.495014       122.3155 
 404   0.0000       4.540251       123.5465 
 405   0.0000       4.550126       123.8152 
 406   0.0000       4.572258       124.4175 
 407   0.0000       4.644715       126.3891 
 408   0.0000       4.651718       126.5797 
 409   0.0000       4.713285       128.2550 
 410   0.0000       4.732819       128.7866 
 411   0.0000       4.749591       129.2429 
 412   0.0000       4.776866       129.9851 
 413   0.0000       4.777843       130.0117 
 414   0.0000       4.798662       130.5782 
 415   0.0000       4.820374       131.1690 
 416   0.0000       4.844917       131.8369 
 417   0.0000       4.894601       133.1889 
 418   0.0000       4.900185       133.3408 
 419   0.0000       4.909633       133.5979 
 420   0.0000       4.928393       134.1084 
 421   0.0000       4.932273       134.2140 
 422   0.0000       5.001879       136.1080 
 423   0.0000       5.046377       137.3189 
 424   0.0000       5.051453       137.4570 
 425   0.0000       5.119646       139.3126 
 426   0.0000       5.139791       139.8608 
 427   0.0000       5.156675       140.3203 
 428   0.0000       5.165371       140.5569 
 429   0.0000       5.167310       140.6097 
 430   0.0000       5.186046       141.1195 
 431   0.0000       5.188454       141.1850 
 432   0.0000       5.194130       141.3395 
 433   0.0000       5.213041       141.8541 
 434   0.0000       5.272715       143.4779 
 435   0.0000       5.296996       144.1386 
 436   0.0000       5.323199       144.8516 
 437   0.0000       5.376363       146.2983 
 438   0.0000       5.400011       146.9418 
 439   0.0000       5.403004       147.0232 
 440   0.0000       5.441563       148.0725 
 441   0.0000       5.462364       148.6385 
 442   0.0000       5.492070       149.4468 
 443   0.0000       5.620815       152.9501 
 444   0.0000       5.648686       153.7086 
 445   0.0000       5.651504       153.7852 
 446   0.0000       5.679395       154.5442 
 447   0.0000       5.740258       156.2004 
 448   0.0000       5.774720       157.1381 
 449   0.0000       5.908875       160.7887 
 450   0.0000       5.932071       161.4199 
 451   0.0000       5.965199       162.3213 
 452   0.0000       6.056079       164.7943 
 453   0.0000       6.270944       170.6411 
 454   0.0000       6.277656       170.8237 
 455   0.0000       6.313259       171.7925 
 456   0.0000       6.349053       172.7665 
 457   0.0000       6.406260       174.3232 
 458   0.0000       6.422091       174.7540 
 459   0.0000       6.431458       175.0089 
 460   0.0000       6.460210       175.7912 
 461   0.0000       6.498778       176.8407 
 462   0.0000       6.673346       181.5910 
 463   0.0000       6.702701       182.3898 
 464   0.0000       6.864610       186.7955 
 465   0.0000       6.877854       187.1559 
 466   0.0000       6.909088       188.0058 
 467   0.0000       7.007790       190.6917 
 468   0.0000       7.058863       192.0814 
 469   0.0000       7.119732       193.7378 
 470   0.0000       7.243573       197.1076 
 471   0.0000       7.246738       197.1938 
 472   0.0000       7.475461       203.4176 
 473   0.0000       7.586062       206.4272 
 474   0.0000      22.209317       604.3462 
 475   0.0000      22.366067       608.6116 
 476   0.0000      22.411138       609.8381 
 477   0.0000      22.511058       612.5570 
 478   0.0000      22.579546       614.4207 
 479   0.0000      22.755327       619.2039 
 480   0.0000      22.795869       620.3071 
 481   0.0000      23.001945       625.9147 
 482   0.0000      32.386864       881.2914 
 483   0.0000      32.472043       883.6092 
 484   0.0000      43.744552      1190.3498 
 485   0.0000      43.965299      1196.3566 
 486   0.0000      44.093670      1199.8498 
-------
TIMINGS
-------

Total SCF time: 0 days 0 hours 0 min 17 sec 

Total time                  ....      17.606 sec
Sum of individual times     ....      15.187 sec  ( 86.3%)

Fock matrix formation       ....      10.743 sec  ( 61.0%)
  Split-RI-J                ....       1.835 sec  ( 17.1% of F)
  Chain of spheres X        ....       5.185 sec  ( 48.3% of F)
  XC integration            ....       1.157 sec  ( 10.8% of F)
    Basis function eval.    ....       0.153 sec  ( 13.2% of XC)
    Density eval.           ....       0.306 sec  ( 26.4% of XC)
    XC-Functional eval.     ....       0.010 sec  (  0.8% of XC)
    XC-Potential eval.      ....       0.115 sec  (  9.9% of XC)
Diagonalization             ....       0.288 sec  (  1.6%)
Density matrix formation    ....       0.117 sec  (  0.7%)
Population analysis         ....       0.000 sec  (  0.0%)
Initial guess               ....       0.366 sec  (  2.1%)
Orbital Transformation      ....       0.000 sec  (  0.0%)
Orbital Orthonormalization  ....       0.313 sec  (  1.8%)
DIIS solution               ....       0.154 sec  (  0.9%)
SOSCF solution              ....       1.221 sec  (  6.9%)
Grid generation             ....       2.298 sec  ( 13.1%)

Maximum memory used throughout the entire SCF-calculation: 102.2 MB


-------------------------------------------------------------------------------
                          DFT DISPERSION CORRECTION                            
                                                                               
                              DFTD3 V3.1  Rev 1                                
                          USING Becke-Johnson damping                          
-------------------------------------------------------------------------------
The B3LYP functional is recognized
Active option DFTDOPT                   ...         4   

molecular C6(AA) [au] = 6500.620182 


            DFT-D V3
 parameters
 s6 scaling factor         :     1.0000 
 a1 scaling factor         :     0.3981 
 s8 scaling factor         :     1.9889 
 a2 scaling factor         :     4.4211 
 ad hoc parameters k1-k3   :    16.0000     1.3333    -4.0000 

 Edisp/kcal,au: -27.321138596972  -0.043539001102 
 E6   /kcal   : -13.422476570 
 E8   /kcal   : -13.898662027 
 % E8         :  50.871459760 

-------------------------   ----------------
Dispersion correction           -0.043539001
-------------------------   ----------------


-------------------------   --------------------
FINAL SINGLE POINT ENERGY      -648.295760050257
-------------------------   --------------------

                                *** OPTIMIZATION RUN DONE ***


                    ***********************HURRAY************************
                    ***        THE TS OPTIMIZATION HAS CONVERGED      ***
                    *****************************************************



---------------------------------------------------------------
                      PATH SUMMARY FOR NEB-TS             
---------------------------------------------------------------
All forces in Eh/Bohr. Global forces for TS.

Image     E(Eh)   dE(kcal/mol)  max(|Fp|)  RMS(Fp)
  0    -648.33538     0.00       0.00025   0.00006
  1    -648.33427     0.69       0.00074   0.00018
  2    -648.33284     1.59       0.00110   0.00029
  3    -648.32846     4.34       0.01009   0.00156
  4    -648.30502    19.05       0.00259   0.00091
  5    -648.29530    25.15       0.00185   0.00038 <= CI
 TS    -648.29576    24.86       0.00061   0.00011 <= TS
  6    -648.30754    17.47       0.00130   0.00043
  7    -648.30987    16.00       0.00090   0.00027
----------
STATISTICS
----------

For the individual parts of the NEB, NEB-CI or NEB-TS run:

Number of iterations:
     NEB                               ... 77  83.7%
     TS optimization                   ... 15  16.3%
Number of SCF / gradient calculations:
     NEB                               ... 566  97.4%
     TS optimization                   ... 15  2.6%

----------
 TIMINGS
----------

For the individual parts of the NEB, NEB-CI or NEB-TS run:

Total                                  ...     9128.840 sec
NEB                                    ...     8445.214 sec  92.5%
TS Optimization                        ...      683.626 sec  7.5%


                            ***************************************
                            *     ORCA property calculations      *
                            ***************************************

                                    ---------------------
                                    Active property flags
                                    ---------------------
   (+) Dipole Moment


------------------------------------------------------------------------------
                       ORCA ELECTRIC PROPERTIES CALCULATION
------------------------------------------------------------------------------

Dipole Moment Calculation                       ... on
Quadrupole Moment Calculation                   ... off
Polarizability Calculation                      ... off
GBWName                                         ... neb.gbw
Electron density                                ... neb.scfp
The origin for moment calculation is the CENTER OF MASS  = ( 0.222027, -0.458340 -0.360069)

-------------
DIPOLE MOMENT
-------------
                                X             Y             Z
Electronic contribution:      8.79361      -6.11898      -5.73148
Nuclear contribution   :     -4.52501       6.52788       5.61159
                        -----------------------------------------
Total Dipole Moment    :      4.26860       0.40890      -0.11989
                        -----------------------------------------
Magnitude (a.u.)       :      4.28981
Magnitude (Debye)      :     10.90384



--------------------
Rotational spectrum 
--------------------
 
Rotational constants in cm-1:     0.048022     0.012890     0.011711 
Rotational constants in MHz :  1439.652591   386.444260   351.087935 

 Dipole components along the rotational axes: 
x,y,z [a.u.] :    -3.998857     1.385862     0.700741 
x,y,z [Debye]:   -10.164286     3.522582     1.781142 

 

Timings for individual modules:

Sum of individual times         ...     9189.856 sec (= 153.164 min)
GTO integral calculation        ...       81.772 sec (=   1.363 min)   0.9 %
SCF iterations                  ...      499.157 sec (=   8.319 min)   5.4 %
SCF Gradient evaluation         ...      163.013 sec (=   2.717 min)   1.8 %
Geometry relaxation             ...        0.700 sec (=   0.012 min)   0.0 %
NEB Iterations                  ...     8445.214 sec (= 140.754 min)  91.9 %
                             ****ORCA TERMINATED NORMALLY****
TOTAL RUN TIME: 0 days 2 hours 32 minutes 16 seconds 843 msec
