 *******************************************************************************
 **                                                                           **
 **                              MOPAC v22.0.6                                **
 **                                                                           **
 *******************************************************************************
 **          Digital Object Identifier (DOI): 10.5281/zenodo.6511958          **
 **    Visit the DOI location for information on how to cite this program.    **
 *******************************************************************************

                              PM7 CALCULATION RESULTS

 *******************************************************************************
 *  CALCULATION DONE:                                Tue Mar 26 11:57:07 2024  *
 *  PM7        - The PM7 Hamiltonian to be used
 *  SINGLET    - SPIN STATE DEFINED AS A SINGLET
 *
 *
 *
 *                 CHARGE ON SYSTEM = 0
 *
 *
 *
 *  EPS=78.4   - USE ANDREAS KLAMT'S COSMO IMPLICIT SOLVATION MODEL
 *  LET        - OVERRIDE SOME SAFETY CHECKS
 *  THREADS    - USE A MAXIMUM OF 30 THREADS
 *  T=         - A TIME OF 14.0 DAYS REQUESTED
 *  DUMP=N     - RESTART FILE WRITTEN EVERY 30.0 MINUTES REQUESTED
 *  RELSCF     - DEFAULT SCF CRITERION MULTIPLIED BY 1.0000
 *              (DEFAULT SCF CRITERION = 0.00010)
 *  ITRY=      - DO A MAXIMUM OF 15000 ITERATIONS FOR SCF
 *  AUX        - OUTPUT AUXILIARY INFORMATION
 *  ISOTOPE    - SAVE THE FORCE MATRIX FOR USE LATER
 *  BONDS      - FINAL BOND-ORDER MATRIX TO BE PRINTED
 *  LARGE      - EXPANDED OUTPUT TO BE PRINTED
 *  THERMO     - THERMODYNAMIC QUANTITIES TO BE CALCULATED
 *******************************************************************************
PM7 AUX LARGE THERMO(298,298) LET ISOTOPE BONDS DUMP=30M ITRY=15000 T=14D THREADS=30 CHARGE=0 SINGLET eps=78.4 RELSCF=1
 Title: ASE calculation

   ATOM   CHEMICAL          X               Y               Z
  NUMBER   SYMBOL      (ANGSTROMS)     (ANGSTROMS)     (ANGSTROMS)

     1       C          0.58278000  *  -0.24516000  *  -0.02623000  *
     2       H          0.62694000  *  -0.36391000  *  -1.11861000  *
     3       N          0.34789000  *  -2.65843000  *   0.26864000  *
     4       O          0.52101000  *  -3.07231000  *  -0.86960000  *
     5       O         -0.44516000  *  -3.18836000  *   1.02943000  *
     6       H          1.69366000  *  -0.48363000  *   2.56643000  *
     7       C          1.13503000  *  -1.45939000  *   0.71361000  *
     8       D          2.20712000  *  -1.64611000  *   0.40439000  *
     9       H         -0.45900000  *  -0.02237000  *   0.24295000  *
    10       C          1.04296000  *  -1.30405000  *   2.22409000  *
    11       H          0.02383000  *  -1.07083000  *   2.56317000  *
    12       C          6.69846000  *  -1.25761000  *  -0.83461000  *
    13       C          7.93194000  *  -1.46833000  *  -1.45975000  *
    14       C          8.51864000  *  -2.72945000  *  -1.37087000  *
    15       C          7.85923000  *  -3.73877000  *  -0.67165000  *
    16       C          6.62838000  *  -3.44773000  *  -0.07284000  *
    17       N          6.06017000  *  -2.22758000  *  -0.14910000  *
    18       H          8.41917000  *  -0.65996000  *  -2.00297000  *
    19       H          9.48404000  *  -2.92462000  *  -1.84452000  *
    20       H          8.28947000  *  -4.73621000  *  -0.58920000  *
    21       H          1.17111000  *   0.65340000  *   0.21768000  *
    22       H          1.36213000  *  -2.21070000  *   2.75858000  *
    23       H          6.06879000  *  -4.20788000  *   0.48949000  *
    24       H          6.19296000  *  -0.28332000  *  -0.87574000  *
    25       H          3.71844000  *  -1.84858000  *   2.25942000  *
    26       H          4.69651000  *  -1.48533000  *   1.14327000  *
    27       O          4.12811000  *  -1.09406000  *   1.82657000  *


                                Isotopes Used

              Atom:    8  H  Default mass  1.0079,  mass used:  2.0140 amu


          CARTESIAN COORDINATES 

    NO.       ATOM           X           Y           Z

     1         C          0.5828     -0.2452     -0.0262
     2         H          0.6269     -0.3639     -1.1186
     3         N          0.3479     -2.6584      0.2686
     4         O          0.5210     -3.0723     -0.8696
     5         O         -0.4452     -3.1884      1.0294
     6         H          1.6937     -0.4836      2.5664
     7         C          1.1350     -1.4594      0.7136
     8         H          2.2071     -1.6461      0.4044
     9         H         -0.4590     -0.0224      0.2430
    10         C          1.0430     -1.3041      2.2241
    11         H          0.0238     -1.0708      2.5632
    12         C          6.6985     -1.2576     -0.8346
    13         C          7.9319     -1.4683     -1.4598
    14         C          8.5186     -2.7294     -1.3709
    15         C          7.8592     -3.7388     -0.6717
    16         C          6.6284     -3.4477     -0.0728
    17         N          6.0602     -2.2276     -0.1491
    18         H          8.4192     -0.6600     -2.0030
    19         H          9.4840     -2.9246     -1.8445
    20         H          8.2895     -4.7362     -0.5892
    21         H          1.1711      0.6534      0.2177
    22         H          1.3621     -2.2107      2.7586
    23         H          6.0688     -4.2079      0.4895
    24         H          6.1930     -0.2833     -0.8757
    25         H          3.7184     -1.8486      2.2594
    26         H          4.6965     -1.4853      1.1433
    27         O          4.1281     -1.0941      1.8266

 General Reference for PM7:
 "Optimization of Parameters for Semiempirical Methods VI: More Modifications to the 
 NDDO Approximations and Re-optimization of Parameters", J. J. P. Stewart, J. Mol. Mod., 1:32, 19 (2013)
 https://link.springer.com/article/10.1007/s00894-012-1667-x

           Empirical Formula: C8 H14 N2 O3  =    27 atoms



      MOLECULAR POINT GROUP   :   C1  


 SINGLET STATE CALCULATION


      RHF CALCULATION, NO. OF DOUBLY OCCUPIED LEVELS = 37

  SCF CRITERION =    0.1000E-03


          HEAT OF FORMATION =     -79.280173 KCALS/MOLE


          CARTESIAN COORDINATE DERIVATIVES

   NUMBER  ATOM         X            Y            Z

     1       C      0.028663     0.014342     0.033219
     2       H     -0.021529     0.097971     0.013027
     3       N      0.047749     0.017936     0.076098
     4       O      0.018034    -0.106100     0.126645
     5       O      0.038861     0.113200     0.099610
     6       H      0.051543     0.152180    -0.136041
     7       C     -0.045619     0.010132    -0.088250
     8       H      0.063669    -0.003555    -0.081579
     9       H     -0.038605    -0.017728    -0.001535
    10       C     -0.030907    -0.078583    -0.045425
    11       H      0.018101    -0.073022     0.032246
    12       C     -0.123887     0.258634    -0.077689
    13       C     -0.112535     0.089958     0.015951
    14       C     -0.124184    -0.264115     0.092295
    15       C     -0.077037    -0.046483     0.128792
    16       C      0.154855     0.082322    -0.114995
    17       N      0.064423     0.067674     0.023812
    18       H     -0.075238     0.016860     0.178510
    19       H     -0.017717    -0.039334    -0.100544
    20       H     -0.006734     0.060881     0.025888
    21       H      0.043503    -0.026570     0.028002
    22       H      0.043659     0.051579    -0.149425
    23       H      0.140133     0.078767    -0.039814
    24       H      0.017640     0.009827     0.135933
    25       H     -0.283228     0.030782    -0.299064
    26       H      0.165508    -0.134471     0.047610
    27       O      0.060917    -0.362981     0.076791

 DIPOLE           X         Y         Z       TOTAL
 POINT-CHG.    -0.294    -2.906    -5.495     6.223
 HYBRID         0.593     0.745    -0.324     1.005
 SUM            0.299    -2.162    -5.819     6.214


          GRADIENT NORM =   0.96270


          TIME FOR SCF CALCULATION =    0.56

          TIME FOR DERIVATIVES     =    0.05

          MOLECULAR WEIGHT =  187.22



          ROTATIONAL CONSTANTS IN CM(-1)

          A =    0.04465704   B =    0.00748478   C =    0.00720923



           PRINCIPAL MOMENTS OF INERTIA IN UNITS OF 10**(-40)*GRAM-CM**2

          A =      626.8386   B =     3739.9581   C =     3882.9039


          ORIENTATION OF MOLECULE IN FORCE CALCULATION

    NO.       ATOM         X         Y         Z

     1          C      -0.1855   -1.5721    3.3080
     2          H       0.9142   -1.5721    3.3080
     3          N      -0.2273    0.8701    3.3080
     4          O       0.9550    1.1452    3.1552
     5          O      -0.9576    1.5494    4.0106
     6          H      -2.6906   -1.1731    2.0516
     7          C      -0.7672   -0.3460    2.6115
     8          H      -0.3968   -0.2956    1.5438
     9          H      -0.5188   -1.6653    4.3509
    10          C      -2.2881   -0.3343    2.6416
    11          H      -2.6910   -0.4326    3.6594
    12          C       0.9724   -1.2377   -2.8262
    13          C       1.6656   -1.2117   -4.0408
    14          C       1.7371   -0.0100   -4.7432
    15          C       1.1250    1.1248   -4.2139
    16          C       0.4494    1.0163   -2.9932
    17          N       0.3705   -0.1453   -2.3136
    18          H       2.1375   -2.1149   -4.4249
    19          H       2.2674    0.0419   -5.6974
    20          H       1.1681    2.0797   -4.7364
    21          H      -0.5012   -2.4926    2.7921
    22          H      -2.7083    0.5883    2.2151
    23          H      -0.0496    1.8806   -2.5337
    24          H       0.8877   -2.1582   -2.2330
    25          H      -2.1569   -0.0470   -0.0707
    26          H      -1.0481   -0.6158   -0.9547
    27          O      -1.7920   -0.8780   -0.3880


    FIRST DERIVATIVES WILL BE USED IN THE CALCULATION OF SECOND DERIVATIVES

          ESTIMATED TIME TO COMPLETE CALCULATION =       99.98 SECONDS

    FOR POINT-GROUP C1   THERE ARE   1 UNIQUE SYMMETRY FUNCTIONS.

 STEP:   1 TIME =     0.13 SECS, INTEGRAL =      0.13 TIME LEFT:1209599.25
 STEP:   2 TIME =     0.14 SECS, INTEGRAL =      0.28 TIME LEFT:1209599.11
 STEP:   3 TIME =     0.19 SECS, INTEGRAL =      0.46 TIME LEFT:1209598.92
 STEP:   4 TIME =     0.09 SECS, INTEGRAL =      0.56 TIME LEFT:1209598.82
 STEP:   5 TIME =     0.20 SECS, INTEGRAL =      0.75 TIME LEFT:1209598.63
 STEP:   6 TIME =     0.18 SECS, INTEGRAL =      0.94 TIME LEFT:1209598.45
 STEP:   7 TIME =     0.13 SECS, INTEGRAL =      1.07 TIME LEFT:1209598.32
 STEP:   8 TIME =     0.40 SECS, INTEGRAL =      1.46 TIME LEFT:1209597.92
 STEP:   9 TIME =     0.14 SECS, INTEGRAL =      1.60 TIME LEFT:1209597.78
 STEP:  10 TIME =     0.18 SECS, INTEGRAL =      1.78 TIME LEFT:1209597.60
 STEP:  11 TIME =     0.20 SECS, INTEGRAL =      1.98 TIME LEFT:1209597.40
 STEP:  12 TIME =     1.15 SECS, INTEGRAL =      3.13 TIME LEFT:1209596.25
 STEP:  13 TIME =     0.75 SECS, INTEGRAL =      3.88 TIME LEFT:1209595.51
 STEP:  14 TIME =     0.31 SECS, INTEGRAL =      4.19 TIME LEFT:1209595.20
 STEP:  15 TIME =     0.24 SECS, INTEGRAL =      4.43 TIME LEFT:1209594.95
 STEP:  16 TIME =     0.43 SECS, INTEGRAL =      4.86 TIME LEFT:1209594.53
 STEP:  17 TIME =     0.10 SECS, INTEGRAL =      4.96 TIME LEFT:1209594.43
 STEP:  18 TIME =     0.11 SECS, INTEGRAL =      5.06 TIME LEFT:1209594.32
 STEP:  19 TIME =     0.11 SECS, INTEGRAL =      5.17 TIME LEFT:1209594.21
 STEP:  20 TIME =     0.13 SECS, INTEGRAL =      5.30 TIME LEFT:1209594.08
 STEP:  21 TIME =     0.11 SECS, INTEGRAL =      5.41 TIME LEFT:1209593.97
 STEP:  22 TIME =     0.09 SECS, INTEGRAL =      5.50 TIME LEFT:1209593.88
 STEP:  23 TIME =     0.10 SECS, INTEGRAL =      5.61 TIME LEFT:1209593.78
 STEP:  24 TIME =     0.07 SECS, INTEGRAL =      5.68 TIME LEFT:1209593.71
 STEP:  25 TIME =     0.09 SECS, INTEGRAL =      5.77 TIME LEFT:1209593.61
 STEP:  26 TIME =     0.06 SECS, INTEGRAL =      5.83 TIME LEFT:1209593.55
 STEP:  27 TIME =     0.07 SECS, INTEGRAL =      5.90 TIME LEFT:1209593.48
 STEP:  28 TIME =     0.06 SECS, INTEGRAL =      5.96 TIME LEFT:1209593.42
 STEP:  29 TIME =     0.07 SECS, INTEGRAL =      6.03 TIME LEFT:1209593.35
 STEP:  30 TIME =     0.06 SECS, INTEGRAL =      6.09 TIME LEFT:1209593.29
 STEP:  31 TIME =     0.06 SECS, INTEGRAL =      6.16 TIME LEFT:1209593.23
 STEP:  32 TIME =     0.07 SECS, INTEGRAL =      6.22 TIME LEFT:1209593.16
 STEP:  33 TIME =     0.06 SECS, INTEGRAL =      6.29 TIME LEFT:1209593.10
 STEP:  34 TIME =     0.07 SECS, INTEGRAL =      6.36 TIME LEFT:1209593.03
 STEP:  35 TIME =     0.07 SECS, INTEGRAL =      6.42 TIME LEFT:1209592.96
 STEP:  36 TIME =     0.07 SECS, INTEGRAL =      6.50 TIME LEFT:1209592.89
 STEP:  37 TIME =     0.07 SECS, INTEGRAL =      6.57 TIME LEFT:1209592.82
 STEP:  38 TIME =     0.07 SECS, INTEGRAL =      6.64 TIME LEFT:1209592.75
 STEP:  39 TIME =     0.07 SECS, INTEGRAL =      6.71 TIME LEFT:1209592.68
 STEP:  40 TIME =     0.07 SECS, INTEGRAL =      6.78 TIME LEFT:1209592.61
 STEP:  41 TIME =     0.07 SECS, INTEGRAL =      6.85 TIME LEFT:1209592.53
 STEP:  42 TIME =     0.06 SECS, INTEGRAL =      6.91 TIME LEFT:1209592.47
 STEP:  43 TIME =     0.05 SECS, INTEGRAL =      6.96 TIME LEFT:1209592.42
 STEP:  44 TIME =     0.05 SECS, INTEGRAL =      7.01 TIME LEFT:1209592.38
 STEP:  45 TIME =     0.19 SECS, INTEGRAL =      7.20 TIME LEFT:1209592.19
 STEP:  46 TIME =     0.17 SECS, INTEGRAL =      7.36 TIME LEFT:1209592.02
 STEP:  47 TIME =     0.15 SECS, INTEGRAL =      7.51 TIME LEFT:1209591.87
 STEP:  48 TIME =     0.12 SECS, INTEGRAL =      7.63 TIME LEFT:1209591.75
 STEP:  49 TIME =     0.10 SECS, INTEGRAL =      7.73 TIME LEFT:1209591.65
 STEP:  50 TIME =     0.07 SECS, INTEGRAL =      7.81 TIME LEFT:1209591.57
 STEP:  51 TIME =     0.07 SECS, INTEGRAL =      7.88 TIME LEFT:1209591.51
 STEP:  52 TIME =     0.07 SECS, INTEGRAL =      7.95 TIME LEFT:1209591.43
 STEP:  53 TIME =     0.09 SECS, INTEGRAL =      8.04 TIME LEFT:1209591.34
 STEP:  54 TIME =     0.06 SECS, INTEGRAL =      8.10 TIME LEFT:1209591.28
 STEP:  55 TIME =     0.07 SECS, INTEGRAL =      8.17 TIME LEFT:1209591.21
 STEP:  56 TIME =     0.06 SECS, INTEGRAL =      8.23 TIME LEFT:1209591.15
 STEP:  57 TIME =     0.14 SECS, INTEGRAL =      8.38 TIME LEFT:1209591.00
 STEP:  58 TIME =     0.08 SECS, INTEGRAL =      8.46 TIME LEFT:1209590.92
 STEP:  59 TIME =     0.09 SECS, INTEGRAL =      8.55 TIME LEFT:1209590.84
 STEP:  60 TIME =     0.18 SECS, INTEGRAL =      8.73 TIME LEFT:1209590.66
 STEP:  61 TIME =     0.08 SECS, INTEGRAL =      8.81 TIME LEFT:1209590.57
 STEP:  62 TIME =     0.10 SECS, INTEGRAL =      8.91 TIME LEFT:1209590.47
 STEP:  63 TIME =     0.16 SECS, INTEGRAL =      9.07 TIME LEFT:1209590.31
 STEP:  64 TIME =     0.17 SECS, INTEGRAL =      9.25 TIME LEFT:1209590.14
 STEP:  65 TIME =     0.10 SECS, INTEGRAL =      9.34 TIME LEFT:1209590.04
 STEP:  66 TIME =     0.11 SECS, INTEGRAL =      9.45 TIME LEFT:1209589.93
 STEP:  67 TIME =     0.08 SECS, INTEGRAL =      9.54 TIME LEFT:1209589.85
 STEP:  68 TIME =     0.10 SECS, INTEGRAL =      9.63 TIME LEFT:1209589.75
 STEP:  69 TIME =     0.07 SECS, INTEGRAL =      9.70 TIME LEFT:1209589.68
 STEP:  70 TIME =     0.11 SECS, INTEGRAL =      9.81 TIME LEFT:1209589.57
 STEP:  71 TIME =     0.14 SECS, INTEGRAL =      9.95 TIME LEFT:1209589.43
 STEP:  72 TIME =     0.07 SECS, INTEGRAL =     10.02 TIME LEFT:1209589.36
 STEP:  73 TIME =     0.50 SECS, INTEGRAL =     10.52 TIME LEFT:1209588.86
 STEP:  74 TIME =     0.25 SECS, INTEGRAL =     10.77 TIME LEFT:1209588.61
 STEP:  75 TIME =     0.19 SECS, INTEGRAL =     10.96 TIME LEFT:1209588.42
 STEP:  76 TIME =     1.05 SECS, INTEGRAL =     12.01 TIME LEFT:1209587.38
 STEP:  77 TIME =     0.71 SECS, INTEGRAL =     12.72 TIME LEFT:1209586.66
 STEP:  78 TIME =     0.66 SECS, INTEGRAL =     13.38 TIME LEFT:1209586.00
 STEP:  79 TIME =     0.90 SECS, INTEGRAL =     14.29 TIME LEFT:1209585.10
 STEP:  80 TIME =     0.66 SECS, INTEGRAL =     14.95 TIME LEFT:1209584.43
 STEP:  81 TIME =     0.13 SECS, INTEGRAL =     15.08 TIME LEFT:1209584.30

(To convert to Hartree/Bohr^2, multiply by (10^(-21) x N x a0^2)/(4.184 x 627.51) =  0.0642)


           FORCE MATRIX IN MILLIDYNES/ANGSTROM


                  C  1       H  2       N  3       O  4       O  5       H  6
 ------------------------------------------------------------------------------
     C    1  11.040723
     H    2   3.347643   4.140386
     N    3   0.793353   0.080068  18.762550
     O    4   0.070273   0.016812   9.471665  12.088392
     O    5   0.097744   0.019078   9.669071   2.725456  12.255007
     H    6   0.009018   0.003439   0.076805   0.015349   0.016814   4.142145
     C    7   2.923174   0.673229   2.553350   0.987632   0.990951   0.696395
     H    8   0.643092   0.019847   0.857357   0.070995   0.085052   0.024060
     H    9   3.369820   0.453231   0.053082   0.012417   0.017316   0.006440
     C   10   0.701022   0.041462   0.676929   0.133863   0.139673   3.335360
     H   11   0.012593   0.002727   0.070769   0.031647   0.033229   0.450622
     C   12   0.001055   0.000626   0.003222   0.001965   0.001034   0.000485
     C   13   0.000939   0.000801   0.001576   0.001639   0.000638   0.000378
     C   14   0.000849   0.000290   0.003214   0.001787   0.001775   0.000383
     C   15   0.001952   0.000597   0.002143   0.002165   0.001421   0.000573
     C   16   0.001969   0.000580   0.007929   0.007376   0.003649   0.000611
     N   17   0.003417   0.001013   0.005882   0.003941   0.004701   0.003040
     H   18   0.000494   0.000306   0.001297   0.000898   0.000766   0.000171
     H   19   0.000646   0.000150   0.001307   0.001022   0.001061   0.000169
     H   20   0.000762   0.000184   0.001429   0.001018   0.001168   0.000315
     H   21   3.338145   0.454824   0.073820   0.011323   0.013560   0.045196
     H   22   0.040804   0.007175   0.065904   0.018905   0.016692   0.451675
     H   23   0.000888   0.000407   0.002392   0.001362   0.001499   0.000566
     H   24   0.000529   0.000252   0.001220   0.000806   0.000623   0.000561
     H   25   0.007694   0.000794   0.010001   0.003193   0.002257   0.048450
     H   26   0.007716   0.001587   0.010467   0.007265   0.006581   0.046898
     O   27   0.011102   0.002319   0.030016   0.015012   0.014195   0.024103


                  C  7       H  8       H  9       C 10       H 11       C 12
 ------------------------------------------------------------------------------
     C    7  12.085854
     H    8   3.017387   4.086952
     H    9   0.678117   0.044052   4.155674
     C   10   3.031604   0.637943   0.010977  11.199839
     H   11   0.693512   0.041910   0.013838   3.368609   4.163781
     C   12   0.002386   0.002766   0.000407   0.001664   0.000921  15.161322
     C   13   0.001806   0.001982   0.000621   0.001762   0.000695   5.714191
     C   14   0.000573   0.000399   0.000399   0.000892   0.000424   2.407446
     C   15   0.002435   0.001878   0.000743   0.001816   0.000610   1.710198
     C   16   0.003607   0.002328   0.000647   0.002761   0.000590   2.878772
     N   17   0.006822   0.003348   0.001321   0.011145   0.001715   6.481832
     H   18   0.000707   0.000399   0.000370   0.000848   0.000487   0.726707
     H   19   0.000953   0.000894   0.000545   0.000836   0.000574   0.104814
     H   20   0.000923   0.000466   0.000498   0.000783   0.000476   0.007225
     H   21   0.693253   0.022121   0.450255   0.025652   0.010075   0.001134
     H   22   0.678828   0.022378   0.001850   3.369191   0.452666   0.001225
     H   23   0.000937   0.001425   0.000121   0.001356   0.000516   0.150119
     H   24   0.000576   0.002037   0.000422   0.001263   0.000265   3.342715
     H   25   0.029198   0.032630   0.000904   0.040892   0.005065   0.009032
     H   26   0.027445   0.026056   0.001205   0.054204   0.006213   0.056631
     O   27   0.036111   0.027711   0.001494   0.068349   0.005573   0.023451


                  C 13       C 14       C 15       C 16       N 17       H 18
 ------------------------------------------------------------------------------
     C   13  15.123271
     C   14   6.180514  15.284667
     C   15   2.201997   6.190628  15.081211
     C   16   1.724767   2.417477   5.704090  15.080561
     N   17   2.700535   1.860429   2.733576   6.413140  14.105068
     H   18   3.441959   0.737510   0.096059   0.009380   0.104907   4.320216
     H   19   0.722384   3.433817   0.713362   0.106265   0.042402   0.034862
     H   20   0.098469   0.741061   3.427661   0.726155   0.100490   0.009312
     H   21   0.001181   0.000626   0.001498   0.001143   0.005021   0.000306
     H   22   0.001258   0.000655   0.001738   0.003550   0.009528   0.000587
     H   23   0.023819   0.088576   0.673163   3.328222   0.884024   0.015319
     H   24   0.682151   0.090619   0.022394   0.154163   0.888946   0.024188
     H   25   0.005634   0.001848   0.004471   0.006386   0.038013   0.000804
     H   26   0.023312   0.004700   0.027899   0.045882   0.084917   0.004985
     O   27   0.013644   0.004168   0.013993   0.020206   0.195019   0.001897


                  H 19       H 20       H 21       H 22       H 23       H 24
 ------------------------------------------------------------------------------
     H   19   4.282247
     H   20   0.032881   4.309763
     H   21   0.000335   0.000823   4.136227
     H   22   0.000406   0.000231   0.004527   4.148987
     H   23   0.011322   0.026230   0.000791   0.000879   4.233649
     H   24   0.011271   0.016161   0.000505   0.000977   0.016594   4.253965
     H   25   0.000815   0.001278   0.042804   0.048804   0.003679   0.003679
     H   26   0.004574   0.005003   0.028679   0.033958   0.014330   0.013885
     O   27   0.001653   0.002395   0.040617   0.051483   0.008878   0.009711


                  H 25       H 26       O 27
 ------------------------------------------
     H   25   4.364457
     H   26   0.785283   4.120735
     O   27   3.953282   3.683422   6.208886


          HEAT OF FORMATION =     -79.280173 KCALS/MOLE


          TRIVIAL VIBRATIONS, SHOULD BE ZERO

  20.2868=TX  45.3268=TY  -9.7001=TZ -31.6093=RX  -8.3218=RY -15.9811=RZ


      MOLECULAR POINT GROUP   :   C1  


           EIGENVECTORS  


   Root No.       1         2         3         4         5         6         7         8

                 1 A       2 A       3 A       4 A       5 A       6 A       7 A       8 A   

                  -0.0      -0.0      -0.0       0.0       0.0       0.0       0.0       0.0
  
           1    0.0198   -0.0404   -0.0793   -0.0822   -0.0722    0.0699   -0.0111   -0.0105
           2    0.0177    0.0067    0.0192   -0.0870   -0.0263    0.0236   -0.0412    0.0138
           3    0.0128    0.2048    0.0965    0.1460   -0.0828   -0.0570   -0.0050    0.0349
           4    0.0194   -0.0410   -0.0794   -0.0822   -0.0725    0.0700   -0.0110   -0.0109
           5    0.0445    0.0695   -0.0336   -0.1167   -0.0742    0.1427   -0.0878   -0.1864
           6    0.0366    0.3725    0.2087    0.3062   -0.1151    0.2246   -0.0207   -0.2645
           7   -0.0500   -0.0750    0.0906    0.0865   -0.0372   -0.0033    0.0816   -0.0356
           8    0.0188    0.0034    0.0203   -0.0864   -0.0213    0.0217   -0.0387   -0.0024
           9   -0.0301    0.1054   -0.0464   -0.0725    0.2450    0.1521    0.0933    0.0764
          10   -0.0600   -0.0798    0.0863    0.0857   -0.0229   -0.0156    0.0865   -0.1290
          11    0.0595    0.0412    0.0062   -0.1107   -0.0337    0.1164   -0.0664    0.2584
          12   -0.0284    0.1302   -0.0990   -0.1175    0.3278    0.2245    0.0818   -0.1601
          13   -0.0814   -0.1157    0.1275    0.1174   -0.0493   -0.0721    0.1162   -0.0017
          14   -0.0050   -0.0060    0.0299   -0.0501   -0.0847   -0.1105   -0.0516   -0.2861
          15   -0.0406    0.0725   -0.0165   -0.0750    0.2928    0.2076    0.1411    0.3889
          16    0.0445    0.0591    0.0156    0.0144   -0.0353    0.1823   -0.0141    0.0949
          17   -0.0653   -0.0798    0.1151   -0.0082    0.1487    0.0174    0.0897   -0.0052
          18   -0.1009   -0.0098   -0.0483   -0.0492   -0.0467   -0.2102    0.0679   -0.1671
          19    0.0025   -0.0115    0.0457    0.0453   -0.0372    0.1046    0.0311    0.0361
          20   -0.0102   -0.0293    0.0183   -0.1098    0.0782    0.0660    0.0092    0.0125
          21   -0.0225    0.1170   -0.0096   -0.0011    0.0718   -0.0114    0.0485   -0.0060
          22    0.0399    0.0565    0.1055    0.1086   -0.0070    0.2081    0.0263    0.1267
          23   -0.0249   -0.0653   -0.0721   -0.2341    0.2191    0.1739    0.0359    0.0250
          24   -0.0070    0.1363    0.0084    0.0159    0.0885    0.0307    0.0488    0.0276
          25   -0.0039   -0.1930   -0.1879   -0.2317   -0.0477   -0.1810   -0.0003    0.2472
          26    0.0247   -0.0113    0.0764   -0.0209   -0.1327   -0.1742   -0.0672    0.2322
          27    0.0055    0.1547    0.0673    0.1046   -0.0847   -0.1546   -0.0039    0.1369
          28    0.0016   -0.0138    0.0451    0.0445   -0.0375    0.1015    0.0317    0.0340
          29   -0.0642   -0.0561    0.1293    0.0021    0.0956    0.0221    0.0700    0.0064
          30   -0.0611    0.0109   -0.0872   -0.0846    0.0321   -0.1619    0.0626   -0.1369
          31   -0.0186   -0.0870   -0.0136   -0.0167   -0.0663    0.0006    0.0387   -0.0595
          32   -0.1180   -0.0472    0.2260    0.0978    0.0178   -0.0065    0.0821    0.0114
          33   -0.0737   -0.0191   -0.1009   -0.0993    0.0132   -0.2049    0.0679   -0.1755
          34    0.0075   -0.1044    0.0474    0.1105    0.1932   -0.0988   -0.0891   -0.0539
          35   -0.0148   -0.0130   -0.1126    0.1435   -0.0298    0.0029    0.0361    0.0373
          36   -0.0000   -0.1944   -0.0979    0.1421   -0.0095    0.0622   -0.0506    0.0212
          37   -0.0073   -0.0553    0.0511    0.0224    0.0816   -0.0926    0.1144   -0.0542
          38   -0.0143   -0.0069    0.0480    0.0460   -0.0117   -0.0369    0.0381    0.0015
          39   -0.0095   -0.1621   -0.0926    0.0901   -0.0733    0.0642    0.0693    0.0212
          40   -0.0088    0.0223   -0.0174   -0.0817   -0.0772   -0.0379    0.1695   -0.0188
          41   -0.0131    0.0125    0.1210   -0.0247   -0.0279   -0.0459    0.0243   -0.0086
          42   -0.0067   -0.1275    0.0253   -0.0421   -0.1167    0.0558    0.0447    0.0069
          43   -0.0014    0.0496   -0.0813   -0.0997   -0.1214    0.0102    0.0037    0.0161
          44   -0.0130    0.0206    0.0344    0.0022   -0.0600   -0.0144   -0.0015    0.0160
          45    0.0025   -0.1214    0.1363   -0.1211   -0.0985    0.0456   -0.0981   -0.0063
          46    0.0151   -0.0000   -0.0708   -0.0201   -0.0059    0.0008   -0.2063    0.0114
          47   -0.0144    0.0154   -0.1231    0.0973   -0.0774    0.0246   -0.0055    0.0509
          48    0.0115   -0.1456    0.1280   -0.0683   -0.0369    0.0433   -0.2113   -0.0050
          49    0.0220   -0.0751   -0.0122    0.0848    0.1486   -0.0524   -0.2454   -0.0223
          50   -0.0143    0.0023   -0.1965    0.1674   -0.0627    0.0326    0.0165    0.0615
          51    0.0147   -0.1837    0.0099    0.0625    0.0071    0.0519   -0.1834    0.0079
          52   -0.0164   -0.0749    0.1054    0.0373    0.1203   -0.1333    0.2428   -0.0830
          53   -0.0152   -0.0141    0.1138    0.0270    0.0143   -0.0621    0.0590   -0.0181
          54   -0.0182   -0.1690   -0.1807    0.1534   -0.0878    0.0734    0.1787    0.0324
          55   -0.0168    0.0670   -0.0238   -0.1493   -0.1677   -0.0338    0.3517   -0.0179
          56   -0.0111    0.0149    0.2455   -0.1000   -0.0131   -0.0764    0.0250   -0.0366
          57   -0.0112   -0.1027    0.0286   -0.0834   -0.1661    0.0564    0.1455    0.0059
          58   -0.0048    0.1098   -0.1404   -0.1798   -0.2464    0.0566    0.0327    0.0468
          59   -0.0124    0.0343    0.0871   -0.0500   -0.0729   -0.0201   -0.0145    0.0088
          60    0.0029   -0.0913    0.2275   -0.2230   -0.1326    0.0392   -0.1197   -0.0168
          61    0.0571    0.0916   -0.0710   -0.0332   -0.1285    0.3038   -0.0563   -0.3192
          62    0.0020   -0.0108    0.0137   -0.1068    0.0465    0.0677   -0.0090   -0.0086
          63    0.0210    0.1584    0.1008    0.1503   -0.1799   -0.2791   -0.0351    0.2633
          64   -0.0209   -0.0017    0.1311    0.1327   -0.0128    0.1178    0.0653    0.0660
          65   -0.0594   -0.0755    0.1307    0.0049    0.1351    0.0175    0.0916   -0.0014
          66   -0.0162   -0.0417   -0.1699   -0.1667    0.0945   -0.1909    0.0758   -0.1871
          67    0.0223    0.0266   -0.1161   -0.0386   -0.0395    0.0373   -0.3471    0.0379
          68   -0.0132    0.0273   -0.1961    0.1207   -0.1055    0.0500   -0.0221    0.0721
          69    0.0169   -0.1381    0.2163   -0.1324   -0.0207    0.0351   -0.3333   -0.0159
          70    0.0073   -0.1727    0.0893    0.2098    0.3261   -0.1417   -0.1355   -0.0804
          71   -0.0170   -0.0274   -0.1769    0.2073   -0.0150    0.0099    0.0515    0.0473
          72   -0.0027   -0.2269   -0.1931    0.2565    0.0325    0.0674   -0.0335    0.0334
          73    0.5199    0.1981    0.0530   -0.0564    0.1707   -0.1693    0.0239    0.0600
          74    0.2754    0.0899   -0.1183    0.0171    0.0649   -0.1082   -0.0540   -0.1078
          75    0.5303    0.0248   -0.0195   -0.0085    0.0172   -0.0679    0.1064    0.0299
          76   -0.0855    0.1401   -0.0375    0.0100    0.1332   -0.0936   -0.1488    0.0491
          77   -0.1241    0.0485   -0.2454    0.1158   -0.0126   -0.0468   -0.1054   -0.0870
          78    0.0350   -0.0008   -0.0490    0.0063    0.0175   -0.0084   -0.0758    0.0176
          79   -0.4028    0.3207   -0.0629   -0.0384    0.1110   -0.1382   -0.1508    0.0709
          80    0.1813    0.0561   -0.1604    0.0565    0.0413   -0.0869   -0.0640   -0.1069
          81   -0.2610    0.2464   -0.0429   -0.0890    0.0114   -0.0878   -0.0619    0.0368


   Root No.       9        10        11        12        13        14        15        16

                 9 A      10 A      11 A      12 A      13 A      14 A      15 A      16 A   

                   0.0       0.0       0.0       0.0       0.1       0.1       0.2       0.2
  
           1   -0.0013    0.0003    0.0601    0.0239   -0.0227    0.0036   -0.0678    0.1068
           2   -0.0121   -0.0248    0.0040   -0.0203    0.0031    0.0031    0.0022   -0.0111
           3   -0.0530   -0.1080    0.1073   -0.0308   -0.0224    0.0020   -0.0088    0.0296
           4   -0.0019   -0.0000    0.0609    0.0242   -0.0238    0.0038   -0.0754    0.1254
           5   -0.1190    0.0248   -0.0517   -0.0308   -0.0207    0.0081   -0.1204    0.2755
           6   -0.1826   -0.0143    0.0004   -0.0903   -0.0069    0.0013    0.0513   -0.0764
           7    0.0050    0.0160   -0.0114   -0.0284    0.0052   -0.0026    0.0238   -0.0743
           8    0.0000   -0.0288   -0.0092   -0.0194    0.0139    0.0006    0.0754   -0.1278
           9   -0.0040   -0.1115    0.0761    0.0752   -0.0311   -0.0004   -0.0122    0.0200
          10    0.1242   -0.0438    0.0050   -0.0262    0.0012   -0.0028    0.0121   -0.0560
          11   -0.2576    0.1064   -0.0140   -0.0037    0.0249    0.0019    0.1108   -0.1911
          12    0.4381   -0.3258    0.1937    0.1205   -0.0424   -0.0000   -0.0401    0.0637
          13   -0.1428    0.0872   -0.0836   -0.0553    0.0050   -0.0032    0.0106   -0.0580
          14    0.2613   -0.1653    0.0037   -0.0507    0.0100   -0.0009    0.0836   -0.1276
          15   -0.4116    0.0967   -0.0121    0.0771   -0.0270    0.0004   -0.0336    0.0372
          16    0.0991   -0.0122    0.1011    0.0226    0.0234   -0.0009    0.1091   -0.2691
          17   -0.0259    0.0075    0.0322   -0.3343    0.0417   -0.0011   -0.0642    0.2146
          18   -0.1589   -0.1011   -0.2038    0.4389   -0.0999   -0.0008    0.0463   -0.0934
          19    0.0455   -0.0006    0.0619    0.0041    0.0074   -0.0009    0.0410   -0.1095
          20    0.0112   -0.0243   -0.0276   -0.0014    0.0131   -0.0003    0.0619   -0.1208
          21   -0.0505   -0.1058    0.0502    0.0191   -0.0294   -0.0002    0.0055    0.0153
          22    0.1150   -0.0106    0.1170    0.0112    0.0278   -0.0011    0.0602   -0.1345
          23    0.0418   -0.0320   -0.0242    0.0462    0.0053   -0.0007    0.0663   -0.1842
          24   -0.0276   -0.1113    0.0698    0.0239   -0.0232   -0.0004    0.0143   -0.0006
          25    0.1059   -0.0867    0.1603    0.0746   -0.0430    0.0046   -0.1420    0.2686
          26    0.0739   -0.0871    0.1215   -0.0392    0.0071    0.0038   -0.0058   -0.0320
          27   -0.0119   -0.1419    0.1508   -0.0173   -0.0289    0.0023   -0.0314    0.0740
          28    0.0434   -0.0003    0.0594    0.0038    0.0067   -0.0009    0.0399   -0.1055
          29   -0.0016   -0.0053   -0.0659   -0.0235    0.0150   -0.0010   -0.0133    0.0963
          30   -0.1497   -0.0882   -0.0430    0.0062   -0.0446   -0.0013    0.0302   -0.0465
          31   -0.0211    0.0048   -0.0012    0.0005   -0.0053   -0.0024    0.0891   -0.2252
          32    0.0185   -0.0127   -0.2348    0.4938   -0.0587    0.0015   -0.0678    0.2007
          33   -0.1751   -0.0892   -0.0836    0.0560   -0.0573   -0.0019    0.0486   -0.0890
          34   -0.0734   -0.0352    0.0281    0.0263    0.0815    0.1066   -0.0393   -0.0085
          35    0.0186   -0.0644   -0.0885   -0.0284   -0.0064    0.0229   -0.0308   -0.0133
          36    0.0537    0.0597   -0.0497   -0.0333   -0.0806    0.0520    0.0014    0.0035
          37   -0.0454    0.0279    0.0537    0.0256    0.0696   -0.1124   -0.0536   -0.0211
          38    0.0126   -0.0220   -0.0279   -0.0075    0.0077   -0.0304   -0.0237   -0.0112
          39    0.0706    0.0961   -0.0352   -0.0343   -0.0904   -0.0764   -0.0070   -0.0041
          40   -0.0358    0.0060    0.0270    0.0174    0.0541   -0.0057    0.0094    0.0048
          41    0.0084   -0.0133   -0.0056    0.0013    0.0092    0.0008    0.0011   -0.0002
          42    0.0633    0.1095    0.0010   -0.0194   -0.0880   -0.0094    0.0429    0.0180
          43   -0.0583   -0.0820   -0.0286    0.0089    0.0549    0.1216   -0.0283   -0.0126
          44    0.0081   -0.0468   -0.0429   -0.0100   -0.0015    0.0335   -0.0101   -0.0052
          45    0.0375    0.0823    0.0181   -0.0046   -0.0660    0.0706    0.0269    0.0107
          46   -0.0891   -0.1399   -0.0458    0.0146    0.0794   -0.1110   -0.0425   -0.0071
          47    0.0141   -0.0865   -0.1012   -0.0301   -0.0173   -0.0359   -0.0220   -0.0081
          48    0.0210    0.0448    0.0017   -0.0038   -0.0524   -0.0660    0.0148    0.0116
          49   -0.0924   -0.1112   -0.0145    0.0230    0.0789   -0.0190    0.0088    0.0158
          50    0.0199   -0.0956   -0.1225   -0.0385   -0.0194   -0.0150   -0.0179   -0.0067
          51    0.0290    0.0328   -0.0294   -0.0159   -0.0510   -0.0169    0.0241    0.0147
          52   -0.0308    0.0950    0.0970    0.0328    0.0799   -0.3695   -0.1242   -0.0603
          53    0.0120    0.0044    0.0014    0.0015    0.0182   -0.1005   -0.0413   -0.0211
          54    0.0903    0.1160   -0.0521   -0.0473   -0.1041   -0.2272   -0.0526   -0.0294
          55   -0.0103    0.0579    0.0502    0.0176    0.0404   -0.0190    0.0972    0.0436
          56    0.0044    0.0200    0.0423    0.0181    0.0205    0.0065    0.0322    0.0143
          57    0.0776    0.1404    0.0163   -0.0186   -0.0962   -0.0163    0.0939    0.0407
          58   -0.0538   -0.1095   -0.0579   -0.0006    0.0434    0.4258   -0.0541   -0.0381
          59    0.0040   -0.0431   -0.0279   -0.0035    0.0029    0.1152   -0.0117   -0.0091
          60    0.0305    0.0871    0.0434    0.0065   -0.0592    0.2449    0.0237    0.0027
          61   -0.1544    0.0909   -0.0360   -0.0089   -0.0392    0.0083   -0.1716    0.3178
          62   -0.0055   -0.0163   -0.0311   -0.0083    0.0128    0.0005    0.0608   -0.1184
          63    0.0308   -0.1774    0.2317   -0.0326   -0.0329    0.0047   -0.0727    0.1053
          64    0.0617    0.0086    0.0682   -0.0055    0.0067    0.0001   -0.0527    0.1337
          65   -0.0184    0.0014   -0.0055   -0.2498    0.0454   -0.0020   -0.0434    0.2155
          66   -0.2040   -0.0826    0.0750   -0.4704    0.0206   -0.0050    0.0744   -0.0694
          67   -0.1116   -0.2177   -0.0914    0.0108    0.1014   -0.3997   -0.1075   -0.0249
          68    0.0129   -0.1201   -0.1357   -0.0394   -0.0143   -0.1184   -0.0507   -0.0190
          69   -0.0005    0.0235    0.0168    0.0091   -0.0374   -0.2255   -0.0005    0.0133
          70   -0.0825   -0.0269    0.0433    0.0314    0.1054    0.4233   -0.0688   -0.0176
          71    0.0238   -0.0725   -0.1104   -0.0385   -0.0171    0.1082   -0.0415   -0.0172
          72    0.0612    0.0485   -0.0823   -0.0486   -0.0970    0.2304   -0.0175   -0.0030
          73    0.1311    0.0847   -0.3242   -0.0951   -0.3717   -0.0104    0.0445    0.0502
          74   -0.0176    0.2983    0.2713    0.1012   -0.2212    0.0233   -0.3597   -0.2023
          75    0.1102    0.0457   -0.2387    0.0522    0.5016   -0.0059    0.2042    0.1901
          76    0.0956    0.1385   -0.1066   -0.0576   -0.2195   -0.0246    0.3425    0.0467
          77   -0.0486    0.2328    0.3423    0.1734    0.1970   -0.0282    0.4755    0.2509
          78    0.0996    0.1445   -0.0490    0.0252    0.3954    0.0065    0.0307   -0.0984
          79    0.1783    0.2590   -0.1921   -0.0955   -0.1472   -0.0115    0.1396    0.1088
          80   -0.0393    0.2655    0.3079    0.1417   -0.0710    0.0047   -0.0453   -0.0412
          81    0.2159    0.3296   -0.1737   -0.0429    0.3508    0.0387   -0.4570   -0.1402


   Root No.      17        18        19        20        21        22        23        24

                17 A      18 A      19 A      20 A      21 A      22 A      23 A      24 A   

                   0.2       0.2       0.2       0.3       0.5       0.7       0.8       0.8
  
           1    0.0095    0.0441    0.0159   -0.0053   -0.0002   -0.0745   -0.0395   -0.0577
           2    0.0074   -0.1543   -0.0290    0.0430    0.0004    0.0442   -0.0757   -0.0629
           3    0.0056    0.0090    0.0102   -0.0859   -0.0010    0.0686   -0.0266   -0.0319
           4    0.0125    0.0434    0.0192   -0.0096   -0.0001   -0.0724   -0.0405   -0.0603
           5    0.0633   -0.2702    0.0043    0.0285    0.0050    0.3610    0.0700    0.1407
           6   -0.0076   -0.0281   -0.0132    0.0864    0.0007   -0.0968   -0.1341   -0.3152
           7    0.0077   -0.1440   -0.0251   -0.0609   -0.0006   -0.0301   -0.0382    0.0274
           8   -0.0236    0.0791   -0.0028   -0.1082   -0.0008    0.0177    0.0098   -0.0082
           9    0.0036   -0.0338   -0.0005   -0.0589   -0.0009   -0.0110    0.0740    0.0010
          10    0.0175   -0.2303   -0.0345   -0.0460   -0.0001   -0.0001   -0.0497    0.0062
          11   -0.0697    0.4070    0.0220   -0.0165   -0.0017   -0.0736   -0.0528    0.0800
          12   -0.0071   -0.0535   -0.0187    0.2602    0.0009    0.0236   -0.1835    0.0235
          13    0.0435   -0.3844   -0.0420   -0.2323   -0.0006    0.0340    0.0853   -0.0431
          14   -0.0086    0.0538    0.0126   -0.3623   -0.0013    0.0032    0.2112   -0.0347
          15    0.0248   -0.2469   -0.0316    0.0107   -0.0004    0.0653   -0.0079   -0.0408
          16   -0.0301   -0.0809   -0.0467   -0.2048   -0.0004   -0.1031   -0.3905    0.5196
          17    0.0058    0.1547    0.0482    0.0523    0.0007    0.0905    0.0625   -0.0311
          18   -0.0150    0.0665   -0.0031    0.1109   -0.0010   -0.0870    0.0335   -0.1278
          19   -0.0315    0.0936   -0.0129    0.0659   -0.0010   -0.0328   -0.0323    0.0028
          20   -0.0103   -0.0990   -0.0307   -0.0438   -0.0002    0.0387   -0.0435    0.0034
          21    0.0065    0.0794    0.0321   -0.3002   -0.0015   -0.0153    0.0076   -0.0002
          22   -0.0485    0.1632   -0.0114    0.0800   -0.0007    0.4364    0.3227   -0.0374
          23   -0.0118   -0.1682   -0.0530   -0.0175   -0.0018   -0.3922    0.5117   -0.0400
          24    0.0041    0.0974    0.0336   -0.2737   -0.0015    0.1250    0.1599   -0.0156
          25    0.0347    0.0740    0.0532   -0.1863    0.0015    0.1221   -0.1213   -0.2535
          26    0.0064   -0.3032   -0.0712    0.3865    0.0015   -0.2628   -0.1219   -0.1480
          27    0.0134   -0.0011    0.0163   -0.1035   -0.0004    0.0914   -0.0495   -0.1021
          28   -0.0290    0.0875   -0.0117    0.0661   -0.0009   -0.0161   -0.0164    0.0213
          29    0.0062    0.0525    0.0250    0.0098    0.0014    0.0494   -0.0509    0.0956
          30   -0.0024    0.0602    0.0125   -0.0448   -0.0003   -0.0892   -0.0576    0.0302
          31   -0.0542    0.1011   -0.0424    0.4498    0.0008    0.3208    0.1592   -0.0215
          32    0.0244    0.1520    0.0618    0.0603    0.0028    0.0434   -0.1303    0.2911
          33   -0.0136    0.0795    0.0023    0.1271    0.0005    0.0548    0.0119    0.0318
          34    0.0085    0.0064   -0.0554   -0.0049   -0.1884    0.0000   -0.0019    0.0014
          35    0.0234    0.0038   -0.0047   -0.0004   -0.0591   -0.0001    0.0005   -0.0002
          36   -0.0098    0.0021   -0.0403   -0.0046   -0.1126   -0.0002   -0.0017    0.0013
          37   -0.0632   -0.0144    0.0511   -0.0023   -0.1648    0.0001   -0.0016    0.0014
          38   -0.0007   -0.0027    0.0206   -0.0002   -0.0483    0.0001    0.0001    0.0002
          39   -0.0536   -0.0105    0.0240   -0.0030   -0.0914   -0.0002   -0.0014    0.0013
          40    0.0933    0.0196   -0.0905   -0.0020   -0.1436    0.0006   -0.0008    0.0007
          41    0.0347    0.0052   -0.0181   -0.0005   -0.0345    0.0001    0.0005   -0.0001
          42    0.0263    0.0075   -0.0616   -0.0036   -0.0799   -0.0000   -0.0007    0.0006
          43   -0.0457   -0.0084    0.0553    0.0018   -0.1598    0.0008   -0.0001   -0.0001
          44   -0.0018   -0.0017    0.0193    0.0007   -0.0451    0.0002    0.0008   -0.0005
          45   -0.0531   -0.0089    0.0187   -0.0020   -0.0903    0.0002   -0.0005    0.0005
          46    0.0174    0.0109   -0.0433   -0.0008   -0.1870    0.0008   -0.0005   -0.0001
          47    0.0183    0.0041   -0.0036    0.0005   -0.0540    0.0000    0.0011   -0.0009
          48   -0.0165    0.0019   -0.0338   -0.0034   -0.0995    0.0001   -0.0006    0.0004
          49    0.1301    0.0301   -0.1522   -0.0019   -0.3957    0.0003   -0.0016    0.0000
          50    0.0542    0.0100   -0.0286    0.0007   -0.1089   -0.0000    0.0006   -0.0007
          51    0.0654    0.0157   -0.0937   -0.0032   -0.2331    0.0001   -0.0019    0.0008
          52   -0.2790   -0.0696    0.3116    0.0017    0.0918   -0.0012   -0.0019    0.0008
          53   -0.0635   -0.0188    0.0940    0.0008    0.0304   -0.0003   -0.0004   -0.0002
          54   -0.1706   -0.0404    0.1712   -0.0005    0.0375   -0.0008   -0.0005    0.0015
          55    0.3652    0.0792   -0.3700   -0.0068    0.2251   -0.0004    0.0003   -0.0003
          56    0.0997    0.0195   -0.0926   -0.0021    0.0549   -0.0001    0.0006   -0.0012
          57    0.1793    0.0412   -0.2206   -0.0064    0.1293   -0.0006    0.0002   -0.0000
          58   -0.2369   -0.0566    0.3078    0.0093    0.0646   -0.0001    0.0022   -0.0031
          59   -0.0552   -0.0151    0.0849    0.0023    0.0180    0.0000    0.0007    0.0001
          60   -0.1673   -0.0373    0.1575    0.0016    0.0446   -0.0001   -0.0003    0.0014
          61    0.0470   -0.0297    0.0335    0.0349   -0.0003   -0.1922    0.1279    0.1567
          62   -0.0115   -0.0884   -0.0292   -0.0804   -0.0001    0.1705   -0.3239   -0.3447
          63    0.0198   -0.0975   -0.0087    0.1278   -0.0015   -0.0875    0.3041    0.3414
          64   -0.0091    0.2781    0.0557    0.0129   -0.0003   -0.3830    0.0261   -0.2524
          65    0.0024    0.1631    0.0520    0.0603    0.0023   -0.0918   -0.0670    0.0587
          66   -0.0290    0.0909   -0.0005    0.1245    0.0007   -0.0336   -0.1324    0.2128
          67   -0.0111    0.0173   -0.0647   -0.0042    0.4174    0.0004    0.0003   -0.0002
          68    0.0176    0.0067   -0.0038    0.0001    0.1070    0.0001    0.0003   -0.0002
          69   -0.0473    0.0040   -0.0561   -0.0061    0.2578   -0.0008    0.0018   -0.0012
          70   -0.0080    0.0128   -0.1066   -0.0126    0.3892   -0.0014   -0.0012    0.0026
          71    0.0154    0.0052   -0.0157   -0.0022    0.1211   -0.0007    0.0005   -0.0006
          72   -0.0250    0.0050   -0.0652   -0.0083    0.2519   -0.0012   -0.0020    0.0009
          73   -0.0783   -0.0028   -0.0443    0.0075    0.0049   -0.0084    0.0062   -0.0052
          74    0.1122    0.0402    0.0029   -0.0015   -0.0121    0.0049   -0.0111    0.0029
          75   -0.1919   -0.0279   -0.0978    0.0048   -0.0025   -0.0095    0.0062   -0.0064
          76    0.3326   -0.0367    0.3801    0.0482    0.0549   -0.0034    0.0029   -0.0028
          77   -0.2381   -0.0457   -0.0635   -0.0075    0.0201   -0.0054    0.0125   -0.0017
          78    0.5306   -0.0201    0.4554    0.0568    0.0355   -0.0022    0.0042   -0.0050
          79   -0.1950   -0.0033   -0.1298    0.0026   -0.0056    0.0031    0.0049   -0.0031
          80    0.0035    0.0101   -0.0010   -0.0027    0.0024    0.0031   -0.0061    0.0031
          81   -0.0696    0.0459   -0.1884   -0.0028   -0.0417    0.0071   -0.0024   -0.0030


   Root No.      25        26        27        28        29        30        31        32

                25 A      26 A      27 A      28 A      29 A      30 A      31 A      32 A   

                   0.9       0.9       0.9       0.9       1.0       1.0       1.1       1.1
  
           1    0.0008   -0.0004   -0.0694   -0.0153    0.0003    0.0008    0.0021   -0.0010
           2   -0.0004   -0.0001    0.0452    0.0182   -0.0003    0.0023   -0.0397   -0.0009
           3    0.0001    0.0002   -0.0040   -0.0163   -0.0006    0.0025   -0.0712   -0.0005
           4    0.0008   -0.0004   -0.0779   -0.0112    0.0003    0.0008    0.0036   -0.0010
           5   -0.0072    0.0017    0.5141   -0.1293    0.0008   -0.0070    0.1559    0.0010
           6    0.0027   -0.0009   -0.2269   -0.2862   -0.0000   -0.0116    0.3133   -0.0003
           7   -0.0000    0.0006    0.0127   -0.0160   -0.0008    0.0031   -0.0469   -0.0014
           8    0.0001   -0.0004    0.0075    0.0214   -0.0001    0.0059   -0.1289   -0.0015
           9    0.0004    0.0001   -0.0144    0.0172    0.0005    0.0008   -0.0722    0.0008
          10   -0.0001    0.0007    0.0163   -0.0051   -0.0008    0.0029   -0.0473   -0.0012
          11   -0.0001   -0.0005    0.0139   -0.0284   -0.0006    0.0101   -0.1809   -0.0038
          12   -0.0004    0.0006    0.0385   -0.0064   -0.0010    0.0054   -0.1546   -0.0020
          13    0.0005    0.0004   -0.0101    0.0369   -0.0005    0.0042   -0.0925   -0.0007
          14    0.0007   -0.0008   -0.0393    0.0558    0.0004    0.0051   -0.1509   -0.0000
          15    0.0005    0.0003    0.0075    0.0391    0.0002    0.0034   -0.1177   -0.0001
          16   -0.0026    0.0013    0.0616   -0.0809   -0.0002   -0.0053    0.1111    0.0021
          17    0.0035   -0.0006   -0.1897   -0.1250   -0.0009    0.0087   -0.2187   -0.0004
          18   -0.0026    0.0012    0.2248    0.2419    0.0010   -0.0044    0.1132    0.0001
          19   -0.0002    0.0001    0.0086   -0.0160   -0.0001    0.0010   -0.0003   -0.0007
          20    0.0000   -0.0001    0.0072    0.0127   -0.0002    0.0029   -0.0602   -0.0009
          21    0.0004    0.0002   -0.0099    0.0113    0.0001    0.0033   -0.1213    0.0001
          22   -0.0004   -0.0007   -0.0441    0.4738    0.0026   -0.0127    0.3166    0.0028
          23    0.0018   -0.0013   -0.1028   -0.2637    0.0015   -0.0123    0.3369    0.0011
          24    0.0007   -0.0002   -0.0441    0.1699    0.0010   -0.0009   -0.0351    0.0014
          25    0.0025   -0.0008   -0.1909   -0.2225    0.0004   -0.0103    0.2745   -0.0002
          26    0.0027   -0.0010   -0.1476    0.3858    0.0015   -0.0013   -0.0722    0.0030
          27    0.0009    0.0001   -0.0569   -0.0627   -0.0005   -0.0012    0.0055    0.0002
          28   -0.0008    0.0003    0.0582   -0.0287   -0.0001    0.0006   -0.0047   -0.0000
          29    0.0008    0.0002   -0.0525    0.0047   -0.0005    0.0012   -0.0304    0.0003
          30    0.0000    0.0007    0.0344    0.0155    0.0003    0.0010   -0.0715    0.0007
          31    0.0016   -0.0001   -0.0403   -0.3559   -0.0012    0.0080   -0.2337   -0.0003
          32    0.0018   -0.0000   -0.2567   -0.0584   -0.0005   -0.0079    0.2119    0.0008
          33    0.0010    0.0005   -0.0217   -0.1065   -0.0000    0.0030   -0.1428    0.0009
          34   -0.0074    0.0028    0.0004   -0.0008    0.0212   -0.0070    0.0008   -0.0607
          35    0.0499    0.0487    0.0005    0.0001   -0.1087   -0.0217   -0.0000   -0.0189
          36   -0.0137   -0.0306    0.0002   -0.0007    0.0050    0.0183    0.0008    0.1218
          37   -0.0121    0.0365   -0.0002   -0.0016    0.0916   -0.2989   -0.0107   -0.0497
          38    0.0526   -0.0346    0.0007   -0.0000   -0.1374   -0.0947   -0.0033    0.0331
          39   -0.0132   -0.0444    0.0001   -0.0011    0.0055   -0.1573   -0.0058    0.1408
          40    0.0451    0.0135    0.0003   -0.0016    0.0679   -0.3710   -0.0138   -0.0657
          41    0.0064   -0.0374    0.0001   -0.0000   -0.0787   -0.1119   -0.0040    0.0065
          42   -0.0975   -0.0007   -0.0013   -0.0012    0.0520   -0.1898   -0.0074    0.1963
          43    0.0103   -0.0205   -0.0002   -0.0013    0.0558   -0.3100   -0.0117   -0.0438
          44   -0.0520   -0.0471   -0.0006    0.0005   -0.1393   -0.1042   -0.0035   -0.0110
          45   -0.0074    0.0453   -0.0004   -0.0014    0.0839   -0.1560   -0.0061    0.1440
          46    0.0093   -0.0302    0.0003   -0.0003    0.0193   -0.0029    0.0003   -0.0865
          47   -0.0609    0.0391   -0.0010    0.0002   -0.1019   -0.0157   -0.0001    0.0237
          48   -0.0075    0.0171   -0.0001   -0.0009    0.0273    0.0130    0.0006    0.1170
          49   -0.0480   -0.0107    0.0005    0.0010   -0.0426    0.4082    0.0165   -0.1373
          50   -0.0098   -0.0017    0.0000    0.0005   -0.0915    0.1000    0.0044   -0.0181
          51    0.0623   -0.0031    0.0013   -0.0005   -0.0190    0.2632    0.0097    0.1236
          52   -0.1801   -0.1328   -0.0011   -0.0005    0.1204    0.2722    0.0096    0.0247
          53   -0.2197   -0.3144   -0.0017   -0.0006   -0.0376    0.1007    0.0023    0.2605
          54    0.4293    0.3843    0.0049    0.0019   -0.2829    0.0865    0.0062   -0.2306
          55    0.0665   -0.1408    0.0015    0.0007   -0.1512    0.2166    0.0087   -0.1350
          56   -0.0211    0.6551   -0.0029   -0.0005    0.4642    0.1367    0.0037   -0.0586
          57   -0.1002   -0.0496   -0.0010    0.0001   -0.0362    0.1538    0.0056    0.2172
          58   -0.2928    0.2407   -0.0051    0.0006   -0.1535    0.2597    0.0078    0.1658
          59    0.1998   -0.2594    0.0036    0.0016   -0.0972    0.0312    0.0025   -0.2496
          60    0.4341   -0.3041    0.0068    0.0007    0.2133    0.1525    0.0069   -0.2295
          61    0.0033   -0.0014   -0.2805    0.2593    0.0005    0.0083   -0.2350   -0.0005
          62    0.0001   -0.0000    0.0588    0.0145   -0.0006    0.0001    0.0086   -0.0002
          63   -0.0025    0.0007    0.0983   -0.1839   -0.0005    0.0033   -0.0216   -0.0028
          64   -0.0061    0.0020    0.5601   -0.0135    0.0003   -0.0010   -0.0445    0.0021
          65   -0.0018    0.0011    0.1386    0.0870    0.0002   -0.0070    0.1615    0.0019
          66   -0.0010    0.0010   -0.0208    0.1846    0.0012   -0.0148    0.3796    0.0011
          67    0.1636   -0.0540    0.0016   -0.0007    0.2010   -0.0515   -0.0034    0.0851
          68    0.1991   -0.0246    0.0022   -0.0015    0.2091    0.0334    0.0002    0.3614
          69   -0.3589    0.1250   -0.0049    0.0015   -0.4289   -0.1416   -0.0043   -0.2815
          70    0.2373    0.0950    0.0024   -0.0008   -0.2356   -0.0967   -0.0035    0.2853
          71   -0.1521   -0.0239   -0.0015    0.0005    0.1165   -0.0498   -0.0010   -0.3359
          72   -0.3172   -0.1450   -0.0027   -0.0002    0.3794   -0.0227   -0.0011   -0.3017
          73    0.0053   -0.0006   -0.0003   -0.0050   -0.0015    0.0013   -0.0057    0.0104
          74   -0.0011    0.0002    0.0069    0.0055   -0.0029    0.0046    0.0096   -0.0031
          75   -0.0011    0.0013   -0.0097   -0.0216    0.0014   -0.0016   -0.0126   -0.0043
          76    0.0017    0.0003   -0.0030    0.0013    0.0050   -0.0301   -0.0033    0.0057
          77    0.0071    0.0010   -0.0032   -0.0006    0.0035   -0.0069   -0.0095    0.0122
          78   -0.0051    0.0006   -0.0011    0.0027    0.0001   -0.0247   -0.0045   -0.0066
          79    0.0020   -0.0009   -0.0014    0.0042    0.0013    0.0098    0.0054    0.0017
          80   -0.0002    0.0008    0.0004   -0.0010    0.0014   -0.0025    0.0058   -0.0024
          81   -0.0041   -0.0004    0.0030    0.0031   -0.0027    0.0167    0.0085   -0.0060


   Root No.      33        34        35        36        37        38        39        40

                33 A      34 A      35 A      36 A      37 A      38 A      39 A      40 A   

                   1.2       1.5       1.5       1.6       1.6       1.7       1.7       1.8
  
           1    0.0888   -0.2330   -0.0020    0.2151    0.0009   -0.1009   -0.1668    0.0006
           2    0.0291   -0.0152   -0.0003    0.2133    0.0003    0.1151   -0.1027    0.0000
           3   -0.0552    0.0128    0.0004    0.0764   -0.0010    0.3356   -0.0422    0.0025
           4    0.1049   -0.2979   -0.0025    0.2717    0.0010   -0.1304   -0.2343    0.0010
           5   -0.0158   -0.1166   -0.0004   -0.2673    0.0014   -0.0729    0.0993    0.0001
           6    0.0913    0.0582    0.0004   -0.0530    0.0017   -0.3097    0.0259   -0.0026
           7    0.2649   -0.0552   -0.0002   -0.1994   -0.0016    0.1686    0.0863    0.0013
           8    0.0792    0.0528    0.0005    0.1119    0.0008   -0.0991    0.1199   -0.0009
           9   -0.0808   -0.0004    0.0001    0.0043    0.0006   -0.1179    0.0622    0.0002
          10    0.2446   -0.0404   -0.0001   -0.1329   -0.0016    0.1507    0.0740    0.0010
          11    0.3945   -0.0090    0.0006   -0.2021    0.0007    0.0587    0.2815    0.0003
          12    0.2524    0.0224    0.0010   -0.0147   -0.0000   -0.0032    0.1753   -0.0006
          13    0.0750    0.0162   -0.0005    0.0634   -0.0013   -0.0892    0.2028    0.0003
          14   -0.1255    0.0741    0.0003    0.2030    0.0014   -0.3191    0.2233   -0.0013
          15   -0.0694    0.0635    0.0000    0.2066    0.0003   -0.2017    0.1103   -0.0009
          16   -0.2772    0.1612    0.0012   -0.1154    0.0011   -0.1075   -0.2531   -0.0017
          17    0.0568   -0.1644   -0.0009   -0.2351   -0.0003   -0.0715   -0.2870   -0.0004
          18    0.2351    0.3223    0.0024    0.0124    0.0009   -0.0375   -0.2260   -0.0018
          19    0.1132   -0.0705   -0.0004   -0.0107   -0.0003    0.0288   -0.0013    0.0006
          20    0.0595    0.0772    0.0006    0.0703    0.0004   -0.0296   -0.0351   -0.0010
          21   -0.0914   -0.0635   -0.0002   -0.0637   -0.0000    0.0127   -0.0130    0.0013
          22    0.0099   -0.0757   -0.0006   -0.0759    0.0002   -0.0382   -0.1161   -0.0016
          23   -0.0652   -0.0310   -0.0010   -0.0967   -0.0009    0.2704   -0.0876    0.0015
          24   -0.1502   -0.0834   -0.0003   -0.1230    0.0000    0.0041   -0.0397    0.0010
          25    0.0219    0.2619    0.0015   -0.1714    0.0011   -0.1400    0.1305   -0.0025
          26   -0.2404   -0.0773    0.0001   -0.2717    0.0013   -0.1656    0.0858   -0.0000
          27   -0.1212    0.1781    0.0017   -0.1023   -0.0014    0.4292    0.0765    0.0027
          28    0.0213   -0.0436   -0.0003   -0.0090   -0.0001    0.0007    0.0020    0.0006
          29    0.0847    0.2682    0.0021   -0.0654    0.0003   -0.0675   -0.2848   -0.0016
          30   -0.0332   -0.1854   -0.0013   -0.2121    0.0005   -0.0653   -0.1676   -0.0008
          31   -0.3093    0.2256    0.0011    0.1383   -0.0003    0.0319    0.0975    0.0011
          32   -0.1545   -0.2854   -0.0022    0.1126   -0.0015    0.0728    0.2779    0.0016
          33   -0.2107   -0.1785   -0.0015   -0.1993    0.0003   -0.0629   -0.1331   -0.0005
          34   -0.0019    0.0001    0.0709   -0.0005   -0.3382   -0.0026   -0.0004    0.0792
          35   -0.0006   -0.0020    0.2320   -0.0000   -0.0860    0.0001   -0.0002   -0.1211
          36   -0.0004    0.0016   -0.1873   -0.0003   -0.2078   -0.0009   -0.0001   -0.0777
          37    0.0006   -0.0007    0.1534    0.0009   -0.3855   -0.0020   -0.0001    0.0949
          38    0.0004    0.0010   -0.1712   -0.0004   -0.1177    0.0002   -0.0005   -0.2529
          39    0.0012    0.0013   -0.1467    0.0005   -0.2347   -0.0008    0.0001   -0.0444
          40    0.0017   -0.0005    0.0188    0.0006   -0.0037    0.0010    0.0002   -0.1562
          41    0.0007    0.0008   -0.1147    0.0001   -0.0040   -0.0000   -0.0000   -0.0161
          42    0.0022    0.0005   -0.0019    0.0016    0.0030   -0.0005    0.0009    0.2785
          43    0.0018   -0.0001   -0.0756    0.0001    0.3870    0.0020    0.0006   -0.0339
          44    0.0008    0.0017   -0.2043    0.0002    0.1003   -0.0005    0.0003    0.2573
          45    0.0015   -0.0014    0.1658    0.0010    0.2335    0.0011    0.0004   -0.0847
          46   -0.0008    0.0008   -0.1620   -0.0011    0.3379    0.0009    0.0004    0.0104
          47    0.0002   -0.0014    0.1996    0.0002    0.1065   -0.0004   -0.0000    0.1342
          48   -0.0004   -0.0014    0.1576    0.0001    0.2096    0.0006    0.0002   -0.0992
          49   -0.0041    0.0005   -0.0178   -0.0015    0.0052   -0.0015    0.0001    0.1486
          50   -0.0009   -0.0009    0.1158   -0.0002    0.0081   -0.0000   -0.0001    0.0165
          51   -0.0021   -0.0004   -0.0028   -0.0010   -0.0006    0.0004   -0.0000   -0.2498
          52   -0.0026   -0.0008    0.1654    0.0004    0.2240    0.0002    0.0004    0.1324
          53    0.0004    0.0015   -0.2664   -0.0006    0.0433    0.0016   -0.0002   -0.3960
          54   -0.0028    0.0014   -0.1820   -0.0006    0.1228   -0.0005   -0.0001   -0.0393
          55   -0.0027   -0.0006    0.0474   -0.0014   -0.0014   -0.0002   -0.0008   -0.2277
          56   -0.0007    0.0012   -0.1663   -0.0000   -0.0103    0.0003    0.0001   -0.0249
          57    0.0001    0.0006    0.0084    0.0009    0.0052   -0.0014    0.0007    0.4187
          58    0.0002    0.0001   -0.0338   -0.0010   -0.2149   -0.0008   -0.0003   -0.0462
          59   -0.0009    0.0024   -0.2827   -0.0003   -0.0704   -0.0018    0.0002    0.4024
          60   -0.0021   -0.0017    0.2296    0.0004   -0.1183   -0.0001   -0.0002   -0.0962
          61   -0.0866    0.2480    0.0020    0.0143    0.0004    0.2225    0.0356    0.0003
          62   -0.0697   -0.1604   -0.0014    0.2742   -0.0010    0.3268   -0.2015    0.0021
          63    0.2373   -0.0409   -0.0006    0.2714    0.0009   -0.0727   -0.1355   -0.0010
          64   -0.2788   -0.0994   -0.0013    0.0111   -0.0010    0.0019    0.1453    0.0004
          65   -0.0323    0.3833    0.0025    0.1528   -0.0006   -0.0175   -0.0896   -0.0005
          66   -0.0047   -0.1049   -0.0011    0.1958   -0.0010    0.0905    0.3054    0.0013
          67    0.0021    0.0010   -0.1874   -0.0000   -0.2021   -0.0002   -0.0000   -0.0169
          68    0.0029   -0.0021    0.3130    0.0010   -0.0312   -0.0006    0.0003    0.1158
          69   -0.0016   -0.0017    0.1908    0.0001   -0.1015   -0.0006   -0.0005   -0.0196
          70    0.0009   -0.0002    0.0268    0.0015    0.1937    0.0006    0.0008    0.0352
          71   -0.0024   -0.0029    0.3427   -0.0001    0.0626    0.0009   -0.0001   -0.1080
          72   -0.0024    0.0021   -0.2359   -0.0004    0.0867    0.0004   -0.0002   -0.0110
          73   -0.0002   -0.0111   -0.0039    0.0152    0.0010    0.0195    0.0167   -0.0375
          74    0.0006    0.0057    0.0010    0.0017   -0.0009   -0.0017    0.0041    0.0025
          75    0.0046    0.0039    0.0036   -0.0212   -0.0006   -0.0154   -0.0195    0.0281
          76    0.0086    0.0096    0.0010   -0.0093   -0.0013   -0.0095   -0.0182    0.0138
          77   -0.0041   -0.0157   -0.0016    0.0200   -0.0005    0.0223    0.0181   -0.0361
          78    0.0045   -0.0037   -0.0006    0.0154   -0.0001    0.0155    0.0080   -0.0046
          79    0.0037    0.0047   -0.0014   -0.0028   -0.0002   -0.0063   -0.0020    0.0026
          80    0.0034    0.0145    0.0027   -0.0213   -0.0020   -0.0214   -0.0211    0.0265
          81   -0.0015   -0.0012    0.0003    0.0048    0.0008    0.0010    0.0119    0.0003


   Root No.      41        42        43        44        45        46        47        48

                41 A      42 A      43 A      44 A      45 A      46 A      47 A      48 A   

                   2.1       2.2       2.7       3.0       3.1       3.2       3.3       3.7
  
           1   -0.0336    0.1688    0.0072    0.0002   -0.0001    0.0007    0.1112   -0.0001
           2    0.0304   -0.2052   -0.1590    0.0001   -0.0002   -0.0011   -0.1957    0.0000
           3   -0.0328    0.0331    0.1304    0.0003   -0.0003    0.0010    0.1419   -0.0000
           4   -0.0577    0.2988    0.0183    0.0003   -0.0003    0.0020    0.3376   -0.0001
           5   -0.0232    0.1434    0.1083   -0.0001    0.0000    0.0002    0.0388   -0.0003
           6    0.0276   -0.0256   -0.0845    0.0000    0.0003   -0.0003   -0.0405   -0.0002
           7   -0.0143    0.1224   -0.1496   -0.0004   -0.0001   -0.0006   -0.0671    0.0005
           8    0.0224   -0.1579   -0.0082    0.0004    0.0003    0.0002   -0.0383   -0.0008
           9   -0.0310    0.1755    0.1162   -0.0006   -0.0009   -0.0013   -0.0898    0.0011
          10   -0.0013    0.0337   -0.1644   -0.0002   -0.0001   -0.0005   -0.0724    0.0002
          11   -0.0144    0.0720   -0.1096    0.0002   -0.0005    0.0011    0.1662    0.0000
          12    0.0090   -0.0943   -0.0534    0.0007   -0.0008    0.0012    0.1596   -0.0001
          13   -0.0043   -0.0582   -0.0022    0.0003    0.0001    0.0018    0.2163    0.0003
          14   -0.0117   -0.0398    0.1942    0.0003   -0.0003    0.0009    0.1415    0.0002
          15    0.0117   -0.1405    0.1087    0.0004    0.0002    0.0008    0.0597   -0.0002
          16    0.0364   -0.0575    0.0336   -0.0001    0.0004    0.0001    0.0463   -0.0002
          17    0.0327   -0.1188    0.3304   -0.0006    0.0010   -0.0014   -0.1528   -0.0002
          18    0.0046    0.0910    0.2333   -0.0005    0.0004   -0.0011   -0.1082   -0.0001
          19   -0.0142    0.0385    0.2143   -0.0002    0.0001   -0.0005   -0.0655    0.0001
          20    0.0337   -0.1172   -0.0808   -0.0003    0.0003   -0.0015   -0.1962   -0.0003
          21   -0.0367    0.2461   -0.0594   -0.0006    0.0005   -0.0009   -0.1554   -0.0001
          22    0.0456   -0.2479   -0.0697    0.0003   -0.0002    0.0009    0.1452    0.0002
          23   -0.0143    0.0191    0.0269    0.0001    0.0002    0.0006    0.0934   -0.0002
          24   -0.0326    0.3511   -0.3471   -0.0007    0.0012   -0.0017   -0.3099   -0.0007
          25    0.0529   -0.1567   -0.0884   -0.0002    0.0004   -0.0010   -0.1437    0.0000
          26   -0.0265    0.1998    0.0133   -0.0002    0.0003   -0.0001    0.0007   -0.0002
          27   -0.0286   -0.0158    0.2754    0.0004   -0.0007    0.0021    0.3274    0.0001
          28   -0.0137    0.0139    0.3810   -0.0005    0.0005   -0.0014   -0.2271   -0.0001
          29    0.0127    0.0887    0.0391   -0.0005    0.0002   -0.0004    0.0305    0.0000
          30    0.0448   -0.2105    0.0203    0.0002   -0.0001    0.0005    0.0261    0.0003
          31   -0.0383    0.2405   -0.0667   -0.0004    0.0005   -0.0006   -0.0830    0.0000
          32   -0.0174   -0.0204    0.0140   -0.0001    0.0002   -0.0002   -0.0489    0.0001
          33    0.0598   -0.2760   -0.3121    0.0007   -0.0005    0.0024    0.3073    0.0006
          34    0.0040    0.0005   -0.0003   -0.0278   -0.3578   -0.1756    0.0012   -0.4247
          35   -0.0003    0.0005    0.0005    0.2131   -0.0970    0.1566   -0.0010   -0.1119
          36   -0.0029    0.0001   -0.0002   -0.0681   -0.2046    0.2764   -0.0014   -0.2279
          37    0.0123    0.0017    0.0003   -0.0066   -0.1189   -0.1198    0.0009    0.3848
          38   -0.0214   -0.0029   -0.0005    0.0007   -0.0286   -0.1898    0.0004    0.0982
          39   -0.0013    0.0002   -0.0000    0.0137   -0.0762    0.2415   -0.0019    0.2473
          40   -0.0051   -0.0007   -0.0001   -0.0719    0.5299    0.0837    0.0008   -0.0253
          41   -0.0069   -0.0013   -0.0003   -0.0131    0.1409   -0.3361    0.0023   -0.0225
          42    0.0184    0.0020    0.0000    0.1281    0.3013    0.0265    0.0004   -0.0162
          43   -0.0014   -0.0001    0.0002   -0.0027   -0.1621    0.1924   -0.0014   -0.3549
          44    0.0120    0.0011    0.0004   -0.0096   -0.0428   -0.1522    0.0013   -0.1087
          45   -0.0109   -0.0018   -0.0008    0.0021   -0.0854   -0.2173    0.0012   -0.2277
          46    0.0043    0.0010    0.0003    0.0827   -0.3131    0.0917   -0.0009    0.4423
          47    0.0030   -0.0001    0.0000   -0.2017   -0.0814    0.1847   -0.0017    0.1262
          48   -0.0121   -0.0018   -0.0007   -0.0423   -0.1849   -0.3006    0.0018    0.2436
          49    0.0047    0.0000   -0.0005   -0.0862    0.3350   -0.0787    0.0010   -0.0261
          50    0.0042    0.0007    0.0004   -0.0011    0.0857    0.3366   -0.0022    0.0157
          51   -0.0064    0.0000    0.0000    0.1513    0.1966   -0.0272    0.0024   -0.0085
          52    0.0194    0.0030    0.0005   -0.0047    0.0455    0.1050    0.0010   -0.0996
          53   -0.0314   -0.0039   -0.0009    0.0417    0.0164    0.0645   -0.0024   -0.0274
          54   -0.0126   -0.0019   -0.0009   -0.0133    0.0280   -0.1972    0.0005   -0.0695
          55   -0.0163   -0.0018   -0.0002   -0.1929   -0.1819   -0.0459    0.0005    0.0087
          56    0.0038    0.0009    0.0005   -0.0142   -0.0532    0.2136   -0.0014    0.0140
          57    0.0265    0.0034    0.0003    0.3481   -0.1064   -0.0230   -0.0010   -0.0002
          58   -0.0068   -0.0010   -0.0000    0.0106    0.0574   -0.1296    0.0008    0.0926
          59    0.0280    0.0036    0.0014   -0.0389    0.0087    0.0407    0.0016    0.0336
          60   -0.0032   -0.0003   -0.0004    0.0025    0.0367    0.1917   -0.0023    0.0605
          61    0.0261   -0.1867   -0.0509    0.0000   -0.0002   -0.0007   -0.1163   -0.0002
          62   -0.0030   -0.0678   -0.0843   -0.0000   -0.0003   -0.0005   -0.1089    0.0003
          63    0.0299   -0.1466   -0.1476    0.0001   -0.0001   -0.0010   -0.1704    0.0001
          64    0.0269   -0.2063   -0.0657    0.0001    0.0003   -0.0003   -0.0793    0.0001
          65   -0.0301    0.1985   -0.2847    0.0004   -0.0005    0.0020    0.2681    0.0005
          66   -0.0271    0.0135    0.1149   -0.0001    0.0002   -0.0007   -0.1455    0.0001
          67   -0.0008    0.0000    0.0002    0.2555    0.0770   -0.0496   -0.0001   -0.1313
          68   -0.0108   -0.0031   -0.0006   -0.4820    0.0245   -0.1526    0.0014   -0.0363
          69    0.0015    0.0002   -0.0001   -0.2180    0.0459    0.1767   -0.0006   -0.0634
          70    0.0090    0.0014    0.0001    0.0319    0.0927    0.1244   -0.0003    0.1319
          71    0.0020    0.0011    0.0004    0.5031    0.0273   -0.1611    0.0005    0.0202
          72   -0.0061   -0.0010   -0.0008   -0.2924    0.0521   -0.1480    0.0014    0.0619
          73    0.4609    0.0762    0.0195   -0.0051   -0.0013   -0.0072    0.0151   -0.0011
          74    0.0256    0.0083    0.0024   -0.0021    0.0021    0.0025    0.0022   -0.0001
          75   -0.3658   -0.0637   -0.0087    0.0044    0.0006    0.0052   -0.0118    0.0010
          76   -0.3248   -0.0581   -0.0091    0.0078   -0.0100    0.0051   -0.0119    0.0008
          77    0.4413    0.0692    0.0129   -0.0064   -0.0044   -0.0139    0.0106   -0.0022
          78    0.2878    0.0454    0.0158   -0.0093   -0.0049   -0.0024    0.0076   -0.0005
          79   -0.1697   -0.0254   -0.0075    0.0101    0.0064    0.0040   -0.0089    0.0012
          80   -0.4403   -0.0685   -0.0163    0.0110    0.0012    0.0067   -0.0099    0.0019
          81    0.0885    0.0182    0.0016   -0.0072    0.0016   -0.0030    0.0013   -0.0012


   Root No.      49        50        51        52        53        54        55        56

                49 A      50 A      51 A      52 A      53 A      54 A      55 A      56 A   

                   3.9       4.2       5.0       5.2       6.1       6.4       7.0       7.5
  
           1   -0.0388   -0.0003   -0.0029   -0.0000   -0.0004    0.1825   -0.0088   -0.0001
           2    0.0905    0.0011   -0.0045   -0.0001    0.0006   -0.2362    0.0185   -0.0017
           3   -0.0424    0.0002    0.0034   -0.0001   -0.0003    0.1494   -0.0097    0.0021
           4   -0.1300   -0.0017   -0.0976    0.0003    0.0011   -0.3703    0.0126    0.0000
           5   -0.0108   -0.0003   -0.0102    0.0001   -0.0002    0.0597   -0.0031   -0.0000
           6    0.0033   -0.0000    0.0014   -0.0001   -0.0001   -0.0357    0.0011   -0.0001
           7    0.1618   -0.0002   -0.1678    0.0007    0.0002   -0.0740    0.0034    0.0021
           8   -0.4914    0.0007   -0.2787    0.0005   -0.0005    0.1366   -0.0043    0.0043
           9    0.6181   -0.0013   -0.2879    0.0011    0.0004   -0.1152    0.0063    0.0015
          10   -0.0935    0.0001   -0.2352    0.0006    0.0000   -0.0181    0.0010    0.0035
          11    0.1699   -0.0006    0.2071   -0.0005    0.0000   -0.0698    0.0017   -0.0003
          12   -0.1332    0.0001    0.2485   -0.0011   -0.0002    0.0128   -0.0010   -0.0010
          13    0.0173   -0.0004    0.4001   -0.0010   -0.0002   -0.0132    0.0005   -0.0032
          14    0.1779   -0.0004    0.0430    0.0000   -0.0002    0.0212    0.0000    0.0004
          15   -0.1642    0.0001   -0.0515   -0.0000   -0.0002    0.0768   -0.0021    0.0015
          16   -0.0094   -0.0006    0.1513   -0.0004    0.0003   -0.1135    0.0026    0.0012
          17   -0.0494   -0.0002    0.1867   -0.0005    0.0001   -0.1498    0.0063    0.0013
          18   -0.0351    0.0000    0.1347   -0.0005    0.0002   -0.1030    0.0014    0.0009
          19    0.0139   -0.0002   -0.1996    0.0006   -0.0008    0.3741   -0.0121   -0.0040
          20   -0.0968   -0.0007   -0.3844    0.0014    0.0014   -0.2742    0.0069   -0.0048
          21   -0.0304    0.0003   -0.1020    0.0003   -0.0002    0.1242   -0.0094    0.0011
          22    0.0652   -0.0001   -0.0293    0.0002    0.0003   -0.0557   -0.0015    0.0015
          23   -0.0735    0.0002    0.0782   -0.0002   -0.0002    0.0460   -0.0034    0.0004
          24   -0.2833    0.0016    0.2487   -0.0011   -0.0002   -0.0250    0.0032   -0.0031
          25    0.0415    0.0004    0.0372   -0.0000    0.0001    0.0500   -0.0028    0.0005
          26   -0.0040    0.0000    0.0188    0.0001   -0.0002    0.0555   -0.0035    0.0005
          27   -0.1066   -0.0019   -0.1567    0.0004    0.0003   -0.2384    0.0118   -0.0024
          28   -0.0370    0.0010   -0.0049   -0.0001   -0.0010    0.3267   -0.0031   -0.0048
          29    0.0089   -0.0007   -0.0031    0.0002    0.0006   -0.0572   -0.0060   -0.0011
          30    0.0036    0.0007    0.0025   -0.0002   -0.0003    0.0185    0.0015    0.0030
          31   -0.0277    0.0004    0.0770   -0.0002    0.0003   -0.1213    0.0022    0.0022
          32   -0.0116    0.0004    0.0073    0.0001   -0.0002   -0.0188    0.0014    0.0004
          33    0.0855   -0.0019   -0.1614    0.0008   -0.0004    0.1960   -0.0047   -0.0042
          34    0.0004   -0.1221   -0.0007   -0.3242    0.0764    0.0007    0.0004    0.0157
          35    0.0006    0.1194   -0.0007   -0.0953   -0.2023   -0.0007    0.0024    0.1836
          36    0.0006    0.1519   -0.0010   -0.1891   -0.0237   -0.0007    0.0033   -0.1164
          37   -0.0008   -0.0194    0.0015    0.3614   -0.0076    0.0002   -0.0005    0.0667
          38   -0.0004   -0.0804    0.0005    0.0997   -0.2244   -0.0004   -0.0016    0.2119
          39   -0.0004    0.0633    0.0004    0.2117    0.1090   -0.0005   -0.0005   -0.2195
          40    0.0010    0.0140   -0.0015   -0.3723    0.0769    0.0004   -0.0004    0.2061
          41    0.0001    0.0005   -0.0005   -0.1043   -0.3151   -0.0007   -0.0007    0.0259
          42    0.0006   -0.0216   -0.0009   -0.2119    0.0248   -0.0003    0.0012   -0.3742
          43   -0.0001   -0.0468    0.0014    0.3767    0.1030    0.0005   -0.0003    0.1665
          44    0.0001    0.0739    0.0001    0.1003   -0.2154   -0.0007    0.0012   -0.1893
          45   -0.0000    0.0580    0.0007    0.2131   -0.0814   -0.0005    0.0014   -0.1976
          46   -0.0012   -0.0679   -0.0003   -0.3358    0.0246    0.0004    0.0012    0.0982
          47   -0.0003   -0.1408   -0.0002   -0.0919   -0.2111   -0.0006   -0.0035   -0.1787
          48   -0.0007    0.1680   -0.0009   -0.1975    0.0564   -0.0002    0.0030   -0.0869
          49    0.0002   -0.2560    0.0010    0.2557    0.0582    0.0002   -0.0061   -0.1712
          50    0.0004   -0.0274   -0.0003    0.0697   -0.2513   -0.0009   -0.0035   -0.0126
          51    0.0009    0.4558   -0.0002    0.1485    0.0175    0.0000   -0.0019    0.3004
          52    0.0009    0.2280   -0.0007   -0.0557   -0.1599   -0.0007   -0.0003    0.0286
          53   -0.0003   -0.3699    0.0006   -0.0121    0.3444    0.0012   -0.0001   -0.0648
          54   -0.0001   -0.2160    0.0000   -0.0304    0.1122    0.0006   -0.0004   -0.0178
          55   -0.0002    0.1671   -0.0002    0.0614   -0.0170   -0.0005    0.0015   -0.2485
          56    0.0002    0.0167   -0.0000    0.0187    0.0686    0.0000    0.0001   -0.0237
          57   -0.0003   -0.3031    0.0007    0.0346   -0.0030    0.0008   -0.0026    0.4479
          58   -0.0003    0.0497   -0.0002   -0.0575   -0.0029    0.0000    0.0004   -0.0029
          59    0.0006    0.3996   -0.0007   -0.0164    0.3589    0.0007    0.0012    0.0615
          60   -0.0002   -0.2766    0.0002   -0.0317   -0.1631   -0.0003   -0.0006   -0.0244
          61    0.0688    0.0005    0.0389   -0.0002    0.0001    0.0384   -0.0012    0.0002
          62    0.2419    0.0008    0.2364   -0.0007   -0.0006    0.2010   -0.0083    0.0014
          63    0.1148    0.0008    0.0816   -0.0004   -0.0003    0.0702   -0.0027    0.0004
          64   -0.0311    0.0002    0.0324   -0.0001    0.0005   -0.2067    0.0061    0.0006
          65    0.0492   -0.0001   -0.0959    0.0005   -0.0009    0.2850   -0.0051   -0.0006
          66   -0.0286    0.0007    0.0406   -0.0002    0.0003   -0.1298    0.0034    0.0004
          67    0.0001    0.0247   -0.0000    0.0453   -0.1639   -0.0007   -0.0019   -0.1249
          68   -0.0004   -0.0202    0.0005    0.0170    0.3141    0.0012    0.0051    0.1738
          69    0.0002   -0.0295    0.0003    0.0310    0.1364    0.0007    0.0015    0.1344
          70    0.0001    0.0132    0.0001    0.0475    0.0122   -0.0001   -0.0003   -0.0399
          71    0.0002    0.0247    0.0001    0.0146    0.3324    0.0005   -0.0015   -0.1895
          72   -0.0002   -0.0332   -0.0000    0.0228   -0.1836   -0.0002   -0.0006    0.1603
          73    0.0006    0.0001    0.0011   -0.0002    0.0010    0.0111    0.1828    0.0043
          74   -0.0005   -0.0060   -0.0034    0.0014   -0.0013   -0.0135   -0.4144   -0.0106
          75   -0.0006    0.0011    0.0013    0.0000   -0.0005   -0.0091   -0.1676   -0.0037
          76    0.0016    0.0141    0.0015   -0.0064    0.0021   -0.0168   -0.4472    0.0093
          77    0.0014    0.0009    0.0004   -0.0021    0.0036   -0.0011   -0.1526    0.0027
          78    0.0017   -0.0169   -0.0006    0.0005   -0.0022    0.0141    0.3405   -0.0093
          79   -0.0033    0.0021   -0.0026    0.0037   -0.0035    0.0064    0.2720   -0.0076
          80   -0.0024    0.0086    0.0029    0.0000   -0.0008    0.0160    0.5666    0.0096
          81   -0.0030   -0.0007   -0.0018   -0.0007    0.0024   -0.0051   -0.1756    0.0068


   Root No.      57        58        59        60        61        62        63        64

                57 A      58 A      59 A      60 A      61 A      62 A      63 A      64 A   

                   7.6       8.0       8.5       8.8       8.9       9.0       9.1       9.3
  
           1    0.0063    0.0699    0.0006   -0.4125   -0.1753    0.1740   -0.2913    0.4976
           2    0.2083   -0.1357    0.0000   -0.4382    0.2700   -0.2675    0.2792    0.1785
           3   -0.1131    0.2908   -0.0003    0.0148    0.4969   -0.2560    0.0413    0.1322
           4    0.0126   -0.0688   -0.0005    0.2677    0.1084   -0.1117    0.1865   -0.2926
           5   -0.0048    0.0134   -0.0000    0.0199   -0.0113    0.0142   -0.0177   -0.0116
           6    0.0063   -0.0124    0.0004   -0.0001   -0.0254    0.0116    0.0009   -0.0053
           7   -0.1587   -0.0761   -0.0003   -0.0167    0.0089   -0.0097    0.0103    0.0175
           8   -0.3796   -0.1311   -0.0004    0.0244   -0.0106   -0.0087    0.0319    0.0173
           9   -0.1351   -0.1663   -0.0001   -0.0398    0.0231   -0.0175    0.0023    0.0407
          10   -0.2935   -0.0913   -0.0003   -0.0128    0.0061   -0.0066    0.0069    0.0125
          11    0.0265    0.0158    0.0002   -0.0056    0.0033    0.0011   -0.0034   -0.0027
          12    0.0838    0.0612    0.0005    0.0057   -0.0037    0.0016    0.0038   -0.0107
          13    0.2475    0.1090    0.0004   -0.0086    0.0046    0.0100   -0.0193   -0.0273
          14   -0.0517   -0.0828   -0.0001   -0.0002    0.0022   -0.0016   -0.0027    0.0177
          15   -0.1320   -0.0635   -0.0002    0.0098   -0.0041   -0.0032    0.0095    0.0112
          16   -0.1290   -0.0218    0.0000   -0.0914    0.0577    0.0268   -0.0987   -0.0666
          17   -0.1461   -0.0203    0.0003   -0.1911    0.1181    0.0567   -0.2015   -0.2030
          18   -0.1008   -0.0196    0.0002   -0.1110    0.1031    0.0395   -0.1630   -0.1249
          19    0.2605   -0.0168    0.0001   -0.0272    0.0314    0.0376   -0.1168   -0.0569
          20    0.4725    0.2878    0.0007    0.0625   -0.0773    0.1413   -0.2289   -0.1403
          21    0.0175    0.5644    0.0005   -0.0064    0.0085    0.0107    0.0186   -0.1334
          22   -0.0750    0.1415    0.0001   -0.0179   -0.0337    0.0027    0.0282   -0.0036
          23   -0.0296    0.0365   -0.0001    0.0116    0.0230   -0.0142    0.0127    0.0088
          24    0.1652   -0.3754    0.0001   -0.0071   -0.0099    0.0092   -0.0254    0.0424
          25   -0.0292    0.0515   -0.0004    0.0537    0.0997   -0.0563    0.0299   -0.0302
          26   -0.0362    0.0569    0.0000    0.0308    0.0125   -0.0004   -0.0066   -0.0116
          27    0.1484   -0.2430    0.0008   -0.1062   -0.3106    0.1643   -0.0601    0.0139
[...]
 REDUCED MASS        0.3004         C 16 -- H 23          +8.3% ( 35.9%)     38.6%
 EFFECTIVE MASS      4.3288
 FORCE CONSTANT      0.2394

 VIBRATION         42   42A           ATOM PAIR      ENERGY CONTRIBUTION    RADIAL
 FREQUENCY          1176.04         C 14 -- H 19         +37.2% ( 80.2%)      0.2%
 TRANSITION DIPOLE   0.2524         C 12 -- C 13         +12.5% ( 46.4%)     98.0%
 TRAVEL (Ang.)       0.3036         C 15 -- C 16         +12.4% ( 46.3%)     98.4%
 REDUCED MASS        0.6221         C 12 -- H 24          +7.8% ( 36.7%)     99.5%
 EFFECTIVE MASS      4.6242
 FORCE CONSTANT      0.5070

 VIBRATION         43   43A           ATOM PAIR      ENERGY CONTRIBUTION    RADIAL
 FREQUENCY          1184.84         C  1 -- C  7         +19.9% ( 65.6%)     63.1%
 TRANSITION DIPOLE   1.5349         C  7 -- C 10         +16.7% ( 60.1%)      7.4%
 TRAVEL (Ang.)       0.1618         N  3 -- C  7         +12.5% ( 52.0%)     58.5%
 REDUCED MASS        2.1729         C  7 -- H  8         +12.1% ( 51.1%)      2.5%
 EFFECTIVE MASS      7.6494
 FORCE CONSTANT      1.7972

 VIBRATION         44   44A           ATOM PAIR      ENERGY CONTRIBUTION    RADIAL
 FREQUENCY          1221.29         C  7 -- C 10         +22.8% ( 72.3%)     91.9%
 TRANSITION DIPOLE   1.2760         C  1 -- C  7         +18.2% ( 64.6%)     42.2%
 TRAVEL (Ang.)       0.1527         C  7 -- H  8         +13.5% ( 55.8%)      0.5%
 REDUCED MASS        2.3682         N  3 -- C  7         +13.1% ( 54.9%)      6.7%
 EFFECTIVE MASS      8.2318
 FORCE CONSTANT      2.0812

 VIBRATION         45   45A           ATOM PAIR      ENERGY CONTRIBUTION    RADIAL
 FREQUENCY          1230.06         C 12 -- C 13         +13.7% ( 54.3%)     99.3%
 TRANSITION DIPOLE   0.2875         C 13 -- C 14         +13.6% ( 54.1%)     99.9%
 TRAVEL (Ang.)       0.2059         C 14 -- C 15         +13.6% ( 54.0%)    100.0%
 REDUCED MASS        1.2929         C 15 -- C 16         +12.2% ( 51.2%)     99.5%
 EFFECTIVE MASS     11.0899
 FORCE CONSTANT      1.1526

 VIBRATION         46   46A           ATOM PAIR      ENERGY CONTRIBUTION    RADIAL
 FREQUENCY          1241.36         H  6 -- C 10         +22.6% ( 50.1%)      0.1%
 TRANSITION DIPOLE   0.5108         C 10 -- H 11         +17.2% ( 43.7%)      8.1%
 TRAVEL (Ang.)       0.3591         C 10 -- H 22         +15.7% ( 41.7%)      0.3%
 REDUCED MASS        0.4213         C  7 -- C 10         +12.3% ( 36.9%)     95.3%
 EFFECTIVE MASS      3.1023         C  1 -- C  7         +11.0% ( 34.9%)     75.6%
 FORCE CONSTANT      0.3825

 VIBRATION         47   47A           ATOM PAIR      ENERGY CONTRIBUTION    RADIAL
 FREQUENCY          1249.50         C  1 -- H  9         +36.1% ( 54.4%)      0.4%
 TRANSITION DIPOLE   0.4917         C  1 -- H 21         +27.4% ( 47.3%)      2.3%
 TRAVEL (Ang.)       0.4028         C  1 -- H  2         +12.7% ( 32.2%)     10.9%
 REDUCED MASS        0.3325         C  7 -- C 10          +5.8% ( 21.7%)     94.6%
 EFFECTIVE MASS      1.7830
 FORCE CONSTANT      0.3059

 VIBRATION         48   48A           ATOM PAIR      ENERGY CONTRIBUTION    RADIAL
 FREQUENCY          1256.29         C  1 -- H  2         +42.1% ( 56.9%)      0.0%
 TRANSITION DIPOLE   0.6272         C  1 -- H 21         +23.2% ( 42.2%)      3.1%
 TRAVEL (Ang.)       0.3994         C  1 -- H  9         +20.4% ( 39.6%)      9.7%
 REDUCED MASS        0.3365         C  1 -- C  7          +4.5% ( 18.6%)     56.2%
 EFFECTIVE MASS      1.5760
 FORCE CONSTANT      0.3129

 VIBRATION         49   49A           ATOM PAIR      ENERGY CONTRIBUTION    RADIAL
 FREQUENCY          1259.00         C 16 -- H 23         +28.4% ( 60.0%)     16.1%
 TRANSITION DIPOLE   0.1866         C 12 -- H 24         +22.6% ( 53.6%)     21.0%
 TRAVEL (Ang.)       0.3898         C 13 -- H 18         +10.4% ( 36.4%)      3.3%
 REDUCED MASS        0.3524         C 16 -- N 17          +7.8% ( 31.5%)     81.5%
 EFFECTIVE MASS      3.5401
 FORCE CONSTANT      0.3291

 VIBRATION         50   50A           ATOM PAIR      ENERGY CONTRIBUTION    RADIAL
 FREQUENCY          1274.37         C 10 -- H 11         +37.5% ( 52.7%)      1.1%
 TRANSITION DIPOLE   0.6412         C 10 -- H 22         +35.5% ( 51.4%)      1.4%
 TRAVEL (Ang.)       0.4041         H  6 -- C 10         +15.6% ( 34.0%)     16.3%
 REDUCED MASS        0.3240         C  7 -- C 10          +3.6% ( 16.2%)     57.0%
 EFFECTIVE MASS      1.4345
 FORCE CONSTANT      0.3100

 VIBRATION         51   51A           ATOM PAIR      ENERGY CONTRIBUTION    RADIAL
 FREQUENCY          1285.31         C 15 -- H 20         +13.2% ( 48.9%)      4.3%
 TRANSITION DIPOLE   0.3281         C 15 -- C 16         +12.4% ( 47.3%)     96.8%
 TRAVEL (Ang.)       0.2951         C 13 -- H 18         +10.9% ( 44.4%)      1.5%
 REDUCED MASS        0.6025         C 12 -- C 13         +10.6% ( 43.8%)     97.8%
 EFFECTIVE MASS      5.4860
 FORCE CONSTANT      0.5864

 VIBRATION         52   52A           ATOM PAIR      ENERGY CONTRIBUTION    RADIAL
 FREQUENCY          1343.33         C 12 -- H 24         +23.4% ( 53.2%)      0.8%
 TRANSITION DIPOLE   0.3997         C 16 -- H 23         +15.4% ( 43.1%)      0.1%
 TRAVEL (Ang.)       0.3363         C 15 -- H 20         +10.1% ( 35.0%)      0.0%
 REDUCED MASS        0.4439         C 14 -- H 19          +9.2% ( 33.4%)      0.0%
 EFFECTIVE MASS      3.1103
 FORCE CONSTANT      0.4720

 VIBRATION         53   53A           ATOM PAIR      ENERGY CONTRIBUTION    RADIAL
 FREQUENCY          1371.87         C  1 -- H  2         +27.6% ( 50.5%)      0.4%
 TRANSITION DIPOLE   0.8891         C  1 -- H  9         +21.6% ( 44.7%)      1.1%
 TRAVEL (Ang.)       0.4053         C  1 -- H 21         +20.4% ( 43.5%)      0.7%
 REDUCED MASS        0.2992         C  1 -- C  7          +5.3% ( 22.1%)      1.7%
 EFFECTIVE MASS      1.9816
 FORCE CONSTANT      0.3318

 VIBRATION         54   54A           ATOM PAIR      ENERGY CONTRIBUTION    RADIAL
 FREQUENCY          1382.13         H  6 -- C 10         +27.8% ( 50.7%)      0.1%
 TRANSITION DIPOLE   0.5969         C 10 -- H 22         +23.8% ( 46.9%)      1.5%
 TRAVEL (Ang.)       0.4252         C 10 -- H 11         +22.3% ( 45.4%)      1.3%
 REDUCED MASS        0.2698         C  1 -- H 21          +6.4% ( 24.2%)      0.5%
 EFFECTIVE MASS      1.9550
 FORCE CONSTANT      0.3037

 VIBRATION         55   55A           ATOM PAIR      ENERGY CONTRIBUTION    RADIAL
 FREQUENCY          1441.52         H 26 -- O 27         +50.4% ( 57.9%)      8.9%
 TRANSITION DIPOLE   0.9990         H 25 -- O 27         +47.0% ( 55.9%)      7.3%
 TRAVEL (Ang.)       0.3032         C  1 -- H 21          +0.6% (  6.3%)      3.4%
 REDUCED MASS        0.5087         C 10 -- H 22          +0.4% (  4.9%)     23.3%
 EFFECTIVE MASS      1.6139
 FORCE CONSTANT      0.6228

 VIBRATION         56   56A           ATOM PAIR      ENERGY CONTRIBUTION    RADIAL
 FREQUENCY          1499.15         C 12 -- N 17         +11.9% ( 45.7%)     43.0%
 TRANSITION DIPOLE   1.0857         C 14 -- C 15         +11.8% ( 45.4%)     23.6%
 TRAVEL (Ang.)       0.1810         C 13 -- C 14         +11.7% ( 45.3%)     17.6%
 REDUCED MASS        1.3735         C 14 -- H 19         +11.6% ( 45.2%)      0.0%
 EFFECTIVE MASS      9.6603         C 12 -- C 13         +11.3% ( 44.6%)     96.0%
 FORCE CONSTANT      1.8188         C 16 -- N 17         +11.3% ( 44.6%)     34.1%
                            C 15 -- C 16         +11.2% ( 44.4%)     99.0%

 VIBRATION         57   57A           ATOM PAIR      ENERGY CONTRIBUTION    RADIAL
 FREQUENCY          1505.78         N  3 -- O  4         +34.2% ( 79.0%)     71.8%
 TRANSITION DIPOLE   3.4766         N  3 -- O  5         +30.2% ( 74.2%)     62.8%
 TRAVEL (Ang.)       0.0936         O  4 -- O  5         +20.2% ( 60.7%)     99.9%
 REDUCED MASS        5.1076         N  3 -- C  7         +14.4% ( 51.2%)     99.2%
 EFFECTIVE MASS     15.0161
 FORCE CONSTANT      6.8231

 VIBRATION         58   58A           ATOM PAIR      ENERGY CONTRIBUTION    RADIAL
 FREQUENCY          1545.90         C 14 -- C 15         +12.6% ( 47.6%)     70.7%
 TRANSITION DIPOLE   0.4443         C 13 -- C 14         +12.1% ( 46.8%)     76.0%
 TRAVEL (Ang.)       0.1813         C 15 -- C 16         +11.0% ( 44.5%)      0.8%
 REDUCED MASS        1.3270         C 12 -- C 13         +10.8% ( 44.2%)      0.0%
 EFFECTIVE MASS      9.5509
 FORCE CONSTANT      1.8685

 VIBRATION         59   59A           ATOM PAIR      ENERGY CONTRIBUTION    RADIAL
 FREQUENCY          1659.59         N  3 -- O  5         +37.5% ( 86.9%)     90.8%
 TRANSITION DIPOLE  11.7480         N  3 -- O  4         +34.4% ( 83.3%)     86.7%
 TRAVEL (Ang.)       0.0770         N  3 -- C  7         +21.4% ( 65.7%)      0.5%
 REDUCED MASS        6.8531         O  4 -- O  5          +6.5% ( 36.2%)      1.2%
 EFFECTIVE MASS     14.6179
 FORCE CONSTANT     11.1210

 VIBRATION         60   60A           ATOM PAIR      ENERGY CONTRIBUTION    RADIAL
 FREQUENCY          1675.96         C 12 -- C 13         +17.8% ( 58.2%)     99.6%
 TRANSITION DIPOLE   2.6908         C 15 -- C 16         +17.1% ( 57.1%)     99.2%
 TRAVEL (Ang.)       0.1275         C 16 -- N 17         +10.6% ( 45.0%)     59.7%
 REDUCED MASS        2.4741         C 13 -- C 14         +10.4% ( 44.6%)     57.0%
 EFFECTIVE MASS     12.0047
 FORCE CONSTANT      4.0944

 VIBRATION         61   61A           ATOM PAIR      ENERGY CONTRIBUTION    RADIAL
 FREQUENCY          1688.44         C 14 -- C 15         +20.3% ( 60.9%)     91.5%
 TRANSITION DIPOLE   1.7170         C 13 -- C 14         +17.8% ( 57.1%)     81.0%
 TRAVEL (Ang.)       0.1232         C 12 -- N 17         +13.2% ( 49.1%)     94.1%
 REDUCED MASS        2.6309         C 16 -- N 17         +10.7% ( 44.3%)     82.7%
 EFFECTIVE MASS     12.3712         C 14 -- H 19         +10.7% ( 44.3%)      0.1%
 FORCE CONSTANT      4.4189

 VIBRATION         62   62A           ATOM PAIR      ENERGY CONTRIBUTION    RADIAL
 FREQUENCY          1921.12         C  7 -- H  8         +90.4% ( 99.3%)    100.0%
 TRANSITION DIPOLE   0.9338         N  3 -- C  7          +3.0% ( 18.1%)      0.2%
 TRAVEL (Ang.)       0.1439         C  7 -- C 10          +2.9% ( 17.8%)     10.5%
 REDUCED MASS        1.6958         C  1 -- C  7          +2.9% ( 17.8%)      7.9%
 EFFECTIVE MASS      2.9156
 FORCE CONSTANT      3.6875

 VIBRATION         63   63A           ATOM PAIR      ENERGY CONTRIBUTION    RADIAL
 FREQUENCY          2633.59         H  6 -- C 10         +65.1% ( 83.4%)     99.9%
 TRANSITION DIPOLE   0.7939         C 10 -- H 22         +13.5% ( 38.0%)     85.1%
 TRAVEL (Ang.)       0.2325         C 10 -- H 11         +10.6% ( 33.7%)     80.5%
 REDUCED MASS        0.4737         C  1 -- H 21          +6.9% ( 27.1%)     99.8%
 EFFECTIVE MASS      1.4550
 FORCE CONSTANT      1.9359

 VIBRATION         64   64A           ATOM PAIR      ENERGY CONTRIBUTION    RADIAL
 FREQUENCY          2640.10         H 26 -- O 27         +61.6% ( 80.5%)     97.9%
 TRANSITION DIPOLE   2.4014         H 25 -- O 27         +14.3% ( 38.8%)     93.0%
 TRAVEL (Ang.)       0.2442         C  1 -- H 21         +10.7% ( 33.6%)     99.6%
 REDUCED MASS        0.4282         C  1 -- H  2          +4.6% ( 21.9%)     93.0%
 EFFECTIVE MASS      1.4647
 FORCE CONSTANT      1.7583

 VIBRATION         65   65A           ATOM PAIR      ENERGY CONTRIBUTION    RADIAL
 FREQUENCY          2648.99         C  1 -- H  2         +57.3% ( 78.2%)     99.1%
 TRANSITION DIPOLE   1.3872         C  1 -- H  9         +34.3% ( 60.5%)     95.7%
 TRAVEL (Ang.)       0.2345         C  1 -- H 21          +3.1% ( 18.1%)     42.7%
 REDUCED MASS        0.4628         H 26 -- O 27          +2.8% ( 17.3%)     97.7%
 EFFECTIVE MASS      1.4558
 FORCE CONSTANT      1.9133

 VIBRATION         66   66A           ATOM PAIR      ENERGY CONTRIBUTION    RADIAL
 FREQUENCY          2649.71         C 10 -- H 22         +39.1% ( 64.6%)     99.1%
 TRANSITION DIPOLE   0.7971         C 10 -- H 11         +22.8% ( 49.3%)     95.3%
 TRAVEL (Ang.)       0.3055         C  1 -- H 21         +21.1% ( 47.4%)     99.2%
 REDUCED MASS        0.2727         C  1 -- H  9         +11.7% ( 35.3%)     94.5%
 EFFECTIVE MASS      1.4546
 FORCE CONSTANT      1.1280

 VIBRATION         67   67A           ATOM PAIR      ENERGY CONTRIBUTION    RADIAL
 FREQUENCY          2652.81         C  1 -- H 21         +23.9% ( 50.2%)     98.7%
 TRANSITION DIPOLE   0.8997         C 10 -- H 11         +23.2% ( 49.5%)     99.5%
 TRAVEL (Ang.)       0.3713         C  1 -- H  9         +18.3% ( 43.9%)     96.6%
 REDUCED MASS        0.1844         H 26 -- O 27         +14.9% ( 39.7%)     97.3%
 EFFECTIVE MASS      1.4544
 FORCE CONSTANT      0.7646

 VIBRATION         68   68A           ATOM PAIR      ENERGY CONTRIBUTION    RADIAL
 FREQUENCY          2710.82         C 16 -- H 23         +91.6% ( 96.7%)    100.0%
 TRANSITION DIPOLE   1.4159         C 12 -- H 24          +3.8% ( 19.8%)    100.0%
 TRAVEL (Ang.)       0.1743         C 15 -- H 20          +1.8% ( 13.7%)     99.2%
 REDUCED MASS        0.8184         C 15 -- C 16          +1.0% ( 10.3%)     18.7%
 EFFECTIVE MASS      1.3815
 FORCE CONSTANT      3.5432

 VIBRATION         69   69A           ATOM PAIR      ENERGY CONTRIBUTION    RADIAL
 FREQUENCY          2717.38         C 12 -- H 24         +90.5% ( 96.2%)    100.0%
 TRANSITION DIPOLE   1.3873         C 16 -- H 23          +2.8% ( 16.9%)     99.9%
 TRAVEL (Ang.)       0.1761         C 13 -- H 18          +2.1% ( 14.8%)     99.4%
 REDUCED MASS        0.8003         C 15 -- H 20          +1.4% ( 12.0%)     99.9%
 EFFECTIVE MASS      1.3958
 FORCE CONSTANT      3.4816

 VIBRATION         70   70A           ATOM PAIR      ENERGY CONTRIBUTION    RADIAL
 FREQUENCY          2727.16         C 14 -- H 19         +82.2% ( 91.7%)    100.0%
 TRANSITION DIPOLE   0.8278         C 15 -- H 20         +10.7% ( 33.0%)     99.8%
 TRAVEL (Ang.)       0.1920         C 13 -- H 18          +5.1% ( 22.8%)     99.6%
 REDUCED MASS        0.6710         C 14 -- C 15          +1.0% ( 10.0%)      5.6%
 EFFECTIVE MASS      1.3827
 FORCE CONSTANT      2.9402

 VIBRATION         71   71A           ATOM PAIR      ENERGY CONTRIBUTION    RADIAL
 FREQUENCY          2741.90         C 15 -- H 20         +61.6% ( 79.3%)    100.0%
 TRANSITION DIPOLE   1.6583         C 13 -- H 18         +33.4% ( 58.4%)    100.0%
 TRAVEL (Ang.)       0.2269         C 14 -- H 19          +2.0% ( 14.2%)     97.1%
 REDUCED MASS        0.4776         C 16 -- H 23          +0.9% (  9.4%)     97.3%
 EFFECTIVE MASS      1.3795
 FORCE CONSTANT      2.1153

 VIBRATION         72   72A           ATOM PAIR      ENERGY CONTRIBUTION    RADIAL
 FREQUENCY          2752.80         C 13 -- H 18         +57.1% ( 76.2%)    100.0%
 TRANSITION DIPOLE   0.9922         C 15 -- H 20         +22.3% ( 47.6%)    100.0%
 TRAVEL (Ang.)       0.2527         C 14 -- H 19         +12.4% ( 35.6%)    100.0%
 REDUCED MASS        0.3837         C 12 -- H 24          +3.1% ( 17.9%)     99.2%
 EFFECTIVE MASS      1.4545
 FORCE CONSTANT      1.7132

 VIBRATION         73   73A           ATOM PAIR      ENERGY CONTRIBUTION    RADIAL
 FREQUENCY          2763.54         C 10 -- H 11         +36.6% ( 57.9%)     96.4%
 TRANSITION DIPOLE   0.7147         C 10 -- H 22         +32.1% ( 54.3%)     95.6%
 TRAVEL (Ang.)       0.2930         H  6 -- C 10         +22.5% ( 45.5%)     92.3%
 REDUCED MASS        0.2842         C  1 -- H  2          +3.0% ( 16.5%)     95.7%
 EFFECTIVE MASS      1.1415
 FORCE CONSTANT      1.2789

 VIBRATION         74   74A           ATOM PAIR      ENERGY CONTRIBUTION    RADIAL
 FREQUENCY          2773.38         C  1 -- H 21         +31.7% ( 53.8%)     95.5%
 TRANSITION DIPOLE   0.4782         C  1 -- H  9         +30.3% ( 52.7%)     95.4%
 TRAVEL (Ang.)       0.2971         C  1 -- H  2         +29.2% ( 51.7%)     95.1%
 REDUCED MASS        0.2755         C 10 -- H 11          +3.1% ( 16.9%)     95.4%
 EFFECTIVE MASS      1.1402
 FORCE CONSTANT      1.2487

 VIBRATION         75   75A           ATOM PAIR      ENERGY CONTRIBUTION    RADIAL
 FREQUENCY          2822.12         H 25 -- O 27         +84.3% ( 89.0%)     99.7%
 TRANSITION DIPOLE   1.0191         H 26 -- O 27         +15.6% ( 38.3%)     98.0%
 TRAVEL (Ang.)       0.1876
 REDUCED MASS        0.6787
 EFFECTIVE MASS      1.2103
 FORCE CONSTANT      3.1848

      SYMMETRY NUMBER FOR POINT-GROUP C1  =  1


          SYSTEM IS A GROUND STATE



 Title: ASE calculation


          MOLECULE IS NOT LINEAR

          THERE ARE 75 GENUINE VIBRATIONS IN THIS SYSTEM
          THIS THERMODYNAMICS CALCULATION IS LIMITED TO
          MOLECULES WHICH HAVE NO INTERNAL ROTATIONS




                    CALCULATED THERMODYNAMIC PROPERTIES
                                          *
   TEMP. (K)   PARTITION FUNCTION   H.O.F.    ENTHALPY  HEAT CAPACITY ENTROPY
                                   KCAL/MOL   CAL/MOLE    CAL/K/MOL  CAL/K/MOL


 298.00  VIB.     0.1691D+09                  8820.3196    50.6625    67.2478
         ROT.     0.3404D+07                   888.2803     2.9808    32.8690
         INT.     0.5755D+15                  9708.5999    53.6433   100.1168
         TRA.     0.2477D+28                  1480.4672     4.9680    41.5850
         TOT.                      -79.280   11189.0671    58.6113   141.7019

   *: NOTE: HEATS OF FORMATION ARE RELATIVE TO THE
            ELEMENTS IN THEIR STANDARD STATE AT 298K
              (=  Standard Enthalpy of Formation).

            Hvib:  Zero-point energy is not included.
                   frequencies of less than zero cm-1 are not included.
            Hrot = (3/2)RT
            Htra = (3/2)RT + pV = (5/2)RT

            Heat capacity is Cp, not Cv

          For more information, see: HTTP://OpenMOPAC.net/Manual/thermochemistry.html


           FORCE CONSTANT IN CARTESIAN COORDINATES (Millidynes/A)

    ATOM   CHEMICAL       X               Y               Z
   NUMBER   SYMBOL  FORCE CONSTANT  FORCE CONSTANT  FORCE CONSTANT

      1       C        6.352281        6.423754        6.332239
      2       H        4.037331        0.707191        0.572241
      3       N       13.641030        8.468961        6.778988
      4       O       11.319933        1.608014        0.965504
      5       O        5.636757        4.223972        4.220025
      6       H        1.338471        2.423558        1.451194
      7       C        7.791930        6.384132        6.606935
      8       H        1.139682        0.811264        3.599122
      9       H        0.876035        0.721170        3.719875
     10       C        6.725456        6.416718        6.352850
     11       H        1.266593        0.582027        3.500648
     12       C        4.999157       10.041572        8.693129
     13       C        4.686547       10.040071        8.703181
     14       C        4.708741       10.780794        8.205105
     15       C        4.831101        9.920492        8.709109
     16       C        4.825665       10.123766        8.625251
     17       N        3.525658       10.970530        6.287717
     18       H        1.143781        3.152444        1.170814
     19       H        1.284365        0.859486        3.279166
     20       H        0.505130        3.405531        1.539150
     21       H        0.832474        3.165831        1.302654
     22       H        1.324957        2.946766        1.071253
     23       H        1.184966        2.924722        1.299574
     24       H        0.559972        3.220710        1.664274
     25       H        1.148863        3.138600        0.789312
     26       H        2.465615        0.771185        1.573064
     27       O        3.002559        3.674664        1.949832

 **********************
 *                    *
 * JOB ENDED NORMALLY *
 *                    *
 **********************



 TOTAL JOB TIME:            17.27 SECONDS

 == MOPAC DONE ==
