
                                 *****************
                                 * O   R   C   A *
                                 *****************

                                            #,                                       
                                            ###                                      
                                            ####                                     
                                            #####                                    
                                            ######                                   
                                           ########,                                 
                                     ,,################,,,,,                         
                               ,,#################################,,                 
                          ,,##########################################,,             
                       ,#########################################, ''#####,          
                    ,#############################################,,   '####,        
                  ,##################################################,,,,####,       
                ,###########''''           ''''###############################       
              ,#####''   ,,,,##########,,,,          '''####'''          '####       
            ,##' ,,,,###########################,,,                        '##       
           ' ,,###''''                  '''############,,,                           
         ,,##''                                '''############,,,,        ,,,,,,###''
      ,#''                                            '''#######################'''  
     '                                                          ''''####''''         
             ,#######,   #######,   ,#######,      ##                                
            ,#'     '#,  ##    ##  ,#'     '#,    #''#        ######   ,####,        
            ##       ##  ##   ,#'  ##            #'  '#       #        #'  '#        
            ##       ##  #######   ##           ,######,      #####,   #    #        
            '#,     ,#'  ##    ##  '#,     ,#' ,#      #,         ##   #,  ,#        
             '#######'   ##     ##  '#######'  #'      '#     #####' # '####'        



                  #######################################################
                  #                        -***-                        #
                  #          Department of theory and spectroscopy      #
                  #    Directorship and core code : Frank Neese         #
                  #        Max Planck Institute fuer Kohlenforschung    #
                  #                Kaiser Wilhelm Platz 1               #
                  #                 D-45470 Muelheim/Ruhr               #
                  #                      Germany                        #
                  #                                                     #
                  #                  All rights reserved                #
                  #                        -***-                        #
                  #######################################################


                         Program Version 5.0.4 -  RELEASE  -


 With contributions from (in alphabetic order):
   Daniel Aravena         : Magnetic Suceptibility
   Michael Atanasov       : Ab Initio Ligand Field Theory (pilot matlab implementation)
   Alexander A. Auer      : GIAO ZORA, VPT2 properties, NMR spectrum
   Ute Becker             : Parallelization
   Giovanni Bistoni       : ED, misc. LED, open-shell LED, HFLD
   Martin Brehm           : Molecular dynamics
   Dmytro Bykov           : SCF Hessian
   Vijay G. Chilkuri      : MRCI spin determinant printing, contributions to CSF-ICE
   Dipayan Datta          : RHF DLPNO-CCSD density
   Achintya Kumar Dutta   : EOM-CC, STEOM-CC
   Dmitry Ganyushin       : Spin-Orbit,Spin-Spin,Magnetic field MRCI
   Miquel Garcia          : C-PCM and meta-GGA Hessian, CC/C-PCM, Gaussian charge scheme
   Yang Guo               : DLPNO-NEVPT2, F12-NEVPT2, CIM, IAO-localization
   Andreas Hansen         : Spin unrestricted coupled pair/coupled cluster methods
   Benjamin Helmich-Paris : MC-RPA, TRAH-SCF, COSX integrals
   Lee Huntington         : MR-EOM, pCC
   Robert Izsak           : Overlap fitted RIJCOSX, COSX-SCS-MP3, EOM
   Marcus Kettner         : VPT2
   Christian Kollmar      : KDIIS, OOCD, Brueckner-CCSD(T), CCSD density, CASPT2, CASPT2-K
   Simone Kossmann        : Meta GGA functionals, TD-DFT gradient, OOMP2, MP2 Hessian
   Martin Krupicka        : Initial AUTO-CI
   Lucas Lang             : DCDCAS
   Marvin Lechner         : AUTO-CI (C++ implementation), FIC-MRCC
   Dagmar Lenk            : GEPOL surface, SMD
   Dimitrios Liakos       : Extrapolation schemes; Compound Job, initial MDCI parallelization
   Dimitrios Manganas     : Further ROCIS development; embedding schemes
   Dimitrios Pantazis     : SARC Basis sets
   Anastasios Papadopoulos: AUTO-CI, single reference methods and gradients
   Taras Petrenko         : DFT Hessian,TD-DFT gradient, ASA, ECA, R-Raman, ABS, FL, XAS/XES, NRVS
   Peter Pinski           : DLPNO-MP2, DLPNO-MP2 Gradient
   Christoph Reimann      : Effective Core Potentials
   Marius Retegan         : Local ZFS, SOC
   Christoph Riplinger    : Optimizer, TS searches, QM/MM, DLPNO-CCSD(T), (RO)-DLPNO pert. Triples
   Tobias Risthaus        : Range-separated hybrids, TD-DFT gradient, RPA, STAB
   Michael Roemelt        : Original ROCIS implementation
   Masaaki Saitow         : Open-shell DLPNO-CCSD energy and density
   Barbara Sandhoefer     : DKH picture change effects
   Avijit Sen             : IP-ROCIS
   Kantharuban Sivalingam : CASSCF convergence, NEVPT2, FIC-MRCI
   Bernardo de Souza      : ESD, SOC TD-DFT
   Georgi Stoychev        : AutoAux, RI-MP2 NMR, DLPNO-MP2 response
   Willem Van den Heuvel  : Paramagnetic NMR
   Boris Wezisla          : Elementary symmetry handling
   Frank Wennmohs         : Technical directorship


 We gratefully acknowledge several colleagues who have allowed us to
 interface, adapt or use parts of their codes:
   Stefan Grimme, W. Hujo, H. Kruse, P. Pracht,  : VdW corrections, initial TS optimization,
                  C. Bannwarth, S. Ehlert          DFT functionals, gCP, sTDA/sTD-DF
   Ed Valeev, F. Pavosevic, A. Kumar             : LibInt (2-el integral package), F12 methods
   Garnet Chan, S. Sharma, J. Yang, R. Olivares  : DMRG
   Ulf Ekstrom                                   : XCFun DFT Library
   Mihaly Kallay                                 : mrcc  (arbitrary order and MRCC methods)
   Jiri Pittner, Ondrej Demel                    : Mk-CCSD
   Frank Weinhold                                : gennbo (NPA and NBO analysis)
   Christopher J. Cramer and Donald G. Truhlar   : smd solvation model
   Lars Goerigk                                  : TD-DFT with DH, B97 family of functionals
   V. Asgeirsson, H. Jonsson                     : NEB implementation
   FAccTs GmbH                                   : IRC, NEB, NEB-TS, DLPNO-Multilevel, CI-OPT
                                                   MM, QMMM, 2- and 3-layer-ONIOM, Crystal-QMMM,
                                                   LR-CPCM, SF, NACMEs, symmetry and pop. for TD-DFT,
                                                   nearIR, NL-DFT gradient (VV10), updates on ESD,
                                                   ML-optimized integration grids
   S Lehtola, MJT Oliveira, MAL Marques          : LibXC Library
   Liviu Ungur et al                             : ANISO software


 Your calculation uses the libint2 library for the computation of 2-el integrals
 For citations please refer to: http://libint.valeyev.net

 Your ORCA version has been built with support for libXC version: 5.1.0
 For citations please refer to: https://tddft.org/programs/libxc/

 This ORCA versions uses:
   CBLAS   interface :  Fast vector & matrix operations
   LAPACKE interface :  Fast linear algebra routines
   SCALAPACK package :  Parallel linear algebra routines
   Shared memory     :  Shared parallel matrices
   BLAS/LAPACK       :  OpenBLAS 0.3.15  USE64BITINT DYNAMIC_ARCH NO_AFFINITY Prescott SINGLE_THREADED
        Core in use  :  Prescott
   Copyright (c) 2011-2014, The OpenBLAS Project


Your calculation utilizes the atom-pairwise dispersion correction
with the Becke-Johnson damping scheme (D3BJ)
Cite in your paper:
S.Grimme, S.Ehrlich, L.Goerigk, J Comput Chem, (2011), 32, 1456–1465 
S.Grimme, J.Antony, S.Ehrlich and H.Krieg, J.Chem.Phys., 132, (2010), 154104 
   

================================================================================

----- Orbital basis set information -----
Your calculation utilizes the basis: def2-TZVP
   F. Weigend and R. Ahlrichs, Phys. Chem. Chem. Phys. 7, 3297 (2005).

----- AuxJ basis set information -----
Your calculation utilizes the auxiliary basis: def2/J
   F. Weigend, Phys. Chem. Chem. Phys. 8, 1057 (2006).

================================================================================
                                        WARNINGS
                       Please study these warnings very carefully!
================================================================================

WARNING: Gradients needed for Numerical Frequencies
  ===> : Setting RunTyp to EnGrad

INFO   : the flag for use of the SHARK integral package has been found!

================================================================================
                                       INPUT FILE
================================================================================
NAME = /home/rudenko/mop_saddle_orca_4_serv/for_orca/ch32chno2_ch3coo_new/orca/start_freq_D/start_f_D.inp
|  1> !  NUMFREQ B3LYP def2-TZVP CPCM D3 
|  2> %pal nprocs 102 end
|  3> %cpcm epsilon 78.4 end 
|  4> *xyz -1 1 
|  5> C   1.74664914469551 -1.12524209977148 0.32825129711141
|  6> H   2.79429013105963 -0.85377606214543 0.41680195026647 M = 2
|  7> N   1.41147988328853 -1.75775954384642 1.67184082697622
|  8> O   2.29900489493833 -1.8366859556259 2.50693774520304
|  9> O   0.26895624092889 -2.15393671078406 1.85081393912612
| 10> C   5.40798291764289 -1.58764285068961 0.68835110790065
| 11> O   5.75488551216517 -1.07942624194086 1.77866167524219
| 12> O   5.06377992060176 -0.94112109531909 -0.34955716864093
| 13> C   5.35270292810827 -3.10964158936012 0.58353343415048
| 14> H   5.59657531735638 -3.44483641031663 -0.42478437665279
| 15> H   4.33206296366951 -3.43748770620464 0.80187139388745
| 16> H   6.02075554057954 -3.58251108034458 1.30301660250692
| 17> C   0.87684650199348 0.107924764134 0.14607774441802
| 18> H   1.02233424978638 0.81277857149141 0.96570863389453
| 19> H   -0.17597090306966 -0.16263338395041 0.08278453434777
| 20> H   1.16644241360949 0.59786964685848 -0.78376186280012
| 21> C   1.5648228573427 -2.17334385434069 -0.75747105662007
| 22> H   0.52100959789985 -2.47194440572284 -0.8463349278369
| 23> H   2.17769411577567 -3.05225479319801 -0.55930667590586
| 24> H   1.88642302826028 -1.7369401771216 -1.70364620958815
| 25> H   4.72897011923484 0.68954299558818 -0.10935654382971
| 26> O   4.50566624103455 1.65880211709932 -0.0459318534273
| 27> H   4.51823638309771 1.85480586551107 0.89861979027051
| 28> *
| 29> 
| 30>                          ****END OF INPUT****
================================================================================

                     *******************************
                     * Energy+Gradient Calculation *
                     *******************************

---------------------------------
CARTESIAN COORDINATES (ANGSTROEM)
---------------------------------
  C      1.746649   -1.125242    0.328251
  H      2.794290   -0.853776    0.416802
  N      1.411480   -1.757760    1.671841
  O      2.299005   -1.836686    2.506938
  O      0.268956   -2.153937    1.850814
  C      5.407983   -1.587643    0.688351
  O      5.754886   -1.079426    1.778662
  O      5.063780   -0.941121   -0.349557
  C      5.352703   -3.109642    0.583533
  H      5.596575   -3.444836   -0.424784
  H      4.332063   -3.437488    0.801871
  H      6.020756   -3.582511    1.303017
  C      0.876847    0.107925    0.146078
  H      1.022334    0.812779    0.965709
  H     -0.175971   -0.162633    0.082785
  H      1.166442    0.597870   -0.783762
  C      1.564823   -2.173344   -0.757471
  H      0.521010   -2.471944   -0.846335
  H      2.177694   -3.052255   -0.559307
  H      1.886423   -1.736940   -1.703646
  H      4.728970    0.689543   -0.109357
  O      4.505666    1.658802   -0.045932
  H      4.518236    1.854806    0.898620

----------------------------
CARTESIAN COORDINATES (A.U.)
----------------------------
  NO LB      ZA    FRAG     MASS         X           Y           Z
   0 C     6.0000    0    12.011    3.300689   -2.126399    0.620305
   1 H     1.0000    0     2.000    5.280443   -1.613403    0.787642
   2 N     7.0000    0    14.007    2.667310   -3.321684    3.159321
   3 O     8.0000    0    15.999    4.344490   -3.470833    4.737426
   4 O     8.0000    0    15.999    0.508254   -4.070350    3.497531
   5 C     6.0000    0    12.011   10.219607   -3.000210    1.300795
   6 O     8.0000    0    15.999   10.875158   -2.039820    3.361183
   7 O     8.0000    0    15.999    9.569157   -1.778461   -0.660567
   8 C     6.0000    0    12.011   10.115143   -5.876371    1.102718
   9 H     1.0000    0     1.008   10.575995   -6.509797   -0.802726
  10 H     1.0000    0     1.008    8.186413   -6.495910    1.515317
  11 H     1.0000    0     1.008   11.377579   -6.769965    2.462345
  12 C     6.0000    0    12.011    1.657000    0.203948    0.276047
  13 H     1.0000    0     1.008    1.931932    1.535929    1.824925
  14 H     1.0000    0     1.008   -0.332537   -0.307333    0.156440
  15 H     1.0000    0     1.008    2.204257    1.129810   -1.481095
  16 C     6.0000    0    12.011    2.957087   -4.107025   -1.431413
  17 H     1.0000    0     1.008    0.984565   -4.671298   -1.599341
  18 H     1.0000    0     1.008    4.115245   -5.767926   -1.056936
  19 H     1.0000    0     1.008    3.564823   -3.282341   -3.219425
  20 H     1.0000    0     1.008    8.936458    1.303047   -0.206654
  21 O     8.0000    0    15.999    8.514475    3.134682   -0.086799
  22 H     1.0000    0     1.008    8.538229    3.505075    1.698145

--------------------------------
INTERNAL COORDINATES (ANGSTROEM)
--------------------------------
 C      0   0   0     0.000000000000     0.00000000     0.00000000
 H      1   0   0     1.085857570802     0.00000000     0.00000000
 N      1   2   0     1.522382861048   104.14112053     0.00000000
 O      3   1   2     1.221194860623   118.05837083   359.68592855
 O      3   1   2     1.222435272653   118.01048853   179.54922460
 C      2   1   3     2.728312553755   149.89906078    65.71048765
 O      6   2   1     1.251959529997   104.05990734   241.83081075
 O      6   2   1     1.270322665252    61.45879104   118.84373445
 C      6   2   1     1.526604985741   103.09973137     5.92427560
 H      9   6   2     1.090199118426   111.21925237    97.78028590
 H      9   6   2     1.094011187329   108.59331849   339.65210147
 H      9   6   2     1.089750374206   111.41282007   220.74580302
 C      1   2   3     1.520014590320   111.04151476   116.55345368
 H     13   1   2     1.090770539338   110.96936168   303.42022876
 H     13   1   2     1.088867407144   111.01845251   181.44627021
 H     13   1   2     1.090189651063   108.34977115    62.27551741
 C      1   2   3     1.519990498686   110.24594023   243.76858949
 H     17   1   2     1.089314094962   111.21778408   178.87506812
 H     17   1   2     1.089662672408   111.03868720    56.75516072
 H     17   1   2     1.090468825560   107.97151847   298.11843980
 H      8   6   2     1.681921318203   115.51109865    73.02310214
 O     21   8   6     0.996669733665   175.23856657   186.30870178
 H     22  21   8     0.964755557369   104.88983882   166.88300128

---------------------------
INTERNAL COORDINATES (A.U.)
---------------------------
 C      0   0   0     0.000000000000     0.00000000     0.00000000
 H      1   0   0     2.051973429261     0.00000000     0.00000000
 N      1   2   0     2.876886678357   104.14112053     0.00000000
 O      3   1   2     2.307723842730   118.05837083   359.68592855
 O      3   1   2     2.310067881759   118.01048853   179.54922460
 C      2   1   3     5.155763534336   149.89906078    65.71048765
 O      6   2   1     2.365860642448   104.05990734   241.83081075
 O      6   2   1     2.400561939039    61.45879104   118.84373445
 C      6   2   1     2.884865337728   103.09973137     5.92427560
 H      9   6   2     2.060177765267   111.21925237    97.78028590
 H      9   6   2     2.067381531498   108.59331849   339.65210147
 H      9   6   2     2.059329761587   111.41282007   220.74580302
 C      1   2   3     2.872411295270   111.04151476   116.55345368
 H     13   1   2     2.061257594299   110.96936168   303.42022876
 H     13   1   2     2.057661195654   111.01845251   181.44627021
 H     13   1   2     2.060159874544   108.34977115    62.27551741
 C      1   2   3     2.872365768679   110.24594023   243.76858949
 H     17   1   2     2.058505313298   111.21778408   178.87506812
 H     17   1   2     2.059164029209   111.03868720    56.75516072
 H     17   1   2     2.060687437888   107.97151847   298.11843980
 H      8   6   2     3.178370670207   115.51109865    73.02310214
 O     21   8   6     1.883432842596   175.23856657   186.30870178
 H     22  21   8     1.823123789607   104.88983882   166.88300128

---------------------
BASIS SET INFORMATION
---------------------
There are 4 groups of distinct atoms

 Group   1 Type C   : 11s6p2d1f contracted to 5s3p2d1f pattern {62111/411/11/1}
 Group   2 Type H   : 5s1p contracted to 3s1p pattern {311/1}
 Group   3 Type N   : 11s6p2d1f contracted to 5s3p2d1f pattern {62111/411/11/1}
 Group   4 Type O   : 11s6p2d1f contracted to 5s3p2d1f pattern {62111/411/11/1}

Atom   0C    basis set group =>   1
Atom   1H    basis set group =>   2
Atom   2N    basis set group =>   3
Atom   3O    basis set group =>   4
Atom   4O    basis set group =>   4
Atom   5C    basis set group =>   1
Atom   6O    basis set group =>   4
Atom   7O    basis set group =>   4
Atom   8C    basis set group =>   1
Atom   9H    basis set group =>   2
Atom  10H    basis set group =>   2
Atom  11H    basis set group =>   2
Atom  12C    basis set group =>   1
Atom  13H    basis set group =>   2
Atom  14H    basis set group =>   2
Atom  15H    basis set group =>   2
Atom  16C    basis set group =>   1
Atom  17H    basis set group =>   2
Atom  18H    basis set group =>   2
Atom  19H    basis set group =>   2
Atom  20H    basis set group =>   2
Atom  21O    basis set group =>   4
Atom  22H    basis set group =>   2
---------------------------------
AUXILIARY/J BASIS SET INFORMATION
---------------------------------
There are 4 groups of distinct atoms

 Group   1 Type C   : 12s5p4d2f1g contracted to 6s4p3d1f1g pattern {711111/2111/211/2/1}
 Group   2 Type H   : 5s2p1d contracted to 3s1p1d pattern {311/2/1}
 Group   3 Type N   : 12s5p4d2f1g contracted to 6s4p3d1f1g pattern {711111/2111/211/2/1}
 Group   4 Type O   : 12s5p4d2f1g contracted to 6s4p3d1f1g pattern {711111/2111/211/2/1}

Atom   0C    basis set group =>   1
Atom   1H    basis set group =>   2
Atom   2N    basis set group =>   3
Atom   3O    basis set group =>   4
Atom   4O    basis set group =>   4
Atom   5C    basis set group =>   1
Atom   6O    basis set group =>   4
Atom   7O    basis set group =>   4
Atom   8C    basis set group =>   1
Atom   9H    basis set group =>   2
Atom  10H    basis set group =>   2
Atom  11H    basis set group =>   2
Atom  12C    basis set group =>   1
Atom  13H    basis set group =>   2
Atom  14H    basis set group =>   2
Atom  15H    basis set group =>   2
Atom  16C    basis set group =>   1
Atom  17H    basis set group =>   2
Atom  18H    basis set group =>   2
Atom  19H    basis set group =>   2
Atom  20H    basis set group =>   2
Atom  21O    basis set group =>   4
Atom  22H    basis set group =>   2


           ************************************************************
           *        Program running with 102 parallel MPI-processes   *
           *              working on a common directory               *
           ************************************************************
------------------------------------------------------------------------------
                           ORCA GTO INTEGRAL CALCULATION
                           -- RI-GTO INTEGRALS CHOSEN --
------------------------------------------------------------------------------
------------------------------------------------------------------------------
                   ___                                                        
                  /   \      - P O W E R E D   B Y -                         
                 /     \                                                     
                 |  |  |   _    _      __       _____    __    __             
                 |  |  |  | |  | |    /  \     |  _  \  |  |  /  |          
                  \  \/   | |  | |   /    \    | | | |  |  | /  /          
                 / \  \   | |__| |  /  /\  \   | |_| |  |  |/  /          
                |  |  |   |  __  | /  /__\  \  |    /   |      \           
                |  |  |   | |  | | |   __   |  |    \   |  |\   \          
                \     /   | |  | | |  |  |  |  | |\  \  |  | \   \       
                 \___/    |_|  |_| |__|  |__|  |_| \__\ |__|  \__/        
                                                                              
                      - O R C A' S   B I G   F R I E N D -                    
                                      &                                       
                       - I N T E G R A L  F E E D E R -                       
                                                                              
 v1 FN, 2020, v2 2021                                                         
------------------------------------------------------------------------------


Reading SHARK input file /home/rudenko/mop_saddle_orca_4_serv/for_orca/ch32chno2_ch3coo_new/orca/start_freq_D/start_f_D.SHARKINP.tmp ... ok
----------------------
SHARK INTEGRAL PACKAGE
----------------------

Number of atoms                             ...     23
Number of basis functions                   ...    413
Number of shells                            ...    169
Maximum angular momentum                    ...      3
Integral batch strategy                     ... SHARK/LIBINT Hybrid
RI-J (if used) integral strategy            ... SPLIT-RIJ (Revised 2003 algorithm where possible)
Printlevel                                  ...      1
Contraction scheme used                     ... SEGMENTED contraction
Coulomb Range Separation                    ... NOT USED
Exchange Range Separation                   ... NOT USED
Finite Nucleus Model                        ... NOT USED
Auxiliary Coulomb fitting basis             ... AVAILABLE
   # of basis functions in Aux-J            ...    671
   # of shells in Aux-J                     ...    225
   Maximum angular momentum in Aux-J        ...      4
Auxiliary J/K fitting basis                 ... NOT available
Auxiliary Correlation fitting basis         ... NOT available
Auxiliary 'external' fitting basis          ... NOT available
Integral threshold                          ...     2.500000e-11
Primitive cut-off                           ...     2.500000e-12
Primitive pair pre-selection threshold      ...     2.500000e-12

Calculating pre-screening integrals         ... done (  0.1 sec) Dimension = 169
Organizing shell pair data                  ... done (  0.3 sec)
Shell pair information
Total number of shell pairs                 ...     14365
Shell pairs after pre-screening             ...     11772
Total number of primitive shell pairs       ...     43056
Primitive shell pairs kept                  ...     24600
          la=0 lb=0:   3365 shell pairs
          la=1 lb=0:   3442 shell pairs
          la=1 lb=1:    918 shell pairs
          la=2 lb=0:   1594 shell pairs
          la=2 lb=1:    838 shell pairs
          la=2 lb=2:    205 shell pairs
          la=3 lb=0:    767 shell pairs
          la=3 lb=1:    405 shell pairs
          la=3 lb=2:    187 shell pairs
          la=3 lb=3:     51 shell pairs

Calculating one electron integrals          ... done (  0.1 sec)
Calculating RI/J V-Matrix + Cholesky decomp.... done (  0.0 sec)
Calculating Nuclear repulsion               ... done (  0.0 sec) ENN=    658.133144370334 Eh

SHARK setup successfully completed in   0.7 seconds

Maximum memory used throughout the entire GTOINT-calculation: 24.4 MB


           ************************************************************
           *        Program running with 102 parallel MPI-processes   *
           *              working on a common directory               *
           ************************************************************
-------------------------------------------------------------------------------
                                 ORCA SCF
-------------------------------------------------------------------------------

------------
SCF SETTINGS
------------
Hamiltonian:
 Density Functional     Method          .... DFT(GTOs)
 Exchange Functional    Exchange        .... B88
   X-Alpha parameter    XAlpha          ....  0.666667
   Becke's b parameter  XBeta           ....  0.004200
 Correlation Functional Correlation     .... LYP
 LDA part of GGA corr.  LDAOpt          .... VWN-5
 Gradients option       PostSCFGGA      .... off
 Hybrid DFT is turned on
   Fraction HF Exchange ScalHFX         ....  0.200000
   Scaling of DF-GGA-X  ScalDFX         ....  0.720000
   Scaling of DF-GGA-C  ScalDFC         ....  0.810000
   Scaling of DF-LDA-C  ScalLDAC        ....  1.000000
   Perturbative correction              ....  0.000000
   Density functional embedding theory  .... OFF
   NL short-range parameter             ....  4.800000
 RI-approximation to the Coulomb term is turned on
   Number of AuxJ basis functions       .... 671
   RIJ-COSX (HFX calculated with COS-X)).... on


General Settings:
 Integral files         IntName         .... /home/rudenko/mop_saddle_orca_4_serv/for_orca/ch32chno2_ch3coo_new/orca/start_freq_D/start_f_D
 Hartree-Fock type      HFTyp           .... RHF
 Total Charge           Charge          ....   -1
 Multiplicity           Mult            ....    1
 Number of Electrons    NEL             ....   90
 Basis Dimension        Dim             ....  413
 Nuclear Repulsion      ENuc            ....    658.1331443703 Eh

Convergence Acceleration:
 DIIS                   CNVDIIS         .... on
   Start iteration      DIISMaxIt       ....    12
   Startup error        DIISStart       ....  0.200000
   # of expansion vecs  DIISMaxEq       ....     5
   Bias factor          DIISBfac        ....   1.050
   Max. coefficient     DIISMaxC        ....  10.000
 Trust-Rad. Augm. Hess. CNVTRAH         .... auto
   Auto Start mean grad. ratio tolernc. ....  1.125000
   Auto Start start iteration           ....    20
   Auto Start num. interpolation iter.  ....    10
   Max. Number of Micro iterations      ....    16
   Max. Number of Macro iterations      .... Maxiter - #DIIS iter
   Number of Davidson start vectors     ....     2
   Converg. threshold I  (grad. norm)   ....   1.000e-05
   Converg. threshold II (energy diff.) ....   1.000e-08
   Grad. Scal. Fac. for Micro threshold ....   0.100
   Minimum threshold for Micro iter.    ....   0.010
   NR start threshold (gradient norm)   ....   0.001
   Initial trust radius                 ....   0.400
   Minimum AH scaling param. (alpha)    ....   1.000
   Maximum AH scaling param. (alpha)    .... 1000.000
   Orbital update algorithm             .... Taylor
   White noise on init. David. guess    .... on
   Maximum white noise                  ....   0.010
   Quad. conv. algorithm                .... NR
 SOSCF                  CNVSOSCF        .... on
   Start iteration      SOSCFMaxIt      ....   150
   Startup grad/error   SOSCFStart      ....  0.003300
 Level Shifting         CNVShift        .... on
   Level shift para.    LevelShift      ....    0.2500
   Turn off err/grad.   ShiftErr        ....    0.0010
 Zerner damping         CNVZerner       .... off
 Static damping         CNVDamp         .... on
   Fraction old density DampFac         ....    0.7000
   Max. Damping (<1)    DampMax         ....    0.9800
   Min. Damping (>=0)   DampMin         ....    0.0000
   Turn off err/grad.   DampErr         ....    0.1000
 Fernandez-Rico         CNVRico         .... off

SCF Procedure:
 Maximum # iterations   MaxIter         ....   125
 SCF integral mode      SCFMode         .... Direct
   Integral package                     .... SHARK and LIBINT hybrid scheme
 Reset frequency        DirectResetFreq ....    20
 Integral Threshold     Thresh          ....  2.500e-11 Eh
 Primitive CutOff       TCut            ....  2.500e-12 Eh

Convergence Tolerance:
 Convergence Check Mode ConvCheckMode   .... Total+1el-Energy
 Convergence forced     ConvForced      .... 0
 Energy Change          TolE            ....  1.000e-08 Eh
 1-El. energy change                    ....  1.000e-05 Eh
 Orbital Gradient       TolG            ....  1.000e-05
 Orbital Rotation angle TolX            ....  1.000e-05
 DIIS Error             TolErr          ....  5.000e-07


Diagonalization of the overlap matrix:
Smallest eigenvalue                        ... 1.617e-04
Time for diagonalization                   ...    0.075 sec
Threshold for overlap eigenvalues          ... 1.000e-08
Number of eigenvalues below threshold      ... 0
Time for construction of square roots      ...    0.100 sec
Total time needed                          ...    0.178 sec

Time for model grid setup =    0.159 sec

------------------------------
INITIAL GUESS: MODEL POTENTIAL
------------------------------
Loading Hartree-Fock densities                     ... done
Calculating cut-offs                               ... done
Initializing the effective Hamiltonian             ... done
Setting up the integral package (SHARK)            ... done
Starting the Coulomb interaction                   ... done (   0.0 sec)
Reading the grid                                   ... done
Mapping shells                                     ... done
Starting the XC term evaluation                    ... done (   0.0 sec)
  promolecular density results
     # of electrons  =     88.990929651
     EX              =    -76.749325867
     EC              =     -3.050663568
     EX+EC           =    -79.799989435
Transforming the Hamiltonian                       ... done (   0.1 sec)
Diagonalizing the Hamiltonian                      ... done (   0.1 sec)
Back transforming the eigenvectors                 ... done (   0.0 sec)
Now organizing SCF variables                       ... done
                      ------------------
                      INITIAL GUESS DONE (   0.5 sec)
                      ------------------
-------------------
DFT GRID GENERATION
-------------------

General Integration Accuracy     IntAcc      ... 4.388
Radial Grid Type                 RadialGrid  ... OptM3 with GC (2021)
Angular Grid (max. ang.)         AngularGrid ... 4 (Lebedev-302)
Angular grid pruning method      GridPruning ... 4 (adaptive)
Weight generation scheme         WeightScheme... Becke
Basis function cutoff            BFCut       ... 1.0000e-11
Integration weight cutoff        WCut        ... 1.0000e-14
Angular grids for H and He will be reduced by one unit
Partially contracted basis set               ... off
Rotationally invariant grid construction     ... off

Total number of grid points                  ...   105051
Total number of batches                      ...     1656
Average number of points per batch           ...       63
Average number of grid points per atom       ...     4567
Time for grid setup =    0.849 sec

--------------------
COSX GRID GENERATION
--------------------

GRIDX 1
-------
General Integration Accuracy     IntAcc      ... 3.816
Radial Grid Type                 RadialGrid  ... OptM3 with GC (2021)
Angular Grid (max. ang.)         AngularGrid ... 1 (Lebedev-50)
Angular grid pruning method      GridPruning ... 4 (adaptive)
Weight generation scheme         WeightScheme... Becke
Basis function cutoff            BFCut       ... 1.0000e-11
Integration weight cutoff        WCut        ... 1.0000e-14
Angular grids for H and He will be reduced by one unit
Partially contracted basis set               ... on
Rotationally invariant grid construction     ... off

Total number of grid points                  ...    13403
Total number of batches                      ...      222
Average number of points per batch           ...       60
Average number of grid points per atom       ...      583
UseSFitting                                  ... on

GRIDX 2
-------
General Integration Accuracy     IntAcc      ... 4.020
Radial Grid Type                 RadialGrid  ... OptM3 with GC (2021)
Angular Grid (max. ang.)         AngularGrid ... 2 (Lebedev-110)
Angular grid pruning method      GridPruning ... 4 (adaptive)
Weight generation scheme         WeightScheme... Becke
Basis function cutoff            BFCut       ... 1.0000e-11
Integration weight cutoff        WCut        ... 1.0000e-14
Angular grids for H and He will be reduced by one unit
Partially contracted basis set               ... on
Rotationally invariant grid construction     ... off

Total number of grid points                  ...    28825
Total number of batches                      ...      463
Average number of points per batch           ...       62
Average number of grid points per atom       ...     1253
UseSFitting                                  ... on

GRIDX 3
-------
General Integration Accuracy     IntAcc      ... 4.338
Radial Grid Type                 RadialGrid  ... OptM3 with GC (2021)
Angular Grid (max. ang.)         AngularGrid ... 3 (Lebedev-194)
Angular grid pruning method      GridPruning ... 4 (adaptive)
Weight generation scheme         WeightScheme... Becke
Basis function cutoff            BFCut       ... 1.0000e-11
Integration weight cutoff        WCut        ... 1.0000e-14
Angular grids for H and He will be reduced by one unit
Partially contracted basis set               ... on
Rotationally invariant grid construction     ... off

Total number of grid points                  ...    63126
Total number of batches                      ...     1001
Average number of points per batch           ...       63
Average number of grid points per atom       ...     2745
UseSFitting                                  ... on

Time for X-Grid setup             =    0.948 sec


--------------------
CPCM SOLVATION MODEL
--------------------
CPCM parameters:
  Epsilon                                         ...      78.4000
  Refrac                                          ...       1.3300
  Rsolv                                           ...       1.3000
  Surface type                                    ... GAUSSIAN VDW
  Epsilon function type                           ...         CPCM
Radii:
 Radius for C  used is    3.8550 Bohr (=   2.0400 Ang.)
 Radius for H  used is    2.4944 Bohr (=   1.3200 Ang.)
 Radius for N  used is    3.5149 Bohr (=   1.8600 Ang.)
 Radius for O  used is    3.4469 Bohr (=   1.8240 Ang.)
Calculating surface                               ...        done! (  0.0s)
GEPOL surface points                              ...         1406
GEPOL Volume                                      ...    1433.3681
GEPOL Surface-area                                ...     871.3379
Calculating surface distance matrix               ...        done! (  0.1s)
Performing Cholesky decomposition & store         ...        done! (  0.4s)
Overall time for CPCM initialization              ...                 0.5s
--------------
SCF ITERATIONS
--------------
ITER       Energy         Delta-E        Max-DP      RMS-DP      [F,P]     Damp
               ***  Starting incremental Fock matrix formation  ***
  0   -628.0825828133   0.000000000000 0.16293436  0.00135970  0.3565247 0.7000
  1   -628.3729068735  -0.290324060141 0.14462662  0.00104095  0.1444922 0.7000
                               ***Turning on DIIS***
  2   -628.4715070498  -0.098600176270 0.16313125  0.00146463  0.0459726 0.0000
  3   -628.6408312798  -0.169324230020 0.12982613  0.00080037  0.0844387 0.0000
  4   -628.6737890528  -0.032957772999 0.03943924  0.00027462  0.0204812 0.0000
  5   -628.6760669519  -0.002277899155 0.01190225  0.00009899  0.0043565 0.0000
                      *** Initiating the SOSCF procedure ***
                           *** Shutting down DIIS ***
                      *** Re-Reading the Fockian *** 
                      *** Removing any level shift *** 
ITER      Energy       Delta-E        Grad      Rot      Max-DP    RMS-DP
  6   -628.67617102  -0.0001040642  0.000434  0.000434  0.004848  0.000041
               *** Restarting incremental Fock matrix formation ***
  7   -628.67615969   0.0000113260  0.000239  0.000581  0.002315  0.000024
  8   -628.67615898   0.0000007071  0.000410  0.000327  0.001066  0.000009
  9   -628.67616217  -0.0000031902  0.000062  0.000187  0.000334  0.000004
 10   -628.67616205   0.0000001272  0.000119  0.000164  0.000112  0.000001
 11   -628.67616225  -0.0000002059  0.000035  0.000093  0.000127  0.000001
 12   -628.67616223   0.0000000253  0.000054  0.000062  0.000042  0.000001
 13   -628.67616226  -0.0000000334  0.000006  0.000016  0.000047  0.000000
 14   -628.67616225   0.0000000056  0.000011  0.000012  0.000026  0.000000
                  ***Gradient check signals convergence***
              ***Rediagonalizing the Fockian in SOSCF/NRSCF***

               *****************************************************
               *                     SUCCESS                       *
               *           SCF CONVERGED AFTER  15 CYCLES          *
               *****************************************************

Old exchange energy                            =    -15.610062230 Eh
New exchange energy                            =    -15.610091321 Eh
Exchange energy change after final integration =     -0.000029092 Eh
Total energy after final integration           =   -628.676191355 Eh
Final COS-X integration done in                =     0.956 sec

----------------
TOTAL SCF ENERGY
----------------

Total Energy       :         -628.67619136 Eh          -17107.14888 eV

Components:
Nuclear Repulsion  :          658.13314437 Eh           17908.71332 eV
Electronic Energy  :        -1286.80933573 Eh          -35015.86220 eV
One Electron Energy:        -2180.42869201 Eh          -59332.48111 eV
Two Electron Energy:          893.61935628 Eh           24316.61892 eV
Max COSX asymmetry :            0.00000139 Eh               0.00004 eV
CPCM Dielectric    :           -0.10737462 Eh              -2.92181 eV

Virial components:
Potential Energy   :        -1254.81080612 Eh          -34145.13794 eV
Kinetic Energy     :          626.13461476 Eh           17037.98906 eV
Virial Ratio       :            2.00405915


DFT components:
N(Alpha)           :       45.000029986699 electrons
N(Beta)            :       45.000029986699 electrons
N(Total)           :       90.000059973398 electrons
E(X)               :      -62.174038009246 Eh       
E(C)               :       -3.639180715685 Eh       
E(XC)              :      -65.813218724932 Eh       
DFET-embed. en.    :        0.000000000000 Eh       
CPCM Solvation Model Properties:
Surface-charge          :            0.97282903
Charge-correction       :           -0.00368768 Eh              -0.10035 eV
Free-energy (cav+disp)  :  This term is not implemented in the current solvation scheme

---------------
SCF CONVERGENCE
---------------

  Last Energy change         ...   -9.2402e-09  Tolerance :   1.0000e-08
  Last MAX-Density change    ...    1.8874e-15  Tolerance :   1.0000e-07
  Last RMS-Density change    ...    1.8468e-17  Tolerance :   5.0000e-09
  Last Orbital Gradient      ...    1.4226e-06  Tolerance :   1.0000e-05
  Last Orbital Rotation      ...    3.4974e-06  Tolerance :   1.0000e-05

             **** THE GBW FILE WAS UPDATED (/home/rudenko/mop_saddle_orca_4_serv/for_orca/ch32chno2_ch3coo_new/orca/start_freq_D/start_f_D.gbw) ****
             **** DENSITY /home/rudenko/mop_saddle_orca_4_serv/for_orca/ch32chno2_ch3coo_new/orca/start_freq_D/start_f_D.scfp WAS UPDATED ****
             **** ENERGY FILE WAS UPDATED (/home/rudenko/mop_saddle_orca_4_serv/for_orca/ch32chno2_ch3coo_new/orca/start_freq_D/start_f_D.en.tmp) ****
             **** THE GBW FILE WAS UPDATED (/home/rudenko/mop_saddle_orca_4_serv/for_orca/ch32chno2_ch3coo_new/orca/start_freq_D/start_f_D.gbw) ****
             **** DENSITY /home/rudenko/mop_saddle_orca_4_serv/for_orca/ch32chno2_ch3coo_new/orca/start_freq_D/start_f_D.scfp WAS UPDATED ****
----------------
ORBITAL ENERGIES
----------------

  NO   OCC          E(Eh)            E(eV) 
   0   2.0000     -19.167080      -521.5628 
   1   2.0000     -19.165871      -521.5299 
   2   2.0000     -19.090719      -519.4849 
   3   2.0000     -19.062560      -518.7186 
   4   2.0000     -19.057299      -518.5755 
   5   2.0000     -14.546809      -395.8388 
   6   2.0000     -10.248389      -278.8729 
   7   2.0000     -10.224700      -278.2282 
   8   2.0000     -10.166488      -276.6442 
   9   2.0000     -10.166272      -276.6383 
  10   2.0000     -10.145278      -276.0671 
  11   2.0000      -1.235591       -33.6221 
  12   2.0000      -1.062426       -28.9101 
  13   2.0000      -1.019884       -27.7524 
  14   2.0000      -0.972200       -26.4549 
  15   2.0000      -0.928949       -25.2780 
  16   2.0000      -0.838131       -22.8067 
  17   2.0000      -0.704805       -19.1787 
  18   2.0000      -0.699826       -19.0432 
  19   2.0000      -0.694799       -18.9065 
  20   2.0000      -0.586021       -15.9464 
  21   2.0000      -0.538306       -14.6480 
  22   2.0000      -0.536341       -14.5946 
  23   2.0000      -0.519505       -14.1364 
  24   2.0000      -0.512528       -13.9466 
  25   2.0000      -0.479438       -13.0462 
  26   2.0000      -0.460827       -12.5398 
  27   2.0000      -0.423968       -11.5367 
  28   2.0000      -0.421634       -11.4732 
  29   2.0000      -0.419970       -11.4280 
  30   2.0000      -0.411200       -11.1893 
  31   2.0000      -0.409273       -11.1369 
  32   2.0000      -0.392103       -10.6697 
  33   2.0000      -0.374305       -10.1853 
  34   2.0000      -0.365644        -9.9497 
  35   2.0000      -0.360311        -9.8046 
  36   2.0000      -0.358185        -9.7467 
  37   2.0000      -0.344372        -9.3708 
  38   2.0000      -0.326392        -8.8816 
  39   2.0000      -0.311630        -8.4799 
  40   2.0000      -0.304245        -8.2789 
  41   2.0000      -0.290477        -7.9043 
  42   2.0000      -0.252821        -6.8796 
  43   2.0000      -0.241855        -6.5812 
  44   2.0000      -0.231475        -6.2988 
  45   0.0000      -0.075769        -2.0618 
  46   0.0000       0.034877         0.9491 
  47   0.0000       0.054926         1.4946 
  48   0.0000       0.062548         1.7020 
  49   0.0000       0.071598         1.9483 
  50   0.0000       0.091943         2.5019 
  51   0.0000       0.101536         2.7629 
  52   0.0000       0.111964         3.0467 
  53   0.0000       0.115857         3.1526 
  54   0.0000       0.126657         3.4465 
  55   0.0000       0.129644         3.5278 
  56   0.0000       0.135007         3.6737 
  57   0.0000       0.150590         4.0978 
  58   0.0000       0.155548         4.2327 
  59   0.0000       0.159717         4.3461 
  60   0.0000       0.167989         4.5712 
  61   0.0000       0.182674         4.9708 
  62   0.0000       0.187738         5.1086 
  63   0.0000       0.198453         5.4002 
  64   0.0000       0.208239         5.6665 
  65   0.0000       0.212437         5.7807 
  66   0.0000       0.218303         5.9403 
  67   0.0000       0.231404         6.2968 
  68   0.0000       0.252655         6.8751 
  69   0.0000       0.270338         7.3563 
  70   0.0000       0.271397         7.3851 
  71   0.0000       0.282431         7.6854 
  72   0.0000       0.298474         8.1219 
  73   0.0000       0.313622         8.5341 
  74   0.0000       0.322085         8.7644 
  75   0.0000       0.327729         8.9180 
  76   0.0000       0.352914         9.6033 
  77   0.0000       0.364456         9.9174 
  78   0.0000       0.368678        10.0322 
  79   0.0000       0.375878        10.2281 
  80   0.0000       0.386850        10.5267 
  81   0.0000       0.397161        10.8073 
  82   0.0000       0.401372        10.9219 
  83   0.0000       0.409586        11.1454 
  84   0.0000       0.413608        11.2548 
  85   0.0000       0.425486        11.5781 
  86   0.0000       0.433640        11.7999 
  87   0.0000       0.446173        12.1410 
  88   0.0000       0.449191        12.2231 
  89   0.0000       0.454371        12.3641 
  90   0.0000       0.459873        12.5138 
  91   0.0000       0.464755        12.6466 
  92   0.0000       0.468452        12.7472 
  93   0.0000       0.477843        13.0028 
  94   0.0000       0.482860        13.1393 
  95   0.0000       0.494256        13.4494 
  96   0.0000       0.495966        13.4959 
  97   0.0000       0.502492        13.6735 
  98   0.0000       0.508508        13.8372 
  99   0.0000       0.521648        14.1948 
 100   0.0000       0.531457        14.4617 
 101   0.0000       0.539374        14.6771 
 102   0.0000       0.543990        14.8027 
 103   0.0000       0.557367        15.1667 
 104   0.0000       0.570709        15.5298 
 105   0.0000       0.575043        15.6477 
 106   0.0000       0.581848        15.8329 
 107   0.0000       0.602467        16.3940 
 108   0.0000       0.605279        16.4705 
 109   0.0000       0.622465        16.9381 
 110   0.0000       0.632421        17.2091 
 111   0.0000       0.640531        17.4297 
 112   0.0000       0.652240        17.7484 
 113   0.0000       0.659189        17.9374 
 114   0.0000       0.673555        18.3284 
 115   0.0000       0.700006        19.0481 
 116   0.0000       0.715242        19.4627 
 117   0.0000       0.728402        19.8208 
 118   0.0000       0.757177        20.6038 
 119   0.0000       0.780989        21.2518 
 120   0.0000       0.800143        21.7730 
 121   0.0000       0.833291        22.6750 
 122   0.0000       0.846068        23.0227 
 123   0.0000       0.853721        23.2309 
 124   0.0000       0.882822        24.0228 
 125   0.0000       0.892540        24.2872 
 126   0.0000       0.905145        24.6303 
 127   0.0000       0.917283        24.9605 
 128   0.0000       0.937376        25.5073 
 129   0.0000       0.940667        25.5968 
 130   0.0000       0.951109        25.8810 
 131   0.0000       0.976732        26.5782 
 132   0.0000       0.988906        26.9095 
 133   0.0000       0.996189        27.1077 
 134   0.0000       1.019699        27.7474 
 135   0.0000       1.022445        27.8221 
 136   0.0000       1.066051        29.0087 
 137   0.0000       1.088241        29.6126 
 138   0.0000       1.106369        30.1058 
 139   0.0000       1.114617        30.3303 
 140   0.0000       1.134737        30.8778 
 141   0.0000       1.142472        31.0882 
 142   0.0000       1.148713        31.2581 
 143   0.0000       1.188680        32.3456 
 144   0.0000       1.200955        32.6796 
 145   0.0000       1.234761        33.5996 
 146   0.0000       1.237540        33.6752 
 147   0.0000       1.244842        33.8739 
 148   0.0000       1.265998        34.4496 
 149   0.0000       1.270727        34.5783 
 150   0.0000       1.332403        36.2565 
 151   0.0000       1.344886        36.5962 
 152   0.0000       1.359163        36.9847 
 153   0.0000       1.378520        37.5114 
 154   0.0000       1.420869        38.6638 
 155   0.0000       1.439104        39.1600 
 156   0.0000       1.461719        39.7754 
 157   0.0000       1.468808        39.9683 
 158   0.0000       1.500268        40.8244 
 159   0.0000       1.505416        40.9645 
 160   0.0000       1.517847        41.3027 
 161   0.0000       1.533759        41.7357 
 162   0.0000       1.545056        42.0431 
 163   0.0000       1.550277        42.1852 
 164   0.0000       1.559803        42.4444 
 165   0.0000       1.561345        42.4864 
 166   0.0000       1.568453        42.6798 
 167   0.0000       1.584512        43.1168 
 168   0.0000       1.590086        43.2684 
 169   0.0000       1.600163        43.5427 
 170   0.0000       1.613304        43.9002 
 171   0.0000       1.622546        44.1517 
 172   0.0000       1.636211        44.5236 
 173   0.0000       1.640601        44.6430 
 174   0.0000       1.659547        45.1586 
 175   0.0000       1.665286        45.3147 
 176   0.0000       1.692709        46.0609 
 177   0.0000       1.695641        46.1408 
 178   0.0000       1.707556        46.4650 
 179   0.0000       1.733489        47.1706 
 180   0.0000       1.754860        47.7522 
 181   0.0000       1.773638        48.2631 
 182   0.0000       1.795053        48.8459 
 183   0.0000       1.806013        49.1441 
 184   0.0000       1.816132        49.4195 
 185   0.0000       1.840285        50.0767 
 186   0.0000       1.849458        50.3263 
 187   0.0000       1.908539        51.9340 
 188   0.0000       1.924003        52.3548 
 189   0.0000       1.931818        52.5675 
 190   0.0000       1.944144        52.9029 
 191   0.0000       1.959686        53.3258 
 192   0.0000       1.973291        53.6960 
 193   0.0000       1.974138        53.7190 
 194   0.0000       1.995327        54.2956 
 195   0.0000       2.004335        54.5407 
 196   0.0000       2.025733        55.1230 
 197   0.0000       2.030456        55.2515 
 198   0.0000       2.070299        56.3357 
 199   0.0000       2.094168        56.9852 
 200   0.0000       2.104246        57.2595 
 201   0.0000       2.109311        57.3973 
 202   0.0000       2.126270        57.8588 
 203   0.0000       2.151052        58.5331 
 204   0.0000       2.156086        58.6701 
 205   0.0000       2.169288        59.0293 
 206   0.0000       2.176754        59.2325 
 207   0.0000       2.188946        59.5643 
 208   0.0000       2.197958        59.8095 
 209   0.0000       2.202228        59.9257 
 210   0.0000       2.234012        60.7906 
 211   0.0000       2.239470        60.9391 
 212   0.0000       2.261660        61.5429 
 213   0.0000       2.270316        61.7784 
 214   0.0000       2.299657        62.5768 
 215   0.0000       2.304237        62.7015 
 216   0.0000       2.311149        62.8896 
 217   0.0000       2.318914        63.1009 
 218   0.0000       2.329087        63.3777 
 219   0.0000       2.362127        64.2767 
 220   0.0000       2.380522        64.7773 
 221   0.0000       2.382824        64.8399 
 222   0.0000       2.388820        65.0031 
 223   0.0000       2.407266        65.5050 
 224   0.0000       2.418947        65.8229 
 225   0.0000       2.423351        65.9427 
 226   0.0000       2.442296        66.4582 
 227   0.0000       2.460488        66.9533 
 228   0.0000       2.503516        68.1241 
 229   0.0000       2.518746        68.5386 
 230   0.0000       2.535836        69.0036 
 231   0.0000       2.563775        69.7639 
 232   0.0000       2.572917        70.0126 
 233   0.0000       2.577312        70.1322 
 234   0.0000       2.580897        70.2298 
 235   0.0000       2.597479        70.6810 
 236   0.0000       2.607528        70.9544 
 237   0.0000       2.614140        71.1344 
 238   0.0000       2.639475        71.8238 
 239   0.0000       2.643862        71.9431 
 240   0.0000       2.685848        73.0856 
 241   0.0000       2.690705        73.2178 
 242   0.0000       2.700315        73.4793 
 243   0.0000       2.727497        74.2190 
 244   0.0000       2.742397        74.6244 
 245   0.0000       2.752187        74.8908 
 246   0.0000       2.769632        75.3655 
 247   0.0000       2.780764        75.6684 
 248   0.0000       2.800388        76.2024 
 249   0.0000       2.815383        76.6105 
 250   0.0000       2.826875        76.9232 
 251   0.0000       2.844765        77.4100 
 252   0.0000       2.860889        77.8487 
 253   0.0000       2.884618        78.4945 
 254   0.0000       2.889195        78.6190 
 255   0.0000       2.927920        79.6728 
 256   0.0000       2.948533        80.2337 
 257   0.0000       2.955493        80.4231 
 258   0.0000       2.980527        81.1043 
 259   0.0000       3.003205        81.7214 
 260   0.0000       3.025452        82.3267 
 261   0.0000       3.028173        82.4008 
 262   0.0000       3.055866        83.1543 
 263   0.0000       3.071246        83.5729 
 264   0.0000       3.096454        84.2588 
 265   0.0000       3.104588        84.4801 
 266   0.0000       3.117653        84.8357 
 267   0.0000       3.134692        85.2993 
 268   0.0000       3.138313        85.3978 
 269   0.0000       3.149499        85.7022 
 270   0.0000       3.172009        86.3148 
 271   0.0000       3.186873        86.7192 
 272   0.0000       3.195704        86.9595 
 273   0.0000       3.203498        87.1716 
 274   0.0000       3.233488        87.9877 
 275   0.0000       3.248906        88.4072 
 276   0.0000       3.274436        89.1019 
 277   0.0000       3.278849        89.2220 
 278   0.0000       3.290659        89.5434 
 279   0.0000       3.318538        90.3020 
 280   0.0000       3.332929        90.6936 
 281   0.0000       3.347333        91.0856 
 282   0.0000       3.360961        91.4564 
 283   0.0000       3.373198        91.7894 
 284   0.0000       3.377645        91.9104 
 285   0.0000       3.386515        92.1518 
 286   0.0000       3.402521        92.5873 
 287   0.0000       3.434360        93.4537 
 288   0.0000       3.484734        94.8244 
 289   0.0000       3.524203        95.8984 
 290   0.0000       3.532039        96.1117 
 291   0.0000       3.538895        96.2982 
 292   0.0000       3.555445        96.7486 
 293   0.0000       3.573169        97.2309 
 294   0.0000       3.577651        97.3528 
 295   0.0000       3.616342        98.4057 
 296   0.0000       3.624617        98.6308 
 297   0.0000       3.647607        99.2564 
 298   0.0000       3.747970       101.9875 
 299   0.0000       3.753206       102.1299 
 300   0.0000       3.781336       102.8954 
 301   0.0000       3.785988       103.0220 
 302   0.0000       3.846019       104.6555 
 303   0.0000       3.859223       105.0148 
 304   0.0000       3.891338       105.8887 
 305   0.0000       3.912453       106.4632 
 306   0.0000       3.926231       106.8382 
 307   0.0000       3.970806       108.0511 
 308   0.0000       3.982743       108.3760 
 309   0.0000       4.004132       108.9580 
 310   0.0000       4.012123       109.1754 
 311   0.0000       4.029570       109.6502 
 312   0.0000       4.058551       110.4388 
 313   0.0000       4.075600       110.9027 
 314   0.0000       4.108241       111.7909 
 315   0.0000       4.123781       112.2138 
 316   0.0000       4.249224       115.6273 
 317   0.0000       4.307805       117.2213 
 318   0.0000       4.311692       117.3271 
 319   0.0000       4.351172       118.4014 
 320   0.0000       4.353816       118.4734 
 321   0.0000       4.388353       119.4131 
 322   0.0000       4.394084       119.5691 
 323   0.0000       4.407498       119.9341 
 324   0.0000       4.416811       120.1875 
 325   0.0000       4.453617       121.1891 
 326   0.0000       4.515911       122.8842 
 327   0.0000       4.527832       123.2086 
 328   0.0000       4.539632       123.5297 
 329   0.0000       4.592686       124.9733 
 330   0.0000       4.695493       127.7709 
 331   0.0000       4.713565       128.2626 
 332   0.0000       4.728819       128.6777 
 333   0.0000       4.743425       129.0751 
 334   0.0000       4.751707       129.3005 
 335   0.0000       4.806653       130.7957 
 336   0.0000       4.864971       132.3826 
 337   0.0000       4.951818       134.7458 
 338   0.0000       4.988023       135.7310 
 339   0.0000       5.088603       138.4679 
 340   0.0000       5.121341       139.3588 
 341   0.0000       5.125904       139.4829 
 342   0.0000       5.129374       139.5774 
 343   0.0000       5.138188       139.8172 
 344   0.0000       5.188389       141.1832 
 345   0.0000       5.202926       141.5788 
 346   0.0000       5.214149       141.8842 
 347   0.0000       5.224868       142.1759 
 348   0.0000       5.228675       142.2795 
 349   0.0000       5.243649       142.6869 
 350   0.0000       5.291598       143.9917 
 351   0.0000       5.338111       145.2574 
 352   0.0000       5.355544       145.7318 
 353   0.0000       5.400298       146.9496 
 354   0.0000       5.408360       147.1690 
 355   0.0000       5.433666       147.8576 
 356   0.0000       5.484723       149.2469 
 357   0.0000       5.562280       151.3573 
 358   0.0000       5.565418       151.4427 
 359   0.0000       5.568599       151.5293 
 360   0.0000       5.613851       152.7606 
 361   0.0000       5.636250       153.3702 
 362   0.0000       5.694226       154.9478 
 363   0.0000       5.818729       158.3357 
 364   0.0000       5.942413       161.7013 
 365   0.0000       6.032759       164.1597 
 366   0.0000       6.066627       165.0813 
 367   0.0000       6.093930       165.8243 
 368   0.0000       6.156481       167.5264 
 369   0.0000       6.235920       169.6880 
 370   0.0000       6.240496       169.8125 
 371   0.0000       6.286956       171.0768 
 372   0.0000       6.333538       172.3443 
 373   0.0000       6.340039       172.5212 
 374   0.0000       6.349535       172.7796 
 375   0.0000       6.359130       173.0407 
 376   0.0000       6.376998       173.5269 
 377   0.0000       6.390358       173.8905 
 378   0.0000       6.402293       174.2152 
 379   0.0000       6.427573       174.9032 
 380   0.0000       6.438624       175.2039 
 381   0.0000       6.478183       176.2803 
 382   0.0000       6.505073       177.0120 
 383   0.0000       6.624575       180.2638 
 384   0.0000       6.664690       181.3554 
 385   0.0000       6.786350       184.6660 
 386   0.0000       6.822665       185.6542 
 387   0.0000       6.844098       186.2374 
 388   0.0000       6.872455       187.0090 
 389   0.0000       6.894032       187.5962 
 390   0.0000       6.925841       188.4617 
 391   0.0000       6.956502       189.2960 
 392   0.0000       6.977182       189.8588 
 393   0.0000       7.058814       192.0801 
 394   0.0000       7.091056       192.9574 
 395   0.0000       7.144915       194.4230 
 396   0.0000       7.174891       195.2387 
 397   0.0000       7.248731       197.2480 
 398   0.0000       7.273135       197.9121 
 399   0.0000       7.290369       198.3810 
 400   0.0000       7.356882       200.1909 
 401   0.0000       7.405416       201.5116 
 402   0.0000      22.313769       607.1885 
 403   0.0000      22.359840       608.4422 
 404   0.0000      22.363731       608.5481 
 405   0.0000      22.549151       613.5936 
 406   0.0000      23.422600       637.3614 
 407   0.0000      32.431377       882.5026 
 408   0.0000      43.481838      1183.2010 
 409   0.0000      43.822469      1192.4700 
 410   0.0000      43.878790      1194.0026 
 411   0.0000      43.967234      1196.4093 
 412   0.0000      43.993538      1197.1250 

                    ********************************
                    * MULLIKEN POPULATION ANALYSIS *
                    ********************************

-----------------------
MULLIKEN ATOMIC CHARGES
-----------------------
   0 C :    0.077805
   1 H :    0.092410
   2 N :    0.437501
   3 O :   -0.351407
   4 O :   -0.360012
   5 C :    0.328499
   6 O :   -0.576079
   7 O :   -0.603561
   8 C :   -0.368924
   9 H :    0.106485
  10 H :    0.124029
  11 H :    0.105924
  12 C :   -0.376084
  13 H :    0.137323
  14 H :    0.132068
  15 H :    0.134891
  16 C :   -0.375479
  17 H :    0.130814
  18 H :    0.142578
  19 H :    0.134817
  20 H :    0.346792
  21 O :   -0.750905
  22 H :    0.330516
Sum of atomic charges:   -1.0000000

--------------------------------
MULLIKEN REDUCED ORBITAL CHARGES
--------------------------------
  0 C s       :     3.156088  s :     3.156088
      pz      :     0.733250  p :     2.610365
      px      :     0.996458
      py      :     0.880656
      dz2     :     0.038008  d :     0.145982
      dxz     :     0.017040
      dyz     :     0.036034
      dx2y2   :     0.033480
      dxy     :     0.021421
      f0      :     0.001707  f :     0.009760
      f+1     :     0.001072
      f-1     :     0.002225
      f+2     :     0.000867
      f-2     :     0.001610
      f+3     :     0.000963
      f-3     :     0.001317
  1 H s       :     0.883276  s :     0.883276
      pz      :     0.003422  p :     0.024315
      px      :     0.016004
      py      :     0.004889
  2 N s       :     3.322018  s :     3.322018
      pz      :     1.056377  p :     2.992041
      px      :     0.861959
      py      :     1.073704
      dz2     :     0.050186  d :     0.234262
      dxz     :     0.062644
      dyz     :     0.027548
      dx2y2   :     0.040418
      dxy     :     0.053466
      f0      :     0.002350  f :     0.014178
      f+1     :     0.002870
      f-1     :     0.000796
      f+2     :     0.002009
      f-2     :     0.002440
      f+3     :     0.002131
      f-3     :     0.001581
  3 O s       :     3.885912  s :     3.885912
      pz      :     1.478022  p :     4.420867
      px      :     1.445694
      py      :     1.497151
      dz2     :     0.008061  d :     0.041357
      dxz     :     0.014984
      dyz     :     0.005507
      dx2y2   :     0.006334
      dxy     :     0.006471
      f0      :     0.000374  f :     0.003271
      f+1     :     0.000956
      f-1     :     0.000085
      f+2     :     0.000787
      f-2     :     0.000596
      f+3     :     0.000221
      f-3     :     0.000252
  4 O s       :     3.881628  s :     3.881628
      pz      :     1.793856  p :     4.433701
      px      :     1.204034
      py      :     1.435811
      dz2     :     0.005221  d :     0.041419
      dxz     :     0.009118
      dyz     :     0.001319
      dx2y2   :     0.012966
      dxy     :     0.012794
      f0      :     0.000343  f :     0.003265
      f+1     :     0.000576
      f-1     :     0.000131
      f+2     :     0.000372
      f-2     :     0.000202
      f+3     :     0.000809
      f-3     :     0.000833
  5 C s       :     3.056779  s :     3.056779
      pz      :     0.751200  p :     2.360843
      px      :     0.739304
      py      :     0.870340
      dz2     :     0.070454  d :     0.228502
      dxz     :     0.052326
      dyz     :     0.052711
      dx2y2   :     0.026463
      dxy     :     0.026548
      f0      :     0.007040  f :     0.025376
      f+1     :     0.003323
      f-1     :     0.004533
      f+2     :     0.004862
      f-2     :     0.003198
      f+3     :     0.001395
      f-3     :     0.001025
  6 O s       :     3.781624  s :     3.781624
      pz      :     1.466325  p :     4.766969
      px      :     1.543783
      py      :     1.756861
      dz2     :     0.008326  d :     0.025850
      dxz     :     0.006888
      dyz     :     0.006891
      dx2y2   :     0.001657
      dxy     :     0.002088
      f0      :     0.000425  f :     0.001637
      f+1     :     0.000296
      f-1     :     0.000414
      f+2     :     0.000205
      f-2     :     0.000244
      f+3     :     0.000021
      f-3     :     0.000031
  7 O s       :     3.822858  s :     3.822858
      pz      :     1.530845  p :     4.754578
      px      :     1.577432
      py      :     1.646301
      dz2     :     0.007557  d :     0.024595
      dxz     :     0.005703
      dyz     :     0.006805
      dx2y2   :     0.002446
      dxy     :     0.002085
      f0      :     0.000315  f :     0.001531
      f+1     :     0.000205
      f-1     :     0.000392
      f+2     :     0.000236
      f-2     :     0.000267
      f+3     :     0.000054
      f-3     :     0.000062
  8 C s       :     3.273271  s :     3.273271
      pz      :     1.046979  p :     3.051652
      px      :     1.049663
      py      :     0.955011
      dz2     :     0.005935  d :     0.040309
      dxz     :     0.002996
      dyz     :     0.014121
      dx2y2   :     0.006763
      dxy     :     0.010493
      f0      :     0.000650  f :     0.003692
      f+1     :     0.000400
      f-1     :     0.000622
      f+2     :     0.000604
      f-2     :     0.000048
      f+3     :     0.000610
      f-3     :     0.000759
  9 H s       :     0.872139  s :     0.872139
      pz      :     0.011266  p :     0.021376
      px      :     0.004760
      py      :     0.005350
 10 H s       :     0.854190  s :     0.854190
      pz      :     0.004845  p :     0.021780
      px      :     0.011377
      py      :     0.005558
 11 H s       :     0.872706  s :     0.872706
      pz      :     0.007839  p :     0.021371
      px      :     0.007347
      py      :     0.006185
 12 C s       :     3.313441  s :     3.313441
      pz      :     1.066212  p :     3.014275
      px      :     1.006287
      py      :     0.941776
      dz2     :     0.005412  d :     0.044635
      dxz     :     0.002798
      dyz     :     0.013960
      dx2y2   :     0.017401
      dxy     :     0.005065
      f0      :     0.000267  f :     0.003734
      f+1     :     0.000225
      f-1     :     0.001031
      f+2     :     0.000128
      f-2     :     0.000454
      f+3     :     0.000722
      f-3     :     0.000907
 13 H s       :     0.841289  s :     0.841289
      pz      :     0.008779  p :     0.021388
      px      :     0.004306
      py      :     0.008303
 14 H s       :     0.846429  s :     0.846429
      pz      :     0.004365  p :     0.021503
      px      :     0.012551
      py      :     0.004587
 15 H s       :     0.843396  s :     0.843396
      pz      :     0.010584  p :     0.021713
      px      :     0.004768
      py      :     0.006361
 16 C s       :     3.304452  s :     3.304452
      pz      :     0.971059  p :     3.022534
      px      :     1.066517
      py      :     0.984959
      dz2     :     0.012481  d :     0.044733
      dxz     :     0.006669
      dyz     :     0.006426
      dx2y2   :     0.007388
      dxy     :     0.011768
      f0      :     0.000460  f :     0.003760
      f+1     :     0.000291
      f-1     :     0.001148
      f+2     :     0.000333
      f-2     :     0.000598
      f+3     :     0.000617
      f-3     :     0.000312
 17 H s       :     0.847743  s :     0.847743
      pz      :     0.004350  p :     0.021444
      px      :     0.012070
      py      :     0.005024
 18 H s       :     0.835878  s :     0.835878
      pz      :     0.004366  p :     0.021543
      px      :     0.006970
      py      :     0.010207
 19 H s       :     0.843472  s :     0.843472
      pz      :     0.011235  p :     0.021711
      px      :     0.005114
      py      :     0.005362
 20 H s       :     0.594957  s :     0.594957
      pz      :     0.009108  p :     0.058251
      px      :     0.014557
      py      :     0.034586
 21 O s       :     3.792284  s :     3.792284
      pz      :     1.459042  p :     4.939306
      px      :     1.928747
      py      :     1.551516
      dz2     :     0.010046  d :     0.018143
      dxz     :     0.001106
      dyz     :     0.000715
      dx2y2   :     0.004542
      dxy     :     0.001734
      f0      :     0.000408  f :     0.001172
      f+1     :     0.000043
      f-1     :     0.000188
      f+2     :     0.000058
      f-2     :     0.000017
      f+3     :     0.000195
      f-3     :     0.000264
 22 H s       :     0.622920  s :     0.622920
      pz      :     0.019162  p :     0.046564
      px      :     0.015577
      py      :     0.011824


                     *******************************
                     * LOEWDIN POPULATION ANALYSIS *
                     *******************************

----------------------
LOEWDIN ATOMIC CHARGES
----------------------
   0 C :   -0.280351
   1 H :    0.154696
   2 N :   -0.032357
   3 O :   -0.052155
   4 O :   -0.055317
   5 C :   -0.682387
   6 O :   -0.125379
   7 O :   -0.116841
   8 C :   -0.301285
   9 H :    0.119214
  10 H :    0.126950
  11 H :    0.116987
  12 C :   -0.273120
  13 H :    0.129320
  14 H :    0.127332
  15 H :    0.136357
  16 C :   -0.271152
  17 H :    0.127134
  18 H :    0.128629
  19 H :    0.137687
  20 H :    0.126770
  21 O :   -0.392481
  22 H :    0.151750

-------------------------------
LOEWDIN REDUCED ORBITAL CHARGES
-------------------------------
  0 C s       :     2.767630  s :     2.767630
      pz      :     0.867162  p :     2.915098
      px      :     1.040090
      py      :     1.007846
      dz2     :     0.136640  d :     0.536344
      dxz     :     0.062126
      dyz     :     0.137665
      dx2y2   :     0.111689
      dxy     :     0.088224
      f0      :     0.010278  f :     0.061279
      f+1     :     0.008442
      f-1     :     0.012629
      f+2     :     0.006758
      f-2     :     0.010558
      f+3     :     0.005186
      f-3     :     0.007429
  1 H s       :     0.781441  s :     0.781441
      pz      :     0.009580  p :     0.063862
      px      :     0.040276
      py      :     0.014007
  2 N s       :     2.953059  s :     2.953059
      pz      :     1.142531  p :     3.272725
      px      :     1.101341
      py      :     1.028853
      dz2     :     0.149708  d :     0.734769
      dxz     :     0.212893
      dyz     :     0.075076
      dx2y2   :     0.145366
      dxy     :     0.151726
      f0      :     0.012745  f :     0.071805
      f+1     :     0.015593
      f-1     :     0.003650
      f+2     :     0.010314
      f-2     :     0.012612
      f+3     :     0.010415
      f-3     :     0.006476
  3 O s       :     3.503393  s :     3.503393
      pz      :     1.500615  p :     4.438592
      px      :     1.495520
      py      :     1.442457
      dz2     :     0.019682  d :     0.099149
      dxz     :     0.039568
      dyz     :     0.010646
      dx2y2   :     0.016466
      dxy     :     0.012787
      f0      :     0.001265  f :     0.011020
      f+1     :     0.003345
      f-1     :     0.000290
      f+2     :     0.002833
      f-2     :     0.001665
      f+3     :     0.000867
      f-3     :     0.000755
  4 O s       :     3.499216  s :     3.499216
      pz      :     1.693341  p :     4.446059
      px      :     1.347020
      py      :     1.405697
      dz2     :     0.013010  d :     0.099042
      dxz     :     0.022912
      dyz     :     0.003301
      dx2y2   :     0.031181
      dxy     :     0.028637
      f0      :     0.001139  f :     0.011002
      f+1     :     0.001880
      f-1     :     0.000357
      f+2     :     0.001298
      f-2     :     0.000826
      f+3     :     0.002567
      f-3     :     0.002936
  5 C s       :     2.782651  s :     2.782651
      pz      :     0.966520  p :     2.732076
      px      :     0.759787
      py      :     1.005770
      dz2     :     0.310478  d :     1.007988
      dxz     :     0.199922
      dyz     :     0.274958
      dx2y2   :     0.123961
      dxy     :     0.098670
      f0      :     0.041458  f :     0.159672
      f+1     :     0.019582
      f-1     :     0.027612
      f+2     :     0.032124
      f-2     :     0.023604
      f+3     :     0.008494
      f-3     :     0.006798
  6 O s       :     3.429586  s :     3.429586
      pz      :     1.522012  p :     4.630854
      px      :     1.457895
      py      :     1.650947
      dz2     :     0.020377  d :     0.059675
      dxz     :     0.012603
      dyz     :     0.019209
      dx2y2   :     0.004043
      dxy     :     0.003443
      f0      :     0.001375  f :     0.005264
      f+1     :     0.000996
      f-1     :     0.001462
      f+2     :     0.000656
      f-2     :     0.000629
      f+3     :     0.000081
      f-3     :     0.000065
  7 O s       :     3.426724  s :     3.426724
      pz      :     1.550666  p :     4.625123
      px      :     1.496336
      py      :     1.578122
      dz2     :     0.018253  d :     0.059934
      dxz     :     0.011031
      dyz     :     0.018954
      dx2y2   :     0.007156
      dxy     :     0.004540
      f0      :     0.001094  f :     0.005060
      f+1     :     0.000735
      f-1     :     0.001395
      f+2     :     0.000810
      f-2     :     0.000717
      f+3     :     0.000150
      f-3     :     0.000159
  8 C s       :     2.846407  s :     2.846407
      pz      :     1.076565  p :     3.204146
      px      :     1.074961
      py      :     1.052621
      dz2     :     0.041068  d :     0.227143
      dxz     :     0.023435
      dyz     :     0.059915
      dx2y2   :     0.053998
      dxy     :     0.048728
      f0      :     0.002933  f :     0.023588
      f+1     :     0.001847
      f-1     :     0.003809
      f+2     :     0.003355
      f-2     :     0.003109
      f+3     :     0.003983
      f-3     :     0.004551
  9 H s       :     0.819453  s :     0.819453
      pz      :     0.032313  p :     0.061333
      px      :     0.014552
      py      :     0.014469
 10 H s       :     0.811098  s :     0.811098
      pz      :     0.014421  p :     0.061953
      px      :     0.032323
      py      :     0.015209
 11 H s       :     0.821869  s :     0.821869
      pz      :     0.023051  p :     0.061144
      px      :     0.021643
      py      :     0.016450
 12 C s       :     2.831181  s :     2.831181
      pz      :     1.072106  p :     3.164570
      px      :     1.062856
      py      :     1.029607
      dz2     :     0.039097  d :     0.251921
      dxz     :     0.015255
      dyz     :     0.074955
      dx2y2   :     0.076878
      dxy     :     0.045735
      f0      :     0.001924  f :     0.025449
      f+1     :     0.003274
      f-1     :     0.003973
      f+2     :     0.001859
      f-2     :     0.004101
      f+3     :     0.004151
      f-3     :     0.006167
 13 H s       :     0.809154  s :     0.809154
      pz      :     0.026166  p :     0.061526
      px      :     0.013290
      py      :     0.022070
 14 H s       :     0.810384  s :     0.810384
      pz      :     0.013504  p :     0.062284
      px      :     0.034664
      py      :     0.014116
 15 H s       :     0.801980  s :     0.801980
      pz      :     0.029884  p :     0.061664
      px      :     0.014788
      py      :     0.016992
 16 C s       :     2.830249  s :     2.830249
      pz      :     1.038671  p :     3.163464
      px      :     1.078662
      py      :     1.046130
      dz2     :     0.066597  d :     0.251920
      dxz     :     0.030401
      dyz     :     0.053396
      dx2y2   :     0.042751
      dxy     :     0.058774
      f0      :     0.002745  f :     0.025520
      f+1     :     0.003914
      f-1     :     0.005069
      f+2     :     0.003587
      f-2     :     0.004833
      f+3     :     0.003368
      f-3     :     0.002005
 17 H s       :     0.810702  s :     0.810702
      pz      :     0.013045  p :     0.062164
      px      :     0.034798
      py      :     0.014322
 18 H s       :     0.809473  s :     0.809473
      pz      :     0.013562  p :     0.061898
      px      :     0.020799
      py      :     0.027537
 19 H s       :     0.800781  s :     0.800781
      pz      :     0.029505  p :     0.061532
      px      :     0.015424
      py      :     0.016603
 20 H s       :     0.673440  s :     0.673440
      pz      :     0.026553  p :     0.199790
      px      :     0.045474
      py      :     0.127763
 21 O s       :     3.469291  s :     3.469291
      pz      :     1.491439  p :     4.893983
      px      :     1.882870
      py      :     1.519674
      dz2     :     0.016963  d :     0.027084
      dxz     :     0.000355
      dyz     :     0.000913
      dx2y2   :     0.006874
      dxy     :     0.001979
      f0      :     0.000962  f :     0.002123
      f+1     :     0.000019
      f-1     :     0.000497
      f+2     :     0.000028
      f-2     :     0.000003
      f+3     :     0.000241
      f-3     :     0.000373
 22 H s       :     0.685759  s :     0.685759
      pz      :     0.083010  p :     0.162491
      px      :     0.045356
      py      :     0.034124


                      *****************************
                      * MAYER POPULATION ANALYSIS *
                      *****************************

  NA   - Mulliken gross atomic population
  ZA   - Total nuclear charge
  QA   - Mulliken gross atomic charge
  VA   - Mayer's total valence
  BVA  - Mayer's bonded valence
  FA   - Mayer's free valence

  ATOM       NA         ZA         QA         VA         BVA        FA
  0 C      5.9222     6.0000     0.0778     3.6477     3.6477    -0.0000
  1 H      0.9076     1.0000     0.0924     1.0381     1.0381     0.0000
  2 N      6.5625     7.0000     0.4375     4.0693     4.0693    -0.0000
  3 O      8.3514     8.0000    -0.3514     1.8972     1.8972    -0.0000
  4 O      8.3600     8.0000    -0.3600     1.8928     1.8928    -0.0000
  5 C      5.6715     6.0000     0.3285     4.3610     4.3610     0.0000
  6 O      8.5761     8.0000    -0.5761     1.8441     1.8441     0.0000
  7 O      8.6036     8.0000    -0.6036     1.7789     1.7789    -0.0000
  8 C      6.3689     6.0000    -0.3689     3.7697     3.7697    -0.0000
  9 H      0.8935     1.0000     0.1065     0.9852     0.9852    -0.0000
 10 H      0.8760     1.0000     0.1240     0.9769     0.9769    -0.0000
 11 H      0.8941     1.0000     0.1059     0.9888     0.9888    -0.0000
 12 C      6.3761     6.0000    -0.3761     3.8755     3.8755     0.0000
 13 H      0.8627     1.0000     0.1373     0.9698     0.9698    -0.0000
 14 H      0.8679     1.0000     0.1321     0.9812     0.9812     0.0000
 15 H      0.8651     1.0000     0.1349     0.9746     0.9746     0.0000
 16 C      6.3755     6.0000    -0.3755     3.8702     3.8702    -0.0000
 17 H      0.8692     1.0000     0.1308     0.9810     0.9810    -0.0000
 18 H      0.8574     1.0000     0.1426     0.9681     0.9681     0.0000
 19 H      0.8652     1.0000     0.1348     0.9739     0.9739    -0.0000
 20 H      0.6532     1.0000     0.3468     0.9770     0.9770    -0.0000
 21 O      8.7509     8.0000    -0.7509     1.7052     1.7052    -0.0000
 22 H      0.6695     1.0000     0.3305     0.9139     0.9139     0.0000

  Mayer bond orders larger than 0.100000
B(  0-C ,  1-H ) :   0.9336 B(  0-C ,  2-N ) :   0.8296 B(  0-C , 12-C ) :   0.9417 
B(  0-C , 16-C ) :   0.9489 B(  2-N ,  3-O ) :   1.6105 B(  2-N ,  4-O ) :   1.5988 
B(  3-O ,  4-O ) :   0.2077 B(  5-C ,  6-O ) :   1.8106 B(  5-C ,  7-O ) :   1.5740 
B(  5-C ,  8-C ) :   0.9479 B(  7-O , 20-H ) :   0.1753 B(  8-C ,  9-H ) :   0.9642 
B(  8-C , 10-H ) :   0.9503 B(  8-C , 11-H ) :   0.9741 B( 12-C , 13-H ) :   0.9707 
B( 12-C , 14-H ) :   0.9638 B( 12-C , 15-H ) :   0.9646 B( 16-C , 17-H ) :   0.9601 
B( 16-C , 18-H ) :   0.9707 B( 16-C , 19-H ) :   0.9627 B( 20-H , 21-O ) :   0.7786 
B( 21-O , 22-H ) :   0.8956 

-------
TIMINGS
-------

Total SCF time: 0 days 0 hours 0 min 27 sec 

Total time                  ....      27.788 sec
Sum of individual times     ....      25.851 sec  ( 93.0%)

[...]
     29      -0.023974  -0.529880  -0.611968   0.005679   0.000917  -0.005724
     30      -0.016246   0.618532  -0.030208   0.005448  -0.018598   0.021933
     31      -0.004172   0.203859  -0.013038   0.001717  -0.005674   0.006604
     32       0.003183  -0.129518   0.027073  -0.001376   0.003970  -0.004455
     33       0.015721   0.280579  -0.454628   0.006937  -0.008630   0.004560
     34      -0.010551  -0.202901   0.311580  -0.004825   0.006151  -0.003255
     35       0.016970   0.327151  -0.479160   0.007486  -0.009706   0.005441
     36       0.008411  -0.000012   0.000121   0.000713  -0.011788  -0.033139
     37      -0.018279   0.000005  -0.000073  -0.010855  -0.009574  -0.019891
     38      -0.000625   0.000134  -0.000947  -0.089819  -0.020071   0.002199
     39       0.037612  -0.000136   0.000975   0.093901   0.024813   0.012057
     40       0.172408  -0.000694   0.004506   0.432162   0.125644   0.080636
     41       0.203679  -0.000763   0.005128   0.493479   0.147216   0.099866
     42      -0.195047   0.000052  -0.000484   0.088566   0.147171   0.341179
     43      -0.052747   0.000000  -0.000106   0.021277   0.038366   0.089144
     44      -0.012348   0.000030  -0.000217  -0.012083   0.004699   0.020672
     45       0.057914   0.000296  -0.002046  -0.192012  -0.031150   0.040456
     46       0.093253   0.000472  -0.003433  -0.320671  -0.051620   0.073516
     47      -0.183908  -0.000888   0.006348   0.592913   0.089364  -0.147462
     48       0.003405  -0.001709   0.000102  -0.007499   0.026110   0.079052
     49       0.027566   0.001574  -0.000952  -0.014719   0.062530  -0.028146
     50       0.035059  -0.002279   0.000886   0.013379  -0.058033   0.014062
     51      -0.497116   0.018299   0.000662   0.101712  -0.353259  -0.609242
     52      -0.136792   0.005673  -0.000004   0.026767  -0.089203  -0.180347
     53      -0.036611   0.001062   0.000225   0.011043  -0.039641  -0.045757
     54       0.292301   0.009190  -0.005166  -0.062668   0.265170  -0.356120
     55      -0.412182  -0.013617   0.007229   0.083783  -0.358873   0.522214
     56       0.100524   0.002626  -0.001553  -0.017060   0.075230  -0.120278
     57       0.163750  -0.008238   0.003253   0.050976  -0.225189   0.015873
     58       0.226493  -0.010485   0.004221   0.069153  -0.300782  -0.004152
     59      -0.475152   0.022802  -0.009246  -0.150206   0.661569  -0.000376
     60      -0.000709  -0.005598   0.027568  -0.000162  -0.000549  -0.004106
     61       0.002851   0.025337  -0.123605   0.000636   0.002336   0.018395
     62       0.000248   0.002318  -0.011801   0.000059   0.000203   0.001769
     63       0.000044   0.000377  -0.001835   0.000014   0.000032   0.000259
     64      -0.000187  -0.001642   0.007951  -0.000037  -0.000154  -0.001181
     65      -0.000010  -0.000093   0.000392   0.000005  -0.000012  -0.000054
     66       0.000025   0.000150  -0.000692   0.000061   0.000025   0.000104
     67      -0.000084  -0.000998   0.004911  -0.000024  -0.000078  -0.000768
     68      -0.000018  -0.001151   0.006185  -0.000048  -0.000058  -0.001023
                 66         67         68    
      0       0.002865   0.000235   0.000011
      1       0.001015   0.000017   0.000006
      2      -0.000078  -0.000062   0.000005
      3      -0.008875  -0.003662   0.000086
      4      -0.001596   0.000040   0.000086
      5      -0.001284   0.000789  -0.000037
      6       0.000764  -0.000016   0.000000
      7      -0.000073  -0.000054  -0.000001
      8       0.000147   0.000079  -0.000006
      9      -0.000208   0.000045  -0.000005
     10       0.000016   0.000004  -0.000004
     11      -0.000105  -0.000035   0.000005
     12      -0.000509   0.000051  -0.000006
     13      -0.000007   0.000033  -0.000007
     14      -0.000087  -0.000043   0.000005
     15       0.000012   0.003279  -0.000114
     16      -0.000004  -0.002636   0.000199
     17       0.000061   0.010094  -0.000351
     18      -0.000001  -0.001121   0.000057
     19      -0.000002  -0.000669  -0.000044
     20      -0.000013  -0.003138   0.000136
     21       0.000034  -0.002051   0.000095
     22       0.000017   0.004989  -0.000374
     23      -0.000018  -0.003202   0.000003
     24      -0.000710   0.004882  -0.000015
     25      -0.000031  -0.001659  -0.000025
     26       0.000083   0.009225   0.000020
     27       0.000174   0.013351   0.000018
     28      -0.000534  -0.018625   0.000055
     29      -0.001462  -0.052390   0.000050
     30       0.007165  -0.004550   0.000064
     31       0.002146  -0.000057  -0.000043
     32      -0.001453   0.002483   0.000023
     33       0.001745  -0.069693   0.000184
     34      -0.001245   0.054114  -0.000339
     35       0.002052  -0.075108   0.000221
     36       0.070957   0.000276  -0.000006
     37       0.043219   0.000411  -0.000012
     38      -0.007752  -0.000015   0.000011
     39      -0.024045  -0.000306   0.000002
     40      -0.160018  -0.002636   0.000044
     41      -0.198868  -0.003171  -0.000069
     42      -0.737583  -0.001026   0.000007
     43      -0.188335  -0.000700   0.000053
     44      -0.044919   0.000013  -0.000028
     45      -0.094137  -0.001054   0.000046
     46      -0.169945  -0.001659   0.000019
     47       0.340064   0.003583   0.000054
     48       0.040547  -0.001661  -0.000012
     49      -0.002865   0.000243   0.000009
     50      -0.003111   0.000003   0.000005
     51      -0.339679   0.013668  -0.000057
     52      -0.099727   0.004031  -0.000026
     53      -0.029260   0.001102  -0.000155
     54      -0.120818   0.005614   0.000126
     55       0.180380  -0.008552  -0.000113
     56      -0.042496   0.002026   0.000014
     57      -0.029798   0.000825   0.000050
     58      -0.051166   0.001484   0.000022
     59       0.109206  -0.003491  -0.000009
     60      -0.001035  -0.214275   0.010759
     61       0.004522   0.959352  -0.039716
     62       0.000444   0.091163   0.026679
     63       0.000086   0.014158  -0.000341
     64      -0.000291  -0.061324   0.017150
     65      -0.000023  -0.002898   0.059553
     66       0.000035   0.005505  -0.006548
     67      -0.000183  -0.038712  -0.227609
     68      -0.000275  -0.050335  -0.970518


-----------
IR SPECTRUM
-----------

 Mode   freq       eps      Int      T**2         TX        TY        TZ
       cm**-1   L/(mol*cm) km/mol    a.u.
----------------------------------------------------------------------------
  8:     15.29   0.001548    7.82  0.031595  (-0.152867 -0.045162 -0.078655)
  9:     34.91   0.000384    1.94  0.003433  ( 0.002261 -0.055117  0.019759)
 10:     45.12   0.000041    0.21  0.000282  ( 0.003604  0.007134  0.014769)
 11:     54.37   0.000198    1.00  0.001135  (-0.022854 -0.006104  0.023992)
 12:     69.24   0.001326    6.70  0.005975  (-0.033238  0.047219 -0.051391)
 13:     79.92   0.004071   20.57  0.015894  (-0.124852  0.016138  0.006731)
 14:     87.92   0.000503    2.54  0.001785  ( 0.041451  0.007306  0.003708)
 15:    100.72   0.000066    0.33  0.000204  (-0.003953 -0.010598  0.008713)
 16:    145.27   0.037472  189.37  0.080499  (-0.275855 -0.062467  0.022372)
 17:    215.81   0.000027    0.13  0.000038  (-0.000833  0.002431  0.005639)
 18:    223.12   0.005829   29.46  0.008152  ( 0.024362 -0.085482 -0.015862)
 19:    245.85   0.000105    0.53  0.000133  (-0.000066 -0.010835  0.003905)
 20:    263.71   0.001723    8.71  0.002039  (-0.015859  0.040461  0.012269)
 21:    300.08   0.000831    4.20  0.000864  ( 0.005673 -0.007868  0.027746)
 22:    339.54   0.000156    0.79  0.000143  ( 0.003598 -0.001751  0.011273)
 23:    467.68   0.001097    5.54  0.000732  ( 0.012682 -0.015302  0.018355)
 24:    498.59   0.019384   97.96  0.012132  (-0.014879  0.087995  0.064558)
 25:    515.40   0.001994   10.07  0.001207  ( 0.002870  0.014097 -0.031624)
 26:    612.44   0.003170   16.02  0.001615  (-0.015497 -0.036198  0.008048)
 27:    624.94   0.001632    8.25  0.000815  ( 0.015628  0.005897 -0.023153)
 28:    656.36   0.013531   68.38  0.006433  (-0.023911  0.075580  0.012213)
 29:    750.45   0.000499    2.52  0.000207  ( 0.000166 -0.012679 -0.006826)
 30:    827.47   0.034553  174.62  0.013031  ( 0.110875  0.022581 -0.015094)
 31:    837.04   0.000832    4.20  0.000310  ( 0.013845 -0.009601 -0.005123)
 32:    840.70   0.001206    6.09  0.000448  (-0.002927 -0.014708  0.014921)
 33:    886.79   0.005216   26.36  0.001835  (-0.002825  0.015176 -0.039964)
 34:    912.54   0.007159   36.18  0.002448  ( 0.009632  0.048204  0.005625)
 35:    961.59   0.000226    1.14  0.000073  ( 0.004777 -0.006935 -0.001553)
 36:    984.01   0.004280   21.63  0.001357  (-0.035469 -0.009810 -0.001696)
 37:   1023.48   0.004925   24.89  0.001502  (-0.014362  0.011274 -0.034178)
 38:   1056.65   0.002469   12.48  0.000729  (-0.025413 -0.005024  0.007623)
 39:   1071.94   0.000130    0.65  0.000038  (-0.000759  0.006087 -0.000291)
 40:   1169.35   0.003733   18.87  0.000996  ( 0.017295  0.013198 -0.022869)
 41:   1191.86   0.004898   24.75  0.001282  (-0.019251  0.007182 -0.029329)
 42:   1232.91   0.001296    6.55  0.000328  (-0.003529  0.016374  0.006886)
 43:   1355.84   0.013922   70.36  0.003204  ( 0.013303 -0.051510  0.019343)
 44:   1388.03   0.007808   39.46  0.001755  ( 0.021916  0.011650 -0.033754)
 45:   1395.12   0.000171    0.86  0.000038  (-0.005298  0.001597  0.002743)
 46:   1397.81   0.090072  455.18  0.020109  ( 0.007803 -0.138157  0.030991)
 47:   1435.41   0.018251   92.23  0.003968  ( 0.002474 -0.023982  0.058194)
 48:   1450.91   0.017058   86.21  0.003669  ( 0.019698  0.005819  0.056983)
 49:   1468.60   0.004073   20.58  0.000865  (-0.019319  0.022184 -0.000241)
 50:   1469.01   0.000481    2.43  0.000102  (-0.000984 -0.008938 -0.004610)
 51:   1473.45   0.000291    1.47  0.000062  ( 0.006205  0.003731  0.003021)
 52:   1477.69   0.004737   23.94  0.001000  ( 0.029785  0.003433  0.010073)
 53:   1489.17   0.005015   25.35  0.001051  ( 0.010865  0.013403 -0.027446)
 54:   1548.10   0.122171  617.40  0.024627  ( 0.149993  0.021902  0.040612)
 55:   1572.40   0.172847  873.50  0.034304  ( 0.076516 -0.001901  0.168658)
 56:   1652.26   0.038475  194.44  0.007267  ( 0.020700 -0.038893  0.072977)
 57:   2324.01   0.000924    4.67  0.000124  ( 0.011070  0.000066 -0.001224)
 58:   3030.68   0.004048   20.45  0.000417  (-0.003170 -0.020156 -0.000688)
 59:   3046.56   0.004045   20.44  0.000414  ( 0.006800 -0.018557 -0.004873)
 60:   3050.81   0.001654    8.36  0.000169  ( 0.002931  0.004907  0.011686)
 61:   3090.51   0.007882   39.83  0.000796  (-0.022549  0.015681  0.006444)
 62:   3114.16   0.016401   82.88  0.001644  ( 0.014225 -0.026965  0.026723)
 63:   3115.71   0.003662   18.51  0.000367  (-0.001442 -0.009307 -0.016676)
 64:   3120.10   0.002863   14.47  0.000286  ( 0.002223  0.011829 -0.011894)
 65:   3127.45   0.001325    6.69  0.000132  ( 0.007702 -0.007833  0.003389)
 66:   3129.70   0.006432   32.50  0.000641  ( 0.024134  0.007441  0.001876)
 67:   3137.07   0.334883  1692.36  0.033313  (-0.040640  0.177841  0.005820)
 68:   3806.28   0.010564   53.39  0.000866  ( 0.001382 -0.018023 -0.023224)

* The epsilon (eps) is given for a Dirac delta lineshape.
** The dipole moment derivative (T) already includes vibrational overlap.

The first frequency considered to be a vibration is 8
The total number of vibrations considered is 61


--------------------------
THERMOCHEMISTRY AT 298.15K
--------------------------

Temperature         ... 298.15 K
Pressure            ... 1.00 atm
Total Mass          ... 167.15 AMU

Throughout the following assumptions are being made:
  (1) The electronic state is orbitally nondegenerate
  (2) There are no thermally accessible electronically excited states
  (3) Hindered rotations indicated by low frequency modes are not
      treated as such but are treated as vibrations and this may
      cause some error
  (4) All equations used are the standard statistical mechanics
      equations for an ideal gas
  (5) All vibrations are strictly harmonic

freq.      15.29  E(vib)   ...       0.57 
freq.      34.91  E(vib)   ...       0.54 
freq.      45.12  E(vib)   ...       0.53 
freq.      54.37  E(vib)   ...       0.52 
freq.      69.24  E(vib)   ...       0.50 
freq.      79.92  E(vib)   ...       0.49 
freq.      87.92  E(vib)   ...       0.48 
freq.     100.72  E(vib)   ...       0.46 
freq.     145.27  E(vib)   ...       0.41 
freq.     215.81  E(vib)   ...       0.34 
freq.     223.12  E(vib)   ...       0.33 
freq.     245.85  E(vib)   ...       0.31 
freq.     263.71  E(vib)   ...       0.29 
freq.     300.08  E(vib)   ...       0.26 
freq.     339.54  E(vib)   ...       0.23 
freq.     467.68  E(vib)   ...       0.16 
freq.     498.59  E(vib)   ...       0.14 
freq.     515.40  E(vib)   ...       0.13 
freq.     612.44  E(vib)   ...       0.10 
freq.     624.94  E(vib)   ...       0.09 
freq.     656.36  E(vib)   ...       0.08 
freq.     750.45  E(vib)   ...       0.06 
freq.     827.47  E(vib)   ...       0.04 
freq.     837.04  E(vib)   ...       0.04 
freq.     840.70  E(vib)   ...       0.04 
freq.     886.79  E(vib)   ...       0.04 
freq.     912.54  E(vib)   ...       0.03 
freq.     961.59  E(vib)   ...       0.03 
freq.     984.01  E(vib)   ...       0.02 
freq.    1023.48  E(vib)   ...       0.02 
freq.    1056.65  E(vib)   ...       0.02 
freq.    1071.94  E(vib)   ...       0.02 
freq.    1169.35  E(vib)   ...       0.01 
freq.    1191.86  E(vib)   ...       0.01 
freq.    1232.91  E(vib)   ...       0.01 
freq.    1355.84  E(vib)   ...       0.01 
freq.    1388.03  E(vib)   ...       0.00 
freq.    1395.12  E(vib)   ...       0.00 
freq.    1397.81  E(vib)   ...       0.00 
freq.    1435.41  E(vib)   ...       0.00 
freq.    1450.91  E(vib)   ...       0.00 
freq.    1468.60  E(vib)   ...       0.00 
freq.    1469.01  E(vib)   ...       0.00 
freq.    1473.45  E(vib)   ...       0.00 
freq.    1477.69  E(vib)   ...       0.00 
freq.    1489.17  E(vib)   ...       0.00 
freq.    1548.10  E(vib)   ...       0.00 
freq.    1572.40  E(vib)   ...       0.00 
freq.    1652.26  E(vib)   ...       0.00 
freq.    2324.01  E(vib)   ...       0.00 
freq.    3030.68  E(vib)   ...       0.00 
freq.    3046.56  E(vib)   ...       0.00 
freq.    3050.81  E(vib)   ...       0.00 
freq.    3090.51  E(vib)   ...       0.00 
freq.    3114.16  E(vib)   ...       0.00 
freq.    3115.71  E(vib)   ...       0.00 
freq.    3120.10  E(vib)   ...       0.00 
freq.    3127.45  E(vib)   ...       0.00 
freq.    3129.70  E(vib)   ...       0.00 
freq.    3137.07  E(vib)   ...       0.00 
freq.    3806.28  E(vib)   ...       0.00 

------------
INNER ENERGY
------------

The inner energy is: U= E(el) + E(ZPE) + E(vib) + E(rot) + E(trans)
    E(el)   - is the total energy from the electronic structure calculation
              = E(kin-el) + E(nuc-el) + E(el-el) + E(nuc-nuc)
    E(ZPE)  - the the zero temperature vibrational energy from the frequency calculation
    E(vib)  - the the finite temperature correction to E(ZPE) due to population
              of excited vibrational states
    E(rot)  - is the rotational thermal energy
    E(trans)- is the translational thermal energy

Summary of contributions to the inner energy U:
Electronic energy                ...   -628.70701676 Eh
Zero point energy                ...      0.17544144 Eh     110.09 kcal/mol
Thermal vibrational correction   ...      0.01180786 Eh       7.41 kcal/mol
Thermal rotational correction    ...      0.00141627 Eh       0.89 kcal/mol
Thermal translational correction ...      0.00141627 Eh       0.89 kcal/mol
-----------------------------------------------------------------------
Total thermal energy                   -628.51693492 Eh


Summary of corrections to the electronic energy:
(perhaps to be used in another calculation)
Total thermal correction                  0.01464040 Eh       9.19 kcal/mol
Non-thermal (ZPE) correction              0.17544144 Eh     110.09 kcal/mol
-----------------------------------------------------------------------
Total correction                          0.19008184 Eh     119.28 kcal/mol


--------
ENTHALPY
--------

The enthalpy is H = U + kB*T
                kB is Boltzmann's constant
Total free energy                 ...   -628.51693492 Eh 
Thermal Enthalpy correction       ...      0.00094421 Eh       0.59 kcal/mol
-----------------------------------------------------------------------
Total Enthalpy                    ...   -628.51599071 Eh


Note: Only C1 symmetry has been detected, increase convergence thresholds 
      if your molecule has a higher symmetry. Symmetry factor of 1.0 is   
      used for the rotational entropy correction. 
 

Note: Rotational entropy computed according to Herzberg 
Infrared and Raman Spectra, Chapter V,1, Van Nostrand Reinhold, 1945 
Point Group:  C1, Symmetry Number:   1  
Rotational constants in cm-1:     0.038050     0.020470     0.017202 

Vibrational entropy computed according to the QRRHO of S. Grimme
Chem.Eur.J. 2012 18 9955


-------
ENTROPY
-------

The entropy contributions are T*S = T*(S(el)+S(vib)+S(rot)+S(trans))
     S(el)   - electronic entropy
     S(vib)  - vibrational entropy
     S(rot)  - rotational entropy
     S(trans)- translational entropy
The entropies will be listed as multiplied by the temperature to get
units of energy

Electronic entropy                ...      0.00000000 Eh      0.00 kcal/mol
Vibrational entropy               ...      0.02221522 Eh     13.94 kcal/mol
Rotational entropy                ...      0.01480784 Eh      9.29 kcal/mol
Translational entropy             ...      0.01959877 Eh     12.30 kcal/mol
-----------------------------------------------------------------------
Final entropy term                ...      0.05662182 Eh     35.53 kcal/mol

In case the symmetry of your molecule has not been determined correctly
or in case you have a reason to use a different symmetry number we print 
out the resulting rotational entropy values for sn=1,12 :
 --------------------------------------------------------
|  sn= 1 | S(rot)=       0.01480784 Eh      9.29 kcal/mol|
|  sn= 2 | S(rot)=       0.01415338 Eh      8.88 kcal/mol|
|  sn= 3 | S(rot)=       0.01377055 Eh      8.64 kcal/mol|
|  sn= 4 | S(rot)=       0.01349892 Eh      8.47 kcal/mol|
|  sn= 5 | S(rot)=       0.01328824 Eh      8.34 kcal/mol|
|  sn= 6 | S(rot)=       0.01311609 Eh      8.23 kcal/mol|
|  sn= 7 | S(rot)=       0.01297055 Eh      8.14 kcal/mol|
|  sn= 8 | S(rot)=       0.01284447 Eh      8.06 kcal/mol|
|  sn= 9 | S(rot)=       0.01273326 Eh      7.99 kcal/mol|
|  sn=10 | S(rot)=       0.01263378 Eh      7.93 kcal/mol|
|  sn=11 | S(rot)=       0.01254379 Eh      7.87 kcal/mol|
|  sn=12 | S(rot)=       0.01246164 Eh      7.82 kcal/mol|
 --------------------------------------------------------


-------------------
GIBBS FREE ENERGY
-------------------

The Gibbs free energy is G = H - T*S

Total enthalpy                    ...   -628.51599071 Eh 
Total entropy correction          ...     -0.05662182 Eh    -35.53 kcal/mol
-----------------------------------------------------------------------
Final Gibbs free energy         ...   -628.57261254 Eh

For completeness - the Gibbs free energy minus the electronic energy
G-E(el)                           ...      0.13440423 Eh     84.34 kcal/mol



Timings for individual modules:

Sum of individual times         ...      881.252 sec (=  14.688 min)
GTO integral calculation        ...        9.070 sec (=   0.151 min)   1.0 %
SCF iterations                  ...       63.266 sec (=   1.054 min)   7.2 %
SCF Gradient evaluation         ...       16.668 sec (=   0.278 min)   1.9 %
Numerical frequency calculation ...      792.248 sec (=  13.204 min)  89.9 %
                             ****ORCA TERMINATED NORMALLY****
TOTAL RUN TIME: 0 days 0 hours 14 minutes 0 seconds 936 msec
