 *******************************************************************************
 **                                                                           **
 **                              MOPAC v22.0.6                                **
 **                                                                           **
 *******************************************************************************
 **          Digital Object Identifier (DOI): 10.5281/zenodo.6511958          **
 **    Visit the DOI location for information on how to cite this program.    **
 *******************************************************************************

                              PM7 CALCULATION RESULTS

 *******************************************************************************
 *  CALCULATION DONE:                                Tue Mar 26 11:02:40 2024  *
 *  PM7        - The PM7 Hamiltonian to be used
 *  DOUBLET    - SPIN STATE DEFINED AS A DOUBLET
 *
 *
 *
 *                 CHARGE ON SYSTEM = 0
 *
 *
 *
 *  EPS=78.4   - USE ANDREAS KLAMT'S COSMO IMPLICIT SOLVATION MODEL
 *  SADDLE     - TRANSITION STATE TO BE OPTIMIZED
 *  T=         - A TIME OF 14.0 DAYS REQUESTED
 *  DUMP=N     - RESTART FILE WRITTEN EVERY 30.0 MINUTES REQUESTED
 *  RELSCF     - DEFAULT SCF CRITERION MULTIPLIED BY 1.0000
 *              (DEFAULT SCF CRITERION = 0.00010)
 *  ITRY=      - DO A MAXIMUM OF 15000 ITERATIONS FOR SCF
 *  AUX        - OUTPUT AUXILIARY INFORMATION
 *  BONDS      - FINAL BOND-ORDER MATRIX TO BE PRINTED
 *******************************************************************************
SADDLE PM7 BONDS AUX DUMP=30M ITRY=15000 T=14D CHARGE=0 DOUBLET eps=78.4 RELSCF=1


   ATOM   CHEMICAL          X               Y               Z
  NUMBER   SYMBOL      (ANGSTROMS)     (ANGSTROMS)     (ANGSTROMS)

     1       C         -0.84181814  *   0.79034419  *   0.96301806  *
     2       C          0.52023545  *   0.77596822  *   1.25823005  *
     3       C          1.32798470  *  -0.27837062  *   0.81924256  *
     4       C          0.77677308  *  -1.31503632  *   0.06947836  *
     5       C         -0.58899366  *  -1.28096078  *  -0.22910671  *
     6       C         -1.41003918  *  -0.23743990  *   0.21794498  *
     7       H         -1.46720337  *   1.61520382  *   1.31696409  *
     8       H          0.95440362  *   1.60034795  *   1.83814090  *
     9       H          1.40322598  *  -2.14430693  *  -0.28533778  *
    10       H         -2.48098317  *  -0.22674197  *  -0.01626003  *
    11       N         -1.16003318  *  -2.34599365  *  -1.01554189  *
    12       O         -2.34920295  *  -2.30572765  *  -1.30336528  *
    13       O         -0.44190682  *  -3.26786294  *  -1.38146586  *
    14       C          2.78399276  *  -0.28713036  *   1.19173395  *
    15       C          3.18855607  *  -1.57161835  *   1.90602226  *
    16       H          4.20266372  *  -1.50998977  *   2.33087387  *
    17       H          3.16039465  *  -2.45474798  *   1.24999586  *
    18       H          2.50738999  *  -1.78224453  *   2.74694810  *
    19       N          3.62469879  *  -0.15715390  *  -0.04684831  *
    20       O          4.51255854  *   0.68128848  *  -0.05428822  *
    21       O          3.41108260  *  -0.89092759  *  -0.99666843  *
    22       H          3.02902943  *   0.60602628  *   1.85398883  *
    23       C          1.65798600  *  -0.03597478  *   6.94292127  *
    24       C          2.60803531  *   0.23136275  *   8.03354623  *
    25       C          3.25453416  *   1.62358330  *   7.95372599  *
    26       C          3.61008178  *   1.98086970  *   6.50108382  *
    27       N          2.41834977  *   1.93844337  *   5.62151387  *
    28       C          1.83698593  *   0.57011042  *   5.60644014  *
    29       H          0.86011725  *  -0.73721267  *   7.09311087  *
    30       H          2.12774768  *   0.10236731  *   9.02814546  *
    31       H          3.40461210  *  -0.55141054  *   8.00479144  *
    32       H          4.15837169  *   1.66285797  *   8.58861016  *
    33       H          2.56368143  *   2.38252763  *   8.36731479  *
    34       H          4.05085395  *   3.00019380  *   6.44341831  *
    35       H          4.37445099  *   1.28046792  *   6.10091472  *
    36       H          1.71634328  *   2.60520275  *   5.96188633  *
    37       H          0.87601160  *   0.61329405  *   5.04088064  *
    38       H          2.52192033  *  -0.08177691  *   5.00155473  *
    39       H          2.88108672  *   2.24387647  *   3.79928044  *
    40       H          2.46378290  *   3.14599819  *   2.62797977  *
    41       O          3.06819163  *   2.43565984  *   2.85337915  *



          CARTESIAN COORDINATES 

    NO.       ATOM           X           Y           Z

     1         C         -0.8418      0.7903      0.9630
     2         C          0.5202      0.7760      1.2582
     3         C          1.3280     -0.2784      0.8192
     4         C          0.7768     -1.3150      0.0695
     5         C         -0.5890     -1.2810     -0.2291
     6         C         -1.4100     -0.2374      0.2179
     7         H         -1.4672      1.6152      1.3170
     8         H          0.9544      1.6003      1.8381
     9         H          1.4032     -2.1443     -0.2853
    10         H         -2.4810     -0.2267     -0.0163
    11         N         -1.1600     -2.3460     -1.0155
    12         O         -2.3492     -2.3057     -1.3034
    13         O         -0.4419     -3.2679     -1.3815
    14         C          2.7840     -0.2871      1.1917
    15         C          3.1886     -1.5716      1.9060
    16         H          4.2027     -1.5100      2.3309
    17         H          3.1604     -2.4547      1.2500
    18         H          2.5074     -1.7822      2.7469
    19         N          3.6247     -0.1572     -0.0468
    20         O          4.5126      0.6813     -0.0543
    21         O          3.4111     -0.8909     -0.9967
    22         H          3.0290      0.6060      1.8540
    23         C          1.6580     -0.0360      6.9429
    24         C          2.6080      0.2314      8.0335
    25         C          3.2545      1.6236      7.9537
    26         C          3.6101      1.9809      6.5011
    27         N          2.4183      1.9384      5.6215
    28         C          1.8370      0.5701      5.6064
    29         H          0.8601     -0.7372      7.0931
    30         H          2.1277      0.1024      9.0281
    31         H          3.4046     -0.5514      8.0048
    32         H          4.1584      1.6629      8.5886
    33         H          2.5637      2.3825      8.3673
    34         H          4.0509      3.0002      6.4434
    35         H          4.3745      1.2805      6.1009
    36         H          1.7163      2.6052      5.9619
    37         H          0.8760      0.6133      5.0409
    38         H          2.5219     -0.0818      5.0016
    39         H          2.8811      2.2439      3.7993
    40         H          2.4638      3.1460      2.6280
    41         O          3.0682      2.4357      2.8534

 General Reference for PM7:
 "Optimization of Parameters for Semiempirical Methods VI: More Modifications to the 
 NDDO Approximations and Re-optimization of Parameters", J. J. P. Stewart, J. Mol. Mod., 1:32, 19 (2013)
 https://link.springer.com/article/10.1007/s00894-012-1667-x

           Empirical Formula: C13 H20 N3 O5  =    41 atoms



      MOLECULAR POINT GROUP   :   C1  


 DOUBLET STATE CALCULATION


          UHF CALCULATION, NO. OF ALPHA ELECTRONS =   59
                           NO. OF BETA  ELECTRONS =   58


  CARTESIAN GEOMETRY OF FIRST SYSTEM


   1    C          0.87162      -0.17523       0.77490
   2    C          0.84300      -0.97984      -0.36224
   3    C         -0.33907      -1.13926      -1.09610
   4    C         -1.49844      -0.47595      -0.68753
   5    C         -1.45562       0.32008       0.46149
   6    C         -0.27942       0.48013       1.20109
   7    H          1.80236      -0.05843       1.33492
   8    H          1.75426      -1.48391      -0.68448
   9    H         -2.42455      -0.58848      -1.26155
  10    H         -0.25832       1.10744       2.09740
  11    N         -2.66035       0.98013       0.90141
  12    O         -2.63980       1.63763       1.93495
  13    O         -3.68276       0.86682       0.23729
  14    C         -0.37975      -2.02324      -2.25472
  15    C         -0.23555      -3.48864      -2.03560
  16    H          0.44843      -3.95706      -2.75936
  17    H         -1.20398      -4.00430      -2.14168
  18    H          0.13539      -3.71725      -1.02764
  19    N         -0.63148      -1.55001      -3.47476
  20    O         -0.72235      -2.31672      -4.47348
  21    O         -0.73992      -0.31220      -3.69141
  22    H          1.75348      -1.90678      -2.96974
  23    C          3.50969      -5.43535       0.55297
  24    C          4.50672      -6.33762      -0.03623
  25    C          5.43936      -5.63701      -1.03276
  26    C          4.64841      -4.71954      -1.96055
  27    N          3.94493      -3.66483      -1.13595
  28    C          2.93791      -4.30748      -0.20420
  29    H          3.11793      -5.64392       1.53428
  30    H          5.11222      -6.83852       0.75220
  31    H          3.97450      -7.18118      -0.54550
  32    H          5.99949      -6.38663      -1.62958
  33    H          6.22142      -5.06698      -0.48961
  34    H          5.32072      -4.20972      -2.69116
  35    H          3.89698      -5.29082      -2.55306
  36    H          4.64999      -3.13503      -0.57774
  37    H          2.54213      -3.51507       0.48180
  38    H          2.06406      -4.67674      -0.80986
  39    H          3.45849      -2.97234      -1.77436
  40    H          3.05521      -1.08715      -2.96688
  41    O          2.71239      -1.99235      -2.94472


  CARTESIAN GEOMETRY OF SECOND SYSTEM


   1    C          0.83761       0.45010       0.50572
   2    C          0.95014      -0.38786      -0.60230
   3    C         -0.18892      -0.97360      -1.16466
   4    C         -1.44715      -0.70974      -0.62809
   5    C         -1.54564       0.14247       0.47630
   6    C         -0.41005       0.72278       1.05647
   7    H          1.73471       0.89772       0.94346
   8    H          1.94123      -0.58390      -1.03091
   9    H         -2.34836      -1.15948      -1.06579
  10    H         -0.50025       1.38285       1.92713
  11    N         -2.84765       0.42749       1.02620
  12    O         -2.94129       1.19526       1.97506
  13    O         -3.83346      -0.10309       0.53011
  14    C         -0.02972      -1.90750      -2.33140
  15    C         -0.65897      -3.27085      -2.06854
  16    H         -0.39585      -4.00724      -2.84391
  17    H         -1.75730      -3.23280      -2.01091
  18    H         -0.30752      -3.68497      -1.10911
  19    N         -0.68675      -1.31666      -3.54671
  20    O         -0.04763      -1.28179      -4.58673
  21    O         -1.83118      -0.90379      -3.46904
  22    H          1.07239      -2.04290      -2.58315
  23    C          3.60822      -5.46671       0.58486
  24    C          4.43249      -6.55438       0.03616
  25    C          5.48439      -6.07340      -0.97616
  26    C          4.90219      -4.99055      -1.89959
  27    N          4.39275      -3.83227      -1.12854
  28    C          3.30172      -4.26116      -0.21407
  29    H          3.16067      -5.57595       1.55370
  30    H          4.93307      -7.12945       0.84563
  31    H          3.75494      -7.29501      -0.45423
  32    H          5.85748      -6.92472      -1.57414
  33    H          6.36593      -5.67356      -0.44012
  34    H          5.67400      -4.62425      -2.61147
  35    H          4.07307      -5.40333      -2.51370
  36    H          5.15715      -3.42129      -0.58080
  37    H          3.03813      -3.39229       0.43460
  38    H          2.39384      -4.46377      -0.84230
  39    H          3.54668      -2.55476      -2.25995
  40    H          3.59834      -1.04846      -2.55711
  41    O          3.13626      -1.85057      -2.80968


   "DISTANCE":     3.914172


  REACTION COORDINATE VECTOR


   1    C          0.03401      -0.62532       0.26918
   2    C         -0.10714      -0.59198       0.24006
   3    C         -0.15015      -0.16566       0.06856
   4    C         -0.05129       0.23378      -0.05944
   5    C          0.09002       0.17761      -0.01481
   6    C          0.13064      -0.24265       0.14463
   7    H          0.06764      -0.95616       0.39145
   8    H         -0.18697      -0.90001       0.34643
   9    H         -0.07619       0.57099      -0.19576
  10    H          0.24193      -0.27541       0.17027
  11    N          0.18730       0.55264      -0.12479
  12    O          0.30149       0.44237      -0.04011
  13    O          0.15070       0.96991      -0.29282
  14    C         -0.35003      -0.11575       0.07668
  15    C          0.42342      -0.21778       0.03293
  16    H          0.84428       0.05018       0.08455
  17    H          0.55331      -0.77151      -0.13077
  18    H          0.44291      -0.03228       0.08148
  19    N          0.05527      -0.23335       0.07196
  20    O         -0.67473      -1.03492       0.11325
  21    O          1.09126       0.59159      -0.22238
  22    H          0.68110       0.13612      -0.38659
  23    C         -0.09853       0.03136      -0.03188
  24    C          0.07423       0.21676      -0.07239
  25    C         -0.04502       0.43638      -0.05660
  26    C         -0.25378       0.27101      -0.06096
  27    N         -0.44782       0.16744      -0.00741
  28    C         -0.36381      -0.04632       0.00987
  29    H         -0.04275      -0.06797      -0.01942
  30    H          0.17914       0.29093      -0.09343
  31    H          0.21956       0.11383      -0.09127
  32    H          0.14200       0.53809      -0.05543
  33    H         -0.14451       0.60658      -0.04949
  34    H         -0.35328       0.41453      -0.07970
  35    H         -0.17609       0.11250      -0.03935
  36    H         -0.50716       0.28626       0.00307
  37    H         -0.49601      -0.12278       0.04720
  38    H         -0.32978      -0.21296       0.03245
  39    H         -0.08819      -0.41758       0.48559
  40    H         -0.54313      -0.03869      -0.40976
  41    O         -0.42387      -0.14178      -0.13504
 *+*+*+*+*+*+*+*+*+*+*+*+*+*+*+*+*+*+*+*+*+*+*+*+*+*+*+*+*+*+*+*+*+*+*+*+*+*+*+*+
            BAR SHORTENED BY       0.000 PERCENT
 GRADIENT CRITERION IN FLEPO =     1.000
  SCF CRITERION =    0.1000E-03
           THERE HAVE BEEN 3 ATTEMPTS TO REDUCE THE GRADIENT.
           DURING THESE ATTEMPTS THE ENERGY DROPPED BY LESS THAN 0.3 KCAL/MOLE
           FURTHER CALCULATION IS NOT JUSTIFIED AT THIS TIME.
           TO CONTINUE, START AGAIN WITH THE WORD "PRECISE"


          FOR POINT    1 SECOND STRUCTURE
 DISTANCE A - B      3.914172
 HEAT              -81.484240
 GRADIENT NORM       7.784618
 DIRECTION COSINE    0.000007
* ===============================
* Input file for Mopac
* ===============================
 PM7 BONDS AUX DUMP=30M ITRY=15000 T=14D CHARGE=0 DOUBLET eps=78.4 RELSCF=1


  C     0.00000000 +0    0.0000000 +0    0.0000000 +0     0     0     0
  C     1.39322414 +1    0.0000000 +0    0.0000000 +0     1     0     0
  C     1.40151372 +1  120.6735587 +1    0.0000000 +0     2     1     0
  C     1.39786189 +1  119.5072769 +1    0.4428765 +1     3     2     1
  C     1.39682787 +1  119.0552004 +1   -0.9473163 +1     4     3     2
  C     1.39102190 +1  120.3914580 +1    0.2579121 +1     1     2     3
  H     1.09234001 +1  119.7673523 +1 -179.7679550 +1     1     2     3
  H     1.08994893 +1  119.5355971 +1  179.6326261 +1     2     1     3
  H     1.09560104 +1  119.9036505 +1  179.4078420 +1     4     3     2
  H     1.09429769 +1  120.3919473 +1  179.6379933 +1     6     1     2
  N     1.44229615 +1  119.0732215 +1 -178.5551276 +1     5     4     3
  O     1.22454948 +1  119.3423902 +1  177.2662044 +1    11     5     4
  O     1.22563959 +1  119.2722969 +1   -2.4149853 +1    11     5     4
  C     1.45688268 +1  120.5324840 +1 -177.5939444 +1     3     2     1
  C     1.48870453 +1  118.5612825 +1   67.6600988 +1    14     3     2
  H     1.09981184 +1  112.2930398 +1 -135.6034303 +1    15    14     3
  H     1.10366888 +1  111.4681806 +1  104.9813080 +1    15    14     3
  H     1.09782820 +1  111.8714738 +1  -14.4071000 +1    15    14     3
  N     1.33423972 +1  121.1447258 +1 -117.2001483 +1    14     3     2
  O     1.26083669 +1  121.4837489 +1 -177.1531638 +1    19    14     3
  O     1.26115885 +1  121.2464241 +1    5.8449370 +1    19    14     3
  H     2.25918262 +1  101.3305645 +1  -29.9271531 +1    14     3     2
  C     4.10482800 +1  135.9587374 +1 -115.5367391 +1    18    15    14
  C     1.46835129 +1  131.3812296 +1  -21.4580735 +1    23    18    15
  C     1.53403094 +1  113.1013395 +1   73.1191537 +1    24    23    18
  C     1.52548458 +1  110.7857492 +1  -44.1419773 +1    25    24    23
  N     1.51241780 +1  109.2572043 +1   60.4640389 +1    26    25    24
  C     1.47386888 +1   33.1800441 +1   65.0004146 +1    23    18    15
  H     1.07668728 +1   97.6185797 +1 -162.8136051 +1    23    18    15
  H     1.11091940 +1  111.1656047 +1 -163.0827068 +1    24    23    18
  H     1.11983476 +1  108.8300261 +1  -49.0995528 +1    24    23    18
  H     1.10976370 +1  110.3145225 +1 -166.0727052 +1    25    24    23
  H     1.10991940 +1  110.1997873 +1   78.7358049 +1    25    24    23
  H     1.11636903 +1  111.1473230 +1 -179.7136994 +1    26    25    24
  H     1.11496926 +1  111.3575266 +1  -60.5978677 +1    26    25    24
  H     1.04366202 +1  109.3148581 +1   57.4659750 +1    27    26    25
  H     1.12030900 +1  111.3095650 +1   84.8679058 +1    28    23    18
  H     1.12134894 +1  109.0314712 +1  -32.7367231 +1    28    23    18
  H     1.05953365 +1  109.9478452 +1  175.2757770 +1    27    26    25
  H     1.53898849 +1  146.3607125 +1  -18.5132120 +1    22    14     3
  O     0.96964321 +1  156.4140804 +1   64.1504784 +1    22    14     3

 TIME=     1.90
  REACTANTS AND PRODUCTS SWAPPED AROUND
 *+*+*+*+*+*+*+*+*+*+*+*+*+*+*+*+*+*+*+*+*+*+*+*+*+*+*+*+*+*+*+*+*+*+*+*+*+*+*+*+
            BAR SHORTENED BY       1.000 PERCENT
 GRADIENT CRITERION IN FLEPO =     4.785


          FOR POINT    2 FIRST  STRUCTURE
 DISTANCE A - B      3.875031
 HEAT              -72.698757
 GRADIENT NORM       8.845300
 DIRECTION COSINE   -0.089201
* ===============================
* Input file for Mopac
* ===============================
 PM7 BONDS AUX DUMP=30M ITRY=15000 T=14D CHARGE=0 DOUBLET eps=78.4 RELSCF=1


  C     0.00000000 +0    0.0000000 +0    0.0000000 +0     0     0     0
  C     1.39384266 +1    0.0000000 +0    0.0000000 +0     1     0     0
  C     1.39998404 +1  120.2620265 +1    0.0000000 +0     2     1     0
  C     1.39301328 +1  120.0825360 +1    0.3400431 +1     3     2     1
  C     1.39827763 +1  118.9268863 +1    0.0309209 +1     4     3     2
  C     1.39034064 +1  120.4553074 +1   -0.2201341 +1     1     2     3
  H     1.09323728 +1  119.6921259 +1  179.5594239 +1     1     2     3
  H     1.09611209 +1  119.6327699 +1  179.5225691 +1     2     1     3
  H     1.09772897 +1  120.6079782 +1  179.8085573 +1     4     3     2
  H     1.09635671 +1  120.4672281 +1  179.8788587 +1     6     1     2
  N     1.44143963 +1  119.0162107 +1  179.4431210 +1     5     4     3
  O     1.22420519 +1  119.2454129 +1 -178.4976405 +1    11     5     4
  O     1.22625311 +1  119.1892105 +1    1.1091658 +1    11     5     4
  C     1.50250608 +1  119.0282821 +1 -178.2437827 +1     3     2     1
  C     1.52564760 +1  112.3110143 +1  123.8030133 +1    14     3     2
  H     1.09869330 +1  112.0408113 +1 -170.0684322 +1    15    14     3
  H     1.09967621 +1  112.9373563 +1   68.5551120 +1    15    14     3
  H     1.10171365 +1  110.6777778 +1  -50.8372469 +1    15    14     3
  N     1.49946672 +1  109.8941607 +1 -115.7035849 +1    14     3     2
  O     1.22112261 +1  118.3583240 +1  130.9613376 +1    19    14     3
  O     1.21873785 +1  119.5789935 +1  -49.5495063 +1    19    14     3
  H     1.14063520 +1  110.0665820 +1    1.8818188 +1    14     3     2
  C     4.61562756 +1  137.1494190 +1  -72.0986619 +1    18    15    14
  C     1.47112791 +1  128.5662305 +1  -51.4992413 +1    23    18    15
  C     1.53645615 +1  113.7457936 +1   87.3045060 +1    24    23    18
  C     1.53661821 +1  110.6506091 +1  -40.5842154 +1    25    24    23
  N     1.48185518 +1  111.6895551 +1   57.6617432 +1    26    25    24
  C     1.48009631 +1   46.3711012 +1   47.0102188 +1    23    18    15
  H     1.07331814 +1   91.0848447 +1  178.0195052 +1    23    18    15
  H     1.11282332 +1  111.2259042 +1 -148.6163936 +1    24    23    18
  H     1.12078102 +1  108.4347231 +1  -34.6692512 +1    24    23    18
  H     1.10608657 +1  110.3729292 +1 -162.9458897 +1    25    24    23
  H     1.10735762 +1  109.6516478 +1   80.8711395 +1    25    24    23
  H     1.11113775 +1  110.5646826 +1  178.2966335 +1    26    25    24
  H     1.11191438 +1  110.5444189 +1  -63.7217363 +1    26    25    24
  H     1.02658613 +1  109.6001402 +1   59.3869314 +1    27    26    25
  H     1.11536443 +1  111.3533897 +1   87.0656483 +1    28    23    18
  H     1.12298898 +1  108.7162718 +1  -29.3980920 +1    28    23    18
  H     1.90020779 +1  111.4907421 +1 -175.6909965 +1    27    26    25
  H     1.53684159 +1  139.4637131 +1 -128.0917030 +1    39    27    26
  O     0.95733454 +1   38.1485732 +1 -178.7721389 +1    40    39    27

 TIME=     0.61
  REACTANTS AND PRODUCTS SWAPPED AROUND
 *+*+*+*+*+*+*+*+*+*+*+*+*+*+*+*+*+*+*+*+*+*+*+*+*+*+*+*+*+*+*+*+*+*+*+*+*+*+*+*+
            BAR SHORTENED BY       1.000 PERCENT
 GRADIENT CRITERION IN FLEPO =     5.845


          FOR POINT    3 SECOND STRUCTURE
 DISTANCE A - B      3.836280
 HEAT              -81.409733
 GRADIENT NORM       5.796009
 DIRECTION COSINE   -0.232946
* ===============================
* Input file for Mopac
* ===============================
 PM7 BONDS AUX DUMP=30M ITRY=15000 T=14D CHARGE=0 DOUBLET eps=78.4 RELSCF=1


  C     0.00000000 +0    0.0000000 +0    0.0000000 +0     0     0     0
  C     1.39439244 +1    0.0000000 +0    0.0000000 +0     1     0     0
  C     1.40083649 +1  120.7514665 +1    0.0000000 +0     2     1     0
  C     1.39700137 +1  119.4492856 +1    0.5370164 +1     3     2     1
  C     1.39764572 +1  119.0539864 +1   -1.0409401 +1     4     3     2
  C     1.38965298 +1  120.3402393 +1    0.2767375 +1     1     2     3
  H     1.09283015 +1  119.6935706 +1 -179.8908707 +1     1     2     3
  H     1.08846161 +1  119.4405875 +1  179.5411966 +1     2     1     3
  H     1.09471559 +1  119.8077797 +1  179.5443421 +1     4     3     2
  H     1.09510254 +1  120.3217489 +1  179.6919859 +1     6     1     2
  N     1.44191319 +1  119.0602840 +1 -178.5719255 +1     5     4     3
  O     1.22492655 +1  119.3239166 +1  177.2915866 +1    11     5     4
  O     1.22483218 +1  119.1886163 +1   -2.2599699 +1    11     5     4
  C     1.45665548 +1  120.6437307 +1 -177.6151943 +1     3     2     1
  C     1.48843673 +1  118.5406895 +1   68.1682530 +1    14     3     2
  H     1.09962352 +1  112.2705271 +1 -135.9578196 +1    15    14     3
  H     1.10350460 +1  111.2569011 +1  104.6252738 +1    15    14     3
  H     1.09799592 +1  111.8581821 +1  -14.3947638 +1    15    14     3
  N     1.33217499 +1  121.1633236 +1 -116.9810890 +1    14     3     2
  O     1.26189097 +1  121.6660689 +1 -177.7498086 +1    19    14     3
  O     1.26027486 +1  121.3801297 +1    5.2999933 +1    19    14     3
  H     2.25637212 +1  101.2927132 +1  -29.5266376 +1    14     3     2
  C     4.11166423 +1  135.7221702 +1 -115.2500343 +1    18    15    14
  C     1.46769348 +1  131.3798911 +1  -21.7855310 +1    23    18    15
  C     1.53381398 +1  113.1442268 +1   73.3279689 +1    24    23    18
  C     1.52604290 +1  110.7493080 +1  -44.1845543 +1    25    24    23
  N     1.51244341 +1  109.3130030 +1   60.4693102 +1    26    25    24
  C     1.47352043 +1   33.3664615 +1   64.7967508 +1    23    18    15
  H     1.07652968 +1   97.5949454 +1 -163.1094547 +1    23    18    15
  H     1.11304459 +1  111.1571187 +1 -162.9010401 +1    24    23    18
  H     1.11973818 +1  108.7975912 +1  -49.0709843 +1    24    23    18
  H     1.11115835 +1  110.2372940 +1 -166.0653254 +1    25    24    23
  H     1.11000299 +1  110.1332964 +1   78.8957152 +1    25    24    23
  H     1.11620877 +1  111.0239120 +1 -179.7210512 +1    26    25    24
  H     1.11379633 +1  111.3273496 +1  -60.6200761 +1    26    25    24
  H     1.04483376 +1  109.1984678 +1   57.3502553 +1    27    26    25
  H     1.11985441 +1  111.3059448 +1   84.9939641 +1    28    23    18
  H     1.12485367 +1  108.9808221 +1  -32.7478526 +1    28    23    18
  H     1.06092744 +1  110.0320006 +1  175.3226643 +1    27    26    25
  H     1.54358545 +1  146.4826267 +1  -18.4674446 +1    22    14     3
  O     0.96682672 +1  157.1197752 +1   63.9202946 +1    22    14     3

 *+*+*+*+*+*+*+*+*+*+*+*+*+*+*+*+*+*+*+*+*+*+*+*+*+*+*+*+*+*+*+*+*+*+*+*+*+*+*+*+
            BAR SHORTENED BY       1.000 PERCENT
 GRADIENT CRITERION IN FLEPO =     2.796


          FOR POINT    4 SECOND STRUCTURE
 DISTANCE A - B      3.797917
 HEAT              -81.400667
 GRADIENT NORM       8.323140
 DIRECTION COSINE    0.374491
* ===============================
* Input file for Mopac
* ===============================
 PM7 BONDS AUX DUMP=30M ITRY=15000 T=14D CHARGE=0 DOUBLET eps=78.4 RELSCF=1


  C     0.00000000 +0    0.0000000 +0    0.0000000 +0     0     0     0
  C     1.39199154 +1    0.0000000 +0    0.0000000 +0     1     0     0
  C     1.40125431 +1  120.7551858 +1    0.0000000 +0     2     1     0
  C     1.39646031 +1  119.5384394 +1    0.5728135 +1     3     2     1
  C     1.39968275 +1  118.9703707 +1   -0.7351409 +1     4     3     2
  C     1.39228502 +1  120.4316126 +1    0.0380558 +1     1     2     3
  H     1.09235911 +1  119.7270837 +1 -179.8502340 +1     1     2     3
  H     1.08982391 +1  119.5652633 +1  179.5849435 +1     2     1     3
  H     1.09572270 +1  119.9071474 +1  179.5986692 +1     4     3     2
  H     1.09565184 +1  120.4655585 +1 -179.9996203 +1     6     1     2
  N     1.44330531 +1  119.0536035 +1 -178.5539947 +1     5     4     3
  O     1.22518089 +1  119.1923563 +1  177.0848956 +1    11     5     4
  O     1.22513205 +1  119.4587767 +1   -2.6884161 +1    11     5     4
  C     1.45478264 +1  120.7302641 +1 -177.6619958 +1     3     2     1
  C     1.48729261 +1  118.4828157 +1   68.8229603 +1    14     3     2
  H     1.09864067 +1  112.2868372 +1 -136.5246789 +1    15    14     3
  H     1.10298916 +1  111.1956809 +1  104.3429413 +1    15    14     3
  H     1.09776971 +1  111.8473258 +1  -14.6524811 +1    15    14     3
  N     1.33269058 +1  121.2933551 +1 -116.7447195 +1    14     3     2
  O     1.26231650 +1  121.8676378 +1 -178.0926718 +1    19    14     3
  O     1.26036221 +1  121.4013312 +1    4.8943784 +1    19    14     3
  H     2.25317698 +1  101.2210180 +1  -29.2530940 +1    14     3     2
  C     4.11618877 +1  135.7017043 +1 -114.8454336 +1    18    15    14
  C     1.46781018 +1  131.3808682 +1  -22.2928236 +1    23    18    15
  C     1.53452454 +1  113.0887141 +1   73.6238332 +1    24    23    18
  C     1.52718622 +1  110.7808104 +1  -44.1495492 +1    25    24    23
  N     1.51234930 +1  109.3510777 +1   60.4551918 +1    26    25    24
  C     1.47404957 +1   33.5526785 +1   64.5044322 +1    23    18    15
  H     1.07727375 +1   97.3890837 +1 -163.3351348 +1    23    18    15
  H     1.11327115 +1  111.1839402 +1 -162.4648258 +1    24    23    18
  H     1.12036836 +1  108.8357842 +1  -48.6991900 +1    24    23    18
  H     1.11042121 +1  110.2153056 +1 -166.0252928 +1    25    24    23
  H     1.11064799 +1  110.2165634 +1   78.8419329 +1    25    24    23
  H     1.11698081 +1  110.9322400 +1 -179.8809809 +1    26    25    24
  H     1.11420746 +1  111.2407502 +1  -60.7339878 +1    26    25    24
  H     1.04305283 +1  109.1869715 +1   57.3722829 +1    27    26    25
  H     1.12046550 +1  111.0986374 +1   85.0024946 +1    28    23    18
  H     1.12542656 +1  109.1480603 +1  -32.4835171 +1    28    23    18
  H     1.06139227 +1  110.1755942 +1  175.5966955 +1    27    26    25
  H     1.54414819 +1  146.8061373 +1  -18.1099026 +1    22    14     3
  O     0.96776784 +1  157.0274577 +1   65.1382668 +1    22    14     3

 *+*+*+*+*+*+*+*+*+*+*+*+*+*+*+*+*+*+*+*+*+*+*+*+*+*+*+*+*+*+*+*+*+*+*+*+*+*+*+*+
            BAR SHORTENED BY       1.000 PERCENT
 GRADIENT CRITERION IN FLEPO =     5.323


          FOR POINT    5 SECOND STRUCTURE
 DISTANCE A - B      3.759938
 HEAT              -81.223550
 GRADIENT NORM      12.466142
 DIRECTION COSINE    0.200057
* ===============================
* Input file for Mopac
* ===============================
 PM7 BONDS AUX DUMP=30M ITRY=15000 T=14D CHARGE=0 DOUBLET eps=78.4 RELSCF=1


  C     0.00000000 +0    0.0000000 +0    0.0000000 +0     0     0     0
  C     1.39399562 +1    0.0000000 +0    0.0000000 +0     1     0     0
  C     1.40000130 +1  120.6893113 +1    0.0000000 +0     2     1     0
  C     1.39799990 +1  119.6292133 +1    0.7770698 +1     3     2     1
  C     1.39556668 +1  118.9279641 +1   -0.8560282 +1     4     3     2
  C     1.38957794 +1  120.2319941 +1   -0.3774177 +1     1     2     3
  H     1.09285371 +1  119.5877032 +1 -179.8438280 +1     1     2     3
  H     1.09054216 +1  119.5684803 +1  179.8359799 +1     2     1     3
  H     1.09369773 +1  119.7069266 +1  179.6818622 +1     4     3     2
  H     1.09679045 +1  120.2392442 +1 -179.9502827 +1     6     1     2
  N     1.44216269 +1  119.2441523 +1 -178.5316063 +1     5     4     3
  O     1.22480848 +1  119.5015164 +1  177.0283717 +1    11     5     4
  O     1.22554528 +1  119.1376556 +1   -2.6658859 +1    11     5     4
  C     1.45901454 +1  120.6510642 +1 -177.5198737 +1     3     2     1
  C     1.48905664 +1  118.4440154 +1   69.4955167 +1    14     3     2
  H     1.10145210 +1  112.2588550 +1 -137.0501755 +1    15    14     3
  H     1.10288835 +1  110.9581197 +1  103.9556850 +1    15    14     3
  H     1.09732411 +1  111.8543309 +1  -15.0343521 +1    15    14     3
  N     1.33074624 +1  121.1655548 +1 -116.6629974 +1    14     3     2
  O     1.26205882 +1  122.0168953 +1 -178.4260513 +1    19    14     3
  O     1.25913143 +1  121.3472891 +1    4.4781085 +1    19    14     3
  H     2.24608888 +1  101.1161728 +1  -29.0090482 +1    14     3     2
  C     4.11946993 +1  135.6452971 +1 -114.3493571 +1    18    15    14
  C     1.46668641 +1  131.4205641 +1  -22.7836726 +1    23    18    15
  C     1.53525324 +1  113.0028946 +1   74.0373226 +1    24    23    18
  C     1.52898685 +1  110.7758841 +1  -44.1833261 +1    25    24    23
  N     1.51525403 +1  109.4028724 +1   60.3631848 +1    26    25    24
  C     1.47579828 +1   33.8111903 +1   64.6631501 +1    23    18    15
  H     1.07831473 +1   97.3604107 +1 -163.6133155 +1    23    18    15
  H     1.11565074 +1  111.1379277 +1 -162.0807040 +1    24    23    18
  H     1.11929865 +1  108.7859731 +1  -48.2163867 +1    24    23    18
  H     1.10993445 +1  110.1672630 +1 -165.9073969 +1    25    24    23
  H     1.10780906 +1  110.3211865 +1   78.6852442 +1    25    24    23
  H     1.11560376 +1  110.8949584 +1 -179.9834871 +1    26    25    24
  H     1.11385343 +1  111.1217574 +1  -60.6316148 +1    26    25    24
  H     1.04430573 +1  108.9538055 +1   57.5779530 +1    27    26    25
  H     1.11778621 +1  111.3105266 +1   85.1623686 +1    28    23    18
  H     1.12356976 +1  108.7167722 +1  -32.0825421 +1    28    23    18
  H     1.06117262 +1  110.2712006 +1  175.6487360 +1    27    26    25
  H     1.54844965 +1  147.1852272 +1  -17.7732585 +1    22    14     3
  O     0.96937241 +1   37.0159933 +1  140.0891884 +1    40    22    14

 TIME=     2.21
  REACTANTS AND PRODUCTS SWAPPED AROUND
 *+*+*+*+*+*+*+*+*+*+*+*+*+*+*+*+*+*+*+*+*+*+*+*+*+*+*+*+*+*+*+*+*+*+*+*+*+*+*+*+
            BAR SHORTENED BY       0.000 PERCENT
 GRADIENT CRITERION IN FLEPO =     9.466


          FOR POINT    6 FIRST  STRUCTURE
 DISTANCE A - B      3.759938
 HEAT              -72.698763
 GRADIENT NORM       8.843279
 DIRECTION COSINE   -0.197797
* ===============================
* Input file for Mopac
* ===============================
 PM7 BONDS AUX DUMP=30M ITRY=15000 T=14D CHARGE=0 DOUBLET eps=78.4 RELSCF=1


  C     0.00000000 +0    0.0000000 +0    0.0000000 +0     0     0     0
  C     1.39384266 +1    0.0000000 +0    0.0000000 +0     1     0     0
  C     1.39998404 +1  120.2620265 +1    0.0000000 +0     2     1     0
  C     1.39301328 +1  120.0825360 +1    0.3400431 +1     3     2     1
  C     1.39827763 +1  118.9268863 +1    0.0309209 +1     4     3     2
  C     1.39034064 +1  120.4553074 +1   -0.2201341 +1     1     2     3
  H     1.09323728 +1  119.6921259 +1  179.5594239 +1     1     2     3
  H     1.09611209 +1  119.6327699 +1  179.5225691 +1     2     1     3
  H     1.09772897 +1  120.6079782 +1  179.8085573 +1     4     3     2
  H     1.09635671 +1  120.4672281 +1  179.8788587 +1     6     1     2
  N     1.44143963 +1  119.0162107 +1  179.4431210 +1     5     4     3
  O     1.22420519 +1  119.2454129 +1 -178.4976405 +1    11     5     4
  O     1.22625311 +1  119.1892105 +1    1.1091658 +1    11     5     4
  C     1.50250608 +1  119.0282821 +1 -178.2437827 +1     3     2     1
  C     1.52564760 +1  112.3110143 +1  123.8030133 +1    14     3     2
  H     1.09869330 +1  112.0408113 +1 -170.0684322 +1    15    14     3
  H     1.09967621 +1  112.9373563 +1   68.5551120 +1    15    14     3
  H     1.10171365 +1  110.6777778 +1  -50.8372469 +1    15    14     3
  N     1.49946672 +1  109.8941607 +1 -115.7035849 +1    14     3     2
  O     1.22112261 +1  118.3583240 +1  130.9613376 +1    19    14     3
  O     1.21873785 +1  119.5789935 +1  -49.5495063 +1    19    14     3
  H     1.14063520 +1  110.0665820 +1    1.8818188 +1    14     3     2
  C     4.61562756 +1  137.1494190 +1  -72.0986619 +1    18    15    14
  C     1.47112791 +1  128.5662305 +1  -51.4992413 +1    23    18    15
  C     1.53645615 +1  113.7457936 +1   87.3045060 +1    24    23    18
  C     1.53661821 +1  110.6506091 +1  -40.5842154 +1    25    24    23
  N     1.48185518 +1  111.6895551 +1   57.6617432 +1    26    25    24
  C     1.48009631 +1   46.3711012 +1   47.0102188 +1    23    18    15
  H     1.07331814 +1   91.0848447 +1  178.0195052 +1    23    18    15
  H     1.11282332 +1  111.2259042 +1 -148.6163936 +1    24    23    18
  H     1.12078102 +1  108.4347231 +1  -34.6692512 +1    24    23    18
  H     1.10608657 +1  110.3729292 +1 -162.9458897 +1    25    24    23
  H     1.10735762 +1  109.6516478 +1   80.8711395 +1    25    24    23
  H     1.11113775 +1  110.5646826 +1  178.2966335 +1    26    25    24
  H     1.11191438 +1  110.5444189 +1  -63.7217363 +1    26    25    24
  H     1.02658613 +1  109.6001402 +1   59.3869314 +1    27    26    25
  H     1.11536443 +1  111.3533897 +1   87.0656483 +1    28    23    18
  H     1.12298898 +1  108.7162718 +1  -29.3980920 +1    28    23    18
  H     1.90020779 +1  111.4907421 +1 -175.6909965 +1    27    26    25
  H     1.53684159 +1  139.4637131 +1 -128.0917030 +1    39    27    26
  O     0.95733454 +1   38.1485732 +1 -178.7721389 +1    40    39    27

 TIME=     0.24
  REACTANTS AND PRODUCTS SWAPPED AROUND
 *+*+*+*+*+*+*+*+*+*+*+*+*+*+*+*+*+*+*+*+*+*+*+*+*+*+*+*+*+*+*+*+*+*+*+*+*+*+*+*+
            BAR SHORTENED BY       1.000 PERCENT
 GRADIENT CRITERION IN FLEPO =     5.843


          FOR POINT    7 SECOND STRUCTURE
 DISTANCE A - B      3.722339
 HEAT              -81.212408
 GRADIENT NORM      15.596051
 DIRECTION COSINE   -0.020240
* ===============================
* Input file for Mopac
* ===============================
 PM7 BONDS AUX DUMP=30M ITRY=15000 T=14D CHARGE=0 DOUBLET eps=78.4 RELSCF=1


  C     0.00000000 +0    0.0000000 +0    0.0000000 +0     0     0     0
  C     1.39405307 +1    0.0000000 +0    0.0000000 +0     1     0     0
  C     1.39999713 +1  120.6983181 +1    0.0000000 +0     2     1     0
  C     1.39708412 +1  119.5551448 +1    0.7872691 +1     3     2     1
  C     1.39974623 +1  119.1016340 +1   -0.9817526 +1     4     3     2
  C     1.39041416 +1  120.4195481 +1   -0.1742714 +1     1     2     3
  H     1.09103579 +1  119.6951236 +1  179.8385748 +1     1     2     3
  H     1.09011354 +1  119.5162202 +1  179.8281203 +1     2     1     3
  H     1.09502076 +1  119.8658626 +1  179.7730693 +1     4     3     2
  H     1.09416121 +1  120.5703155 +1 -179.9673445 +1     6     1     2
  N     1.43998100 +1  119.2471580 +1 -178.5185611 +1     5     4     3
  O     1.22568181 +1  119.1786867 +1  176.9049583 +1    11     5     4
  O     1.22525922 +1  119.3696097 +1   -2.5037002 +1    11     5     4
  C     1.45640360 +1  120.6639373 +1 -177.5438092 +1     3     2     1
  C     1.48433925 +1  118.6669776 +1   70.0632586 +1    14     3     2
  H     1.09937953 +1  112.5114290 +1 -137.2344494 +1    15    14     3
  H     1.10531731 +1  111.0030679 +1  103.4138675 +1    15    14     3
  H     1.10009563 +1  111.8696848 +1  -15.2254427 +1    15    14     3
  N     1.33179459 +1  121.0327475 +1 -116.5933416 +1    14     3     2
  O     1.26190762 +1  122.2035642 +1 -178.7830954 +1    19    14     3
  O     1.25876858 +1  121.3018352 +1    4.0671995 +1    19    14     3
  H     2.24055948 +1  101.0594249 +1  -28.8501767 +1    14     3     2
  C     4.12239136 +1  135.6245162 +1 -113.8002601 +1    18    15    14
  C     1.47045115 +1  131.4379312 +1  -23.3513920 +1    23    18    15
  C     1.53479477 +1  112.9350793 +1   74.0228312 +1    24    23    18
  C     1.52551519 +1  110.9697034 +1  -43.9070022 +1    25    24    23
  N     1.51429798 +1  109.5928234 +1   60.3109687 +1    26    25    24
  C     1.47205882 +1   33.9978415 +1   64.1297530 +1    23    18    15
  H     1.07439309 +1   97.3896406 +1 -164.0290943 +1    23    18    15
  H     1.11055045 +1  111.1528961 +1 -161.9112443 +1    24    23    18
  H     1.12054469 +1  108.6271587 +1  -48.0613118 +1    24    23    18
  H     1.10947373 +1  110.0725502 +1 -165.9601823 +1    25    24    23
  H     1.11093124 +1  110.0657990 +1   79.0249838 +1    25    24    23
  H     1.11708957 +1  110.9627166 +1 -179.9301363 +1    26    25    24
  H     1.11424986 +1  111.2266407 +1  -60.9446786 +1    26    25    24
  H     1.04920963 +1  108.5290099 +1   57.5544191 +1    27    26    25
  H     1.11919376 +1  111.2358873 +1   85.3916577 +1    28    23    18
  H     1.12625878 +1  108.9989119 +1  -32.1028490 +1    28    23    18
  H     1.06232089 +1  110.4612089 +1  175.9520863 +1    27    26    25
  H     1.55318368 +1  147.3728909 +1  -17.5052867 +1    22    14     3
  O     0.97141012 +1  157.1740687 +1   66.3911536 +1    22    14     3

 TIME=     0.55
  REACTANTS AND PRODUCTS SWAPPED AROUND
 *+*+*+*+*+*+*+*+*+*+*+*+*+*+*+*+*+*+*+*+*+*+*+*+*+*+*+*+*+*+*+*+*+*+*+*+*+*+*+*+
            BAR SHORTENED BY       1.000 PERCENT
 GRADIENT CRITERION IN FLEPO =    10.000


          FOR POINT    8 FIRST  STRUCTURE
 DISTANCE A - B      3.685115
 HEAT              -72.645995
 GRADIENT NORM      10.699437
 DIRECTION COSINE   -0.082766
* ===============================
* Input file for Mopac
* ===============================
 PM7 BONDS AUX DUMP=30M ITRY=15000 T=14D CHARGE=0 DOUBLET eps=78.4 RELSCF=1


  C     0.00000000 +0    0.0000000 +0    0.0000000 +0     0     0     0
  C     1.39463767 +1    0.0000000 +0    0.0000000 +0     1     0     0
  C     1.39685757 +1  120.4709426 +1    0.0000000 +0     2     1     0
  C     1.39262258 +1  119.9915419 +1    0.6126258 +1     3     2     1
  C     1.39940263 +1  118.9341221 +1    0.0252306 +1     4     3     2
  C     1.39005934 +1  120.3291169 +1   -0.6885762 +1     1     2     3
  H     1.09253019 +1  119.7056289 +1  179.6080221 +1     1     2     3
  H     1.09680410 +1  119.3086674 +1 -179.8092506 +1     2     1     3
  H     1.09855611 +1  120.7440655 +1  179.7327925 +1     4     3     2
  H     1.09666806 +1  120.4233441 +1 -179.8462213 +1     6     1     2
  N     1.44342266 +1  118.9714170 +1  179.2257752 +1     5     4     3
  O     1.22263612 +1  119.0878194 +1 -178.9155042 +1    11     5     4
  O     1.22424959 +1  119.1022939 +1    1.6227823 +1    11     5     4
  C     1.50328871 +1  119.0646320 +1 -177.8813180 +1     3     2     1
  C     1.52145915 +1  112.4426310 +1  123.5121385 +1    14     3     2
  H     1.10035540 +1  112.1110953 +1 -169.9212591 +1    15    14     3
  H     1.09916460 +1  113.2044370 +1   68.6523238 +1    15    14     3
  H     1.10205979 +1  110.6629814 +1  -50.7639251 +1    15    14     3
  N     1.49903352 +1  109.8788248 +1 -115.8177098 +1    14     3     2
  O     1.22127720 +1  118.5332725 +1  131.4047762 +1    19    14     3
  O     1.21884896 +1  119.6509809 +1  -49.0630832 +1    19    14     3
  H     1.14275999 +1  109.9831971 +1    1.3346051 +1    14     3     2
  C     4.60964492 +1  137.1085458 +1  -72.3647711 +1    18    15    14
  C     1.47035385 +1  128.6374784 +1  -51.5355340 +1    23    18    15
  C     1.53930153 +1  113.4356806 +1   87.5069508 +1    24    23    18
  C     1.53928618 +1  110.6323770 +1  -40.8226223 +1    25    24    23
  N     1.48252048 +1  111.6223255 +1   57.7977214 +1    26    25    24
  C     1.47620765 +1   46.1385291 +1   47.2462967 +1    23    18    15
  H     1.07337437 +1   91.1439546 +1  178.3453678 +1    23    18    15
  H     1.11046758 +1  111.3958023 +1 -148.8776045 +1    24    23    18
  H     1.11621070 +1  108.5862413 +1  -34.4022690 +1    24    23    18
  H     1.10511236 +1  110.2740579 +1 -163.0322820 +1    25    24    23
  H     1.10414392 +1  109.8453649 +1   80.6915795 +1    25    24    23
  H     1.11153520 +1  110.6007911 +1  178.4813560 +1    26    25    24
  H     1.11110683 +1  110.5902757 +1  -63.3634773 +1    26    25    24
  H     1.02660229 +1  109.4867077 +1   59.4686258 +1    27    26    25
  H     1.11726766 +1  111.5560130 +1   87.1380477 +1    28    23    18
  H     1.12022174 +1  108.9918678 +1  -29.5139645 +1    28    23    18
  H     1.89340135 +1  111.4966875 +1 -175.9148970 +1    27    26    25
  H     1.53983916 +1  139.5630492 +1 -127.8662343 +1    39    27    26
  O     0.96144917 +1   38.1160541 +1 -178.6019410 +1    40    39    27

 TIME=     0.50
  REACTANTS AND PRODUCTS SWAPPED AROUND
 *+*+*+*+*+*+*+*+*+*+*+*+*+*+*+*+*+*+*+*+*+*+*+*+*+*+*+*+*+*+*+*+*+*+*+*+*+*+*+*+
            BAR SHORTENED BY       1.000 PERCENT
 GRADIENT CRITERION IN FLEPO =     7.699


          FOR POINT    9 SECOND STRUCTURE
 DISTANCE A - B      3.648264
 HEAT              -81.168589
 GRADIENT NORM      16.153936
 DIRECTION COSINE   -0.111213
* ===============================
* Input file for Mopac
* ===============================
 PM7 BONDS AUX DUMP=30M ITRY=15000 T=14D CHARGE=0 DOUBLET eps=78.4 RELSCF=1


  C     0.00000000 +0    0.0000000 +0    0.0000000 +0     0     0     0
  C     1.39398104 +1    0.0000000 +0    0.0000000 +0     1     0     0
  C     1.40058899 +1  120.5233125 +1    0.0000000 +0     2     1     0
  C     1.39572470 +1  119.7397733 +1    0.5534753 +1     3     2     1
  C     1.39565702 +1  118.9126255 +1   -0.9427582 +1     4     3     2
  C     1.39079326 +1  120.3658712 +1    0.1548417 +1     1     2     3
  H     1.09217012 +1  119.5792274 +1  179.8053387 +1     1     2     3
  H     1.09014535 +1  119.6267333 +1  179.4314600 +1     2     1     3
  H     1.09294836 +1  119.7347634 +1  179.8972538 +1     4     3     2
  H     1.09627898 +1  120.2899429 +1  179.7317417 +1     6     1     2
  N     1.44365982 +1  119.1465445 +1 -178.3919298 +1     5     4     3
  O     1.22400652 +1  119.2693274 +1  176.9344515 +1    11     5     4
  O     1.22119321 +1  119.4173182 +1   -2.4722385 +1    11     5     4
  C     1.45767371 +1  120.5565685 +1 -177.6946663 +1     3     2     1
  C     1.48648886 +1  118.7872669 +1   70.4597271 +1    14     3     2
  H     1.10000134 +1  112.4495369 +1 -137.6017718 +1    15    14     3
  H     1.10293351 +1  110.8418826 +1  103.1274064 +1    15    14     3
  H     1.09639839 +1  111.6948417 +1  -15.5586120 +1    15    14     3
  N     1.33230314 +1  121.0818890 +1 -116.4496451 +1    14     3     2
  O     1.26143867 +1  122.4918798 +1 -179.3207126 +1    19    14     3
  O     1.25801924 +1  121.1291944 +1    3.4169087 +1    19    14     3
  H     2.23800073 +1  101.0124353 +1  -28.6879323 +1    14     3     2
  C     4.13008381 +1  135.6676499 +1 -113.6302502 +1    18    15    14
  C     1.46616407 +1  131.3811506 +1  -23.2987323 +1    23    18    15
  C     1.53319210 +1  113.1148429 +1   74.2719116 +1    24    23    18
  C     1.53037512 +1  110.7835186 +1  -44.0008977 +1    25    24    23
  N     1.51196741 +1  109.4280366 +1   60.3141471 +1    26    25    24
  C     1.47432516 +1   34.1662260 +1   64.3100485 +1    23    18    15
  H     1.07757367 +1   97.1157683 +1 -164.1324062 +1    23    18    15
  H     1.11566032 +1  111.1442197 +1 -161.8070613 +1    24    23    18
  H     1.11969093 +1  108.6081274 +1  -48.1270022 +1    24    23    18
  H     1.11102383 +1  110.2484997 +1 -165.8814971 +1    25    24    23
  H     1.10942253 +1  110.2838836 +1   78.9483868 +1    25    24    23
  H     1.11613586 +1  110.6492530 +1 -179.9464060 +1    26    25    24
  H     1.11278788 +1  110.9748622 +1  -60.9901998 +1    26    25    24
  H     1.04431947 +1  108.7534095 +1   57.7146085 +1    27    26    25
  H     1.12083013 +1  111.1528948 +1   85.4412761 +1    28    23    18
  H     1.12459264 +1  108.9202721 +1  -31.9044812 +1    28    23    18
  H     1.05586597 +1  110.6538974 +1  175.9220708 +1    27    26    25
  H     1.55383697 +1  147.5282072 +1  -17.3296518 +1    22    14     3
  O     0.96963999 +1   36.8886456 +1  140.3113299 +1    40    22    14

 TIME=     0.53
  REACTANTS AND PRODUCTS SWAPPED AROUND
 *+*+*+*+*+*+*+*+*+*+*+*+*+*+*+*+*+*+*+*+*+*+*+*+*+*+*+*+*+*+*+*+*+*+*+*+*+*+*+*+
            BAR SHORTENED BY       1.000 PERCENT
 GRADIENT CRITERION IN FLEPO =    10.000


          FOR POINT   10 FIRST  STRUCTURE
 DISTANCE A - B      3.611782
 HEAT              -72.535889
 GRADIENT NORM      17.813185
 DIRECTION COSINE    0.105974
* ===============================
* Input file for Mopac
* ===============================
 PM7 BONDS AUX DUMP=30M ITRY=15000 T=14D CHARGE=0 DOUBLET eps=78.4 RELSCF=1


  C     0.00000000 +0    0.0000000 +0    0.0000000 +0     0     0     0
  C     1.38969870 +1    0.0000000 +0    0.0000000 +0     1     0     0
  C     1.40045636 +1  120.4160733 +1    0.0000000 +0     2     1     0
  C     1.39260940 +1  119.9491323 +1    0.9440439 +1     3     2     1
  C     1.39741514 +1  119.0016521 +1   -0.1241632 +1     4     3     2
  C     1.39185540 +1  120.5421701 +1   -0.8838590 +1     1     2     3
  H     1.09373303 +1  119.8122651 +1  179.3057941 +1     1     2     3
  H     1.09725313 +1  119.4504528 +1 -179.4558377 +1     2     1     3
  H     1.09518127 +1  120.5488034 +1  179.6125578 +1     4     3     2
  H     1.09671081 +1  120.6003216 +1 -179.8241173 +1     6     1     2
  N     1.44019205 +1  119.0182090 +1  179.7093667 +1     5     4     3
  O     1.22478938 +1  119.1270020 +1 -178.9427089 +1    11     5     4
  O     1.22597774 +1  119.1383477 +1    0.7902763 +1    11     5     4
  C     1.50173786 +1  118.8669221 +1 -177.9898946 +1     3     2     1
  C     1.52338763 +1  112.3610614 +1  123.3315197 +1    14     3     2
  H     1.09764511 +1  111.9542264 +1 -169.8800833 +1    15    14     3
  H     1.09855300 +1  113.1483088 +1   68.8202074 +1    15    14     3
  H     1.10196096 +1  110.5497078 +1  -50.4560721 +1    15    14     3
  N     1.49610660 +1  110.1131768 +1 -115.8083514 +1    14     3     2
  O     1.22157157 +1  118.7635463 +1  131.9956687 +1    19    14     3
  O     1.21893944 +1  119.7210306 +1  -48.2724544 +1    19    14     3
  H     1.14617009 +1  110.1079520 +1    1.2659729 +1    14     3     2
  C     4.60297932 +1  137.0580216 +1  -73.0596052 +1    18    15    14
  C     1.47095594 +1  128.7040943 +1  -50.6068469 +1    23    18    15
  C     1.53653103 +1  113.6303312 +1   87.0517512 +1    24    23    18
  C     1.53674249 +1  110.6719759 +1  -40.7116778 +1    25    24    23
  N     1.47810281 +1  111.7547551 +1   57.7050712 +1    26    25    24
  C     1.47842874 +1   46.1630490 +1   47.7760399 +1    23    18    15
  H     1.07306188 +1   91.1167415 +1  178.6592218 +1    23    18    15
  H     1.11295995 +1  111.1020230 +1 -149.1499309 +1    24    23    18
  H     1.12062223 +1  108.4027177 +1  -34.9401753 +1    24    23    18
  H     1.09846348 +1  110.6992105 +1 -163.1147416 +1    25    24    23
  H     1.10880972 +1  109.6823561 +1   80.8283217 +1    25    24    23
  H     1.11160599 +1  110.5632794 +1  178.4383254 +1    26    25    24
  H     1.11411299 +1  110.4733805 +1  -63.6408957 +1    26    25    24
  H     1.02943268 +1  109.6524366 +1   59.4193602 +1    27    26    25
  H     1.11326814 +1  111.6627247 +1   86.7858870 +1    28    23    18
  H     1.12571080 +1  108.7040777 +1  -29.6193104 +1    28    23    18
  H     1.88940226 +1  111.6060290 +1 -176.0516763 +1    27    26    25
  H     1.54012073 +1  139.9025268 +1 -127.5725047 +1    39    27    26
  O     0.95837752 +1   38.0057447 +1 -178.7658022 +1    40    39    27

 TIME=     0.49
  REACTANTS AND PRODUCTS SWAPPED AROUND
 *+*+*+*+*+*+*+*+*+*+*+*+*+*+*+*+*+*+*+*+*+*+*+*+*+*+*+*+*+*+*+*+*+*+*+*+*+*+*+*+
            BAR SHORTENED BY       1.000 PERCENT
 GRADIENT CRITERION IN FLEPO =    10.000


          FOR POINT   11 SECOND STRUCTURE
 DISTANCE A - B      3.575664
 HEAT              -81.121169
 GRADIENT NORM      19.928339
 DIRECTION COSINE    0.282986
* ===============================
* Input file for Mopac
* ===============================
 PM7 BONDS AUX DUMP=30M ITRY=15000 T=14D CHARGE=0 DOUBLET eps=78.4 RELSCF=1


  C     0.00000000 +0    0.0000000 +0    0.0000000 +0     0     0     0
  C     1.39777039 +1    0.0000000 +0    0.0000000 +0     1     0     0
  C     1.39834894 +1  120.5833114 +1    0.0000000 +0     2     1     0
  C     1.39587704 +1  119.6004369 +1    0.4044664 +1     3     2     1
  C     1.39674584 +1  119.1119471 +1   -0.4370814 +1     4     3     2
  C     1.38836233 +1  120.3461985 +1    0.0992293 +1     1     2     3
  H     1.09510482 +1  119.4245286 +1  179.6670281 +1     1     2     3
  H     1.09335579 +1  119.2680027 +1  179.8079034 +1     2     1     3
  H     1.09973325 +1  119.7519834 +1  179.4438710 +1     4     3     2
  H     1.09670443 +1  120.4523035 +1  179.9101102 +1     6     1     2
  N     1.44163736 +1  119.2764805 +1 -178.7197423 +1     5     4     3
  O     1.22324747 +1  119.3476251 +1  176.7464822 +1    11     5     4
  O     1.22568000 +1  119.2021456 +1   -2.9117649 +1    11     5     4
  C     1.45695215 +1  120.6400311 +1 -177.6889364 +1     3     2     1
  C     1.48681273 +1  118.5294695 +1   71.0711552 +1    14     3     2
  H     1.10056916 +1  113.0331917 +1 -138.0791080 +1    15    14     3
  H     1.10896335 +1  110.5692128 +1  102.9315392 +1    15    14     3
  H     1.09276928 +1  112.1965703 +1  -15.9359513 +1    15    14     3
  N     1.33205717 +1  121.0637319 +1 -116.1909706 +1    14     3     2
  O     1.26232879 +1  122.4707599 +1 -179.9820018 +1    19    14     3
  O     1.25925765 +1  121.0177035 +1    2.9972162 +1    19    14     3
  H     2.23789289 +1  100.6786394 +1  -28.4619044 +1    14     3     2
  C     4.13158730 +1  135.9549925 +1 -112.9498539 +1    18    15    14
  C     1.46887148 +1  131.2152975 +1  -23.8433444 +1    23    18    15
  C     1.53429941 +1  113.0820262 +1   74.4031437 +1    24    23    18
  C     1.52610092 +1  110.9271001 +1  -44.0947040 +1    25    24    23
  N     1.50970438 +1  109.2927302 +1   60.6393582 +1    26    25    24
  C     1.47486876 +1   34.2898384 +1   63.8037530 +1    23    18    15
  H     1.07726128 +1   97.1883473 +1 -164.5474741 +1    23    18    15
  H     1.11444411 +1  111.1704145 +1 -161.5358458 +1    24    23    18
  H     1.11991451 +1  108.6717302 +1  -47.8844770 +1    24    23    18
  H     1.11297671 +1  110.0045777 +1 -165.9687946 +1    25    24    23
  H     1.10635712 +1  110.0818819 +1   79.2962801 +1    25    24    23
  H     1.11449619 +1  110.7900141 +1 -179.8793019 +1    26    25    24
  H     1.11250821 +1  111.3751582 +1  -60.8323532 +1    26    25    24
  H     1.03715110 +1  109.5711460 +1   57.5518960 +1    27    26    25
  H     1.12068439 +1  111.1548203 +1   85.6307681 +1    28    23    18
  H     1.12339132 +1  109.1364294 +1  -32.0717121 +1    28    23    18
  H     1.05092023 +1  109.9767209 +1  175.4625067 +1    27    26    25
  H     1.53770920 +1  148.3803522 +1  -16.4495734 +1    22    14     3
  O     0.96123068 +1   37.2840667 +1  139.6562829 +1    40    22    14

 *+*+*+*+*+*+*+*+*+*+*+*+*+*+*+*+*+*+*+*+*+*+*+*+*+*+*+*+*+*+*+*+*+*+*+*+*+*+*+*+
            BAR SHORTENED BY       1.000 PERCENT
 GRADIENT CRITERION IN FLEPO =    10.000


          FOR POINT   12 SECOND STRUCTURE
 DISTANCE A - B      3.539907
 HEAT              -81.138389
 GRADIENT NORM      15.057673
 DIRECTION COSINE    0.182768
* ===============================
* Input file for Mopac
* ===============================
 PM7 BONDS AUX DUMP=30M ITRY=15000 T=14D CHARGE=0 DOUBLET eps=78.4 RELSCF=1


  C     0.00000000 +0    0.0000000 +0    0.0000000 +0     0     0     0
  C     1.39447390 +1    0.0000000 +0    0.0000000 +0     1     0     0
  C     1.39992638 +1  120.6662608 +1    0.0000000 +0     2     1     0
  C     1.39724934 +1  119.5526137 +1    0.5373768 +1     3     2     1
  C     1.39878305 +1  119.0067532 +1   -0.8148455 +1     4     3     2
  C     1.39078670 +1  120.4129892 +1    0.0000000 +1     1     2     3
  H     1.09265553 +1  119.7330930 +1  179.9900901 +1     1     2     3
  H     1.09012161 +1  119.3182023 +1  179.8048355 +1     2     1     3
  H     1.09553995 +1  119.7098421 +1  179.6937659 +1     4     3     2
  H     1.09484393 +1  120.4177948 +1  179.9378776 +1     6     1     2
  N     1.44218830 +1  119.0792260 +1 -178.8362596 +1     5     4     3
  O     1.22504600 +1  119.2522246 +1  177.0755641 +1    11     5     4
  O     1.22817089 +1  119.2476543 +1   -2.0242701 +1    11     5     4
  C     1.46058009 +1  120.6953700 +1 -177.4436561 +1     3     2     1
  C     1.48415467 +1  118.7606453 +1   71.3919725 +1    14     3     2
  H     1.09850094 +1  112.6217741 +1 -138.2661250 +1    15    14     3
  H     1.10188102 +1  110.4568807 +1  102.4409191 +1    15    14     3
  H     1.09630440 +1  111.9051513 +1  -16.3034177 +1    15    14     3
  N     1.33394410 +1  120.5955323 +1 -116.1549870 +1    14     3     2
  O     1.26297413 +1  122.1855081 +1  179.3741357 +1    19    14     3
  O     1.25967157 +1  121.3164742 +1    2.4860349 +1    19    14     3
  H     2.23584798 +1  100.4642116 +1  -28.4401935 +1    14     3     2
  C     4.13212631 +1  135.9643977 +1 -112.8241158 +1    18    15    14
  C     1.46729979 +1  131.1920160 +1  -23.9417435 +1    23    18    15
  C     1.53365173 +1  113.1377658 +1   74.7432754 +1    24    23    18
  C     1.52704539 +1  110.8599660 +1  -43.9566985 +1    25    24    23
  N     1.51242831 +1  109.4347019 +1   60.2494091 +1    26    25    24
  C     1.47404564 +1   34.4947308 +1   64.0748997 +1    23    18    15
  H     1.07616427 +1   97.0763758 +1 -164.1325966 +1    23    18    15
  H     1.11480643 +1  111.3378281 +1 -161.2770544 +1    24    23    18
  H     1.11974298 +1  108.8812876 +1  -47.4793056 +1    24    23    18
  H     1.10787686 +1  110.2939266 +1 -165.9652229 +1    25    24    23
  H     1.11099360 +1  110.1071912 +1   78.8828487 +1    25    24    23
  H     1.10806385 +1  110.4392299 +1 -179.2212304 +1    26    25    24
  H     1.11384349 +1  111.3499869 +1  -60.9919266 +1    26    25    24
  H     1.04335756 +1  109.3829034 +1   57.7738046 +1    27    26    25
  H     1.12180676 +1  111.3149723 +1   85.6305831 +1    28    23    18
  H     1.12808440 +1  109.1942790 +1  -32.1829663 +1    28    23    18
  H     1.05942543 +1  110.0009564 +1  175.5884883 +1    27    26    25
  H     1.54474195 +1  148.4930827 +1  -16.4667875 +1    22    14     3
  O     0.96621015 +1  157.1518217 +1   70.1608984 +1    22    14     3

 *+*+*+*+*+*+*+*+*+*+*+*+*+*+*+*+*+*+*+*+*+*+*+*+*+*+*+*+*+*+*+*+*+*+*+*+*+*+*+*+
            BAR SHORTENED BY       1.000 PERCENT
 GRADIENT CRITERION IN FLEPO =    10.000


          FOR POINT   13 SECOND STRUCTURE
 DISTANCE A - B      3.504508
 HEAT              -81.100951
 GRADIENT NORM      19.627429
 DIRECTION COSINE   -0.080738
* ===============================
* Input file for Mopac
* ===============================
 PM7 BONDS AUX DUMP=30M ITRY=15000 T=14D CHARGE=0 DOUBLET eps=78.4 RELSCF=1


  C     0.00000000 +0    0.0000000 +0    0.0000000 +0     0     0     0
  C     1.39333823 +1    0.0000000 +0    0.0000000 +0     1     0     0
  C     1.40391253 +1  120.7443081 +1    0.0000000 +0     2     1     0
  C     1.39898366 +1  119.2904475 +1    0.4691021 +1     3     2     1
  C     1.39456970 +1  119.1668657 +1   -0.9365579 +1     4     3     2
  C     1.39038835 +1  120.4991219 +1    0.2705139 +1     1     2     3
  H     1.09179421 +1  119.6165197 +1  179.9247071 +1     1     2     3
  H     1.09061267 +1  119.4590086 +1  179.5267094 +1     2     1     3
  H     1.09310967 +1  119.3834811 +1  179.7563182 +1     4     3     2
  H     1.09309800 +1  120.5131621 +1  179.9157433 +1     6     1     2
  N     1.44141864 +1  119.0630299 +1 -178.7608780 +1     5     4     3
  O     1.22533632 +1  119.2719270 +1  177.1859603 +1    11     5     4
  O     1.22295875 +1  119.2686260 +1   -1.9760587 +1    11     5     4
  C     1.45861992 +1  120.8328623 +1 -177.7403589 +1     3     2     1
  C     1.48725146 +1  118.5588180 +1   71.8248151 +1    14     3     2
  H     1.09979962 +1  112.6633179 +1 -138.8502636 +1    15    14     3
  H     1.10408245 +1  110.3131365 +1  102.2027205 +1    15    14     3
  H     1.09728761 +1  112.1086017 +1  -16.5068875 +1    15    14     3
  N     1.33012618 +1  120.7484971 +1 -115.9379709 +1    14     3     2
  O     1.26256223 +1  122.4720862 +1  179.0466459 +1    19    14     3
  O     1.25610794 +1  120.3534703 +1    1.7675488 +1    19    14     3
  H     2.23058540 +1  100.4346026 +1  -28.0255454 +1    14     3     2
  C     4.13200509 +1  135.9941563 +1 -112.4497737 +1    18    15    14
  C     1.46826232 +1  131.2871393 +1  -24.5331014 +1    23    18    15
  C     1.53294083 +1  112.8216892 +1   74.9973718 +1    24    23    18
  C     1.52484194 +1  110.9623783 +1  -43.9977252 +1    25    24    23
  N     1.51127142 +1  109.5108286 +1   60.5950276 +1    26    25    24
  C     1.47513560 +1   34.5509428 +1   63.8025420 +1    23    18    15
  H     1.07979071 +1   96.8649584 +1 -164.4152641 +1    23    18    15
  H     1.10962198 +1  111.4171758 +1 -161.0180985 +1    24    23    18
  H     1.12094915 +1  108.7597600 +1  -47.1259938 +1    24    23    18
  H     1.11315871 +1  110.2017834 +1 -165.8883793 +1    25    24    23
  H     1.10767536 +1  110.1898184 +1   79.1871920 +1    25    24    23
  H     1.11497991 +1  110.4591284 +1 -179.2462789 +1    26    25    24
  H     1.11428744 +1  111.4337776 +1  -60.8455508 +1    26    25    24
  H     1.04273412 +1  109.3279657 +1   57.4092276 +1    27    26    25
  H     1.11852342 +1  111.1653569 +1   85.7441741 +1    28    23    18
  H     1.12324832 +1  109.2097996 +1  -32.1549586 +1    28    23    18
  H     1.06095258 +1  110.2178002 +1  175.6441320 +1    27    26    25
  H     1.55186335 +1  148.6505654 +1  -16.6742178 +1    22    14     3
  O     0.96913775 +1   36.8335964 +1  140.3048225 +1    40    22    14

 TIME=     1.45
  REACTANTS AND PRODUCTS SWAPPED AROUND
 *+*+*+*+*+*+*+*+*+*+*+*+*+*+*+*+*+*+*+*+*+*+*+*+*+*+*+*+*+*+*+*+*+*+*+*+*+*+*+*+
            BAR SHORTENED BY       0.000 PERCENT
 GRADIENT CRITERION IN FLEPO =    10.000


          FOR POINT   14 FIRST  STRUCTURE
 DISTANCE A - B      3.504508
 HEAT              -72.668847
 GRADIENT NORM       6.469475
 DIRECTION COSINE    0.152495
* ===============================
* Input file for Mopac
* ===============================
 PM7 BONDS AUX DUMP=30M ITRY=15000 T=14D CHARGE=0 DOUBLET eps=78.4 RELSCF=1


  C     0.00000000 +0    0.0000000 +0    0.0000000 +0     0     0     0
  C     1.39406038 +1    0.0000000 +0    0.0000000 +0     1     0     0
  C     1.39771903 +1  120.3840582 +1    0.0000000 +0     2     1     0
  C     1.39244497 +1  120.0537619 +1    0.8271085 +1     3     2     1
  C     1.39932841 +1  118.9181162 +1   -0.0766065 +1     4     3     2
  C     1.39089769 +1  120.3661904 +1   -0.7669747 +1     1     2     3
  H     1.09461262 +1  119.7732476 +1  179.2087295 +1     1     2     3
  H     1.09722840 +1  119.3701452 +1 -179.5540044 +1     2     1     3
  H     1.09791109 +1  120.6366559 +1  179.6472226 +1     4     3     2
  H     1.09701751 +1  120.2779053 +1 -179.9375916 +1     6     1     2
  N     1.44178609 +1  118.9324708 +1  179.6602425 +1     5     4     3
  O     1.22394782 +1  119.0831942 +1 -178.9627767 +1    11     5     4
  O     1.22341410 +1  119.2022040 +1    0.8614055 +1    11     5     4
  C     1.50298728 +1  118.7323821 +1 -178.0123974 +1     3     2     1
  C     1.52387175 +1  112.2389433 +1  123.3865343 +1    14     3     2
  H     1.10100475 +1  111.8587386 +1 -169.9351734 +1    15    14     3
  H     1.10048007 +1  113.2000679 +1   68.4519489 +1    15    14     3
  H     1.10299113 +1  110.5953250 +1  -50.8656620 +1    15    14     3
  N     1.50343217 +1  109.8796091 +1 -116.0423591 +1    14     3     2
  O     1.22168722 +1  117.9483224 +1  132.3532556 +1    19    14     3
  O     1.21880855 +1  119.5879682 +1  -48.1198575 +1    19    14     3
  H     1.13960148 +1  110.2500424 +1    1.2803574 +1    14     3     2
  C     4.59872958 +1  137.2533536 +1  -72.7125768 +1    18    15    14
  C     1.47089010 +1  128.6828168 +1  -50.9215503 +1    23    18    15
  C     1.53689703 +1  113.3914935 +1   87.2346820 +1    24    23    18
  C     1.53662172 +1  110.7865293 +1  -40.9793489 +1    25    24    23
  N     1.48274240 +1  111.5158339 +1   57.9898830 +1    26    25    24
  C     1.47829966 +1   46.0424172 +1   47.5881282 +1    23    18    15
  H     1.07317786 +1   91.2090817 +1  178.5652298 +1    23    18    15
  H     1.11137773 +1  111.1038885 +1 -149.1632203 +1    24    23    18
  H     1.11673860 +1  108.4740836 +1  -34.7447452 +1    24    23    18
  H     1.10578115 +1  110.5433963 +1 -163.1534117 +1    25    24    23
  H     1.10363830 +1  109.8151295 +1   80.7751241 +1    25    24    23
  H     1.11191104 +1  110.6892297 +1  178.4873336 +1    26    25    24
  H     1.11131760 +1  110.6076539 +1  -63.2953151 +1    26    25    24
  H     1.02483088 +1  109.6280022 +1   59.4668317 +1    27    26    25
  H     1.11597503 +1  111.6013447 +1   86.9134574 +1    28    23    18
  H     1.12100812 +1  108.9009966 +1  -29.5715524 +1    28    23    18
  H     1.88824253 +1  111.4137009 +1 -176.0649264 +1    27    26    25
  H     1.53773406 +1  139.6067801 +1 -128.0770477 +1    39    27    26
  O     0.96044562 +1   38.3670636 +1 -178.5844938 +1    40    39    27

 TIME=     0.64
  REACTANTS AND PRODUCTS SWAPPED AROUND
 *+*+*+*+*+*+*+*+*+*+*+*+*+*+*+*+*+*+*+*+*+*+*+*+*+*+*+*+*+*+*+*+*+*+*+*+*+*+*+*+
            BAR SHORTENED BY       1.000 PERCENT
 GRADIENT CRITERION IN FLEPO =     3.469


          FOR POINT   15 SECOND STRUCTURE
 DISTANCE A - B      3.469463
 HEAT              -81.126014
 GRADIENT NORM       9.940845
 DIRECTION COSINE    0.047201
* ===============================
* Input file for Mopac
* ===============================
 PM7 BONDS AUX DUMP=30M ITRY=15000 T=14D CHARGE=0 DOUBLET eps=78.4 RELSCF=1


  C     0.00000000 +0    0.0000000 +0    0.0000000 +0     0     0     0
  C     1.39281866 +1    0.0000000 +0    0.0000000 +0     1     0     0
  C     1.40082759 +1  120.8210587 +1    0.0000000 +0     2     1     0
  C     1.39723974 +1  119.3228307 +1    0.7066370 +1     3     2     1
  C     1.39702475 +1  119.0876135 +1   -1.0943313 +1     4     3     2
  C     1.39035431 +1  120.4982754 +1    0.0365882 +1     1     2     3
  H     1.09250806 +1  119.5843943 +1  179.8063920 +1     1     2     3
  H     1.08955680 +1  119.3413747 +1  179.6883759 +1     2     1     3
  H     1.09555669 +1  119.7122007 +1  179.8015053 +1     4     3     2
  H     1.09310086 +1  120.6433456 +1  179.6591832 +1     6     1     2
  N     1.43996898 +1  118.9847101 +1 -178.5331101 +1     5     4     3
  O     1.22442032 +1  119.3888722 +1  177.1137810 +1    11     5     4
  O     1.22397351 +1  119.3283494 +1   -2.4533848 +1    11     5     4
  C     1.45852369 +1  120.9053434 +1 -177.5678474 +1     3     2     1
  C     1.48802126 +1  118.8707721 +1   72.5251632 +1    14     3     2
  H     1.10069869 +1  112.6497983 +1 -138.9204589 +1    15    14     3
  H     1.10389015 +1  110.2504457 +1  101.7472331 +1    15    14     3
  H     1.09716858 +1  111.9322725 +1  -16.9873967 +1    15    14     3
  N     1.33359235 +1  120.6144609 +1 -115.7043828 +1    14     3     2
  O     1.26156314 +1  122.5723259 +1  178.5570450 +1    19    14     3
  O     1.26096665 +1  120.6364243 +1    1.4044828 +1    19    14     3
  H     2.23244112 +1  100.1466035 +1  -27.9694563 +1    14     3     2
  C     4.13420741 +1  136.1924161 +1 -111.9139566 +1    18    15    14
  C     1.46805507 +1  131.1609514 +1  -24.8390950 +1    23    18    15
  C     1.53338477 +1  112.9648789 +1   75.2706352 +1    24    23    18
  C     1.52678128 +1  110.9144338 +1  -43.9992284 +1    25    24    23
  N     1.51270004 +1  109.4969247 +1   60.3906798 +1    26    25    24
  C     1.47443287 +1   34.8151239 +1   63.7535161 +1    23    18    15
  H     1.07793865 +1   96.8669246 +1 -164.5888940 +1    23    18    15
  H     1.11271824 +1  111.3938164 +1 -160.8827110 +1    24    23    18
  H     1.12049864 +1  108.7108028 +1  -46.9600274 +1    24    23    18
  H     1.11204910 +1  110.1438749 +1 -165.9079233 +1    25    24    23
  H     1.10918246 +1  110.0910176 +1   79.2846335 +1    25    24    23
  H     1.11654811 +1  110.7108696 +1 -179.6222876 +1    26    25    24
  H     1.11474445 +1  111.1932494 +1  -60.7126485 +1    26    25    24
  H     1.04374927 +1  109.1352105 +1   57.7211493 +1    27    26    25
  H     1.11742097 +1  111.2791309 +1   85.9645500 +1    28    23    18
  H     1.12373685 +1  109.3183257 +1  -31.9055735 +1    28    23    18
  H     1.06170122 +1  110.2215572 +1  175.7576170 +1    27    26    25
  H     1.54182437 +1  149.1208623 +1  -15.9598660 +1    22    14     3
  O     0.96689950 +1  157.0719263 +1   72.1881164 +1    22    14     3

 *+*+*+*+*+*+*+*+*+*+*+*+*+*+*+*+*+*+*+*+*+*+*+*+*+*+*+*+*+*+*+*+*+*+*+*+*+*+*+*+
            BAR SHORTENED BY       1.000 PERCENT
 GRADIENT CRITERION IN FLEPO =     6.941


          FOR POINT   16 SECOND STRUCTURE
 DISTANCE A - B      3.434768
 HEAT              -81.008360
 GRADIENT NORM      15.458439
 DIRECTION COSINE    0.397410
* ===============================
* Input file for Mopac
* ===============================
 PM7 BONDS AUX DUMP=30M ITRY=15000 T=14D CHARGE=0 DOUBLET eps=78.4 RELSCF=1


  C     0.00000000 +0    0.0000000 +0    0.0000000 +0     0     0     0
  C     1.39421211 +1    0.0000000 +0    0.0000000 +0     1     0     0
  C     1.40131829 +1  120.7163487 +1    0.0000000 +0     2     1     0
  C     1.39530340 +1  119.4172634 +1    0.6155080 +1     3     2     1
  C     1.39846296 +1  119.0878656 +1   -0.7551253 +1     4     3     2
  C     1.39066034 +1  120.5158905 +1   -0.1049525 +1     1     2     3
  H     1.08975974 +1  119.6496547 +1  179.8539905 +1     1     2     3
  H     1.09196533 +1  119.6034796 +1  179.4199300 +1     2     1     3
  H     1.09485926 +1  119.8388934 +1  179.4902905 +1     4     3     2
  H     1.09380842 +1  120.5691484 +1  179.6387034 +1     6     1     2
  N     1.44405933 +1  119.1173298 +1 -178.5525541 +1     5     4     3
  O     1.22075835 +1  119.3868378 +1  177.1303281 +1    11     5     4
  O     1.22508130 +1  118.9141409 +1   -2.9626187 +1    11     5     4
  C     1.45939351 +1  120.9007027 +1 -177.5847704 +1     3     2     1
  C     1.48670887 +1  118.7882441 +1   72.9622679 +1    14     3     2
  H     1.09934842 +1  112.6337295 +1 -139.2281921 +1    15    14     3
  H     1.10348839 +1  110.2354901 +1  101.3759005 +1    15    14     3
  H     1.09681474 +1  112.1108491 +1  -17.1161819 +1    15    14     3
  N     1.33314409 +1  120.5898122 +1 -115.5340725 +1    14     3     2
  O     1.26145025 +1  122.5926808 +1  178.1498304 +1    19    14     3
  O     1.25890377 +1  120.7773346 +1    0.9907427 +1    19    14     3
  H     2.22795037 +1  100.1218033 +1  -27.5861946 +1    14     3     2
  C     4.13803784 +1  136.2050465 +1 -111.5176479 +1    18    15    14
  C     1.46820999 +1  131.1147639 +1  -25.3079980 +1    23    18    15
  C     1.53286560 +1  113.0338447 +1   75.4681945 +1    24    23    18
  C     1.52625132 +1  111.0155595 +1  -43.8777208 +1    25    24    23
  N     1.51289388 +1  109.6072725 +1   60.1546830 +1    26    25    24
  C     1.47327681 +1   35.0830571 +1   63.3887901 +1    23    18    15
  H     1.07719674 +1   96.7827689 +1 -164.9407690 +1    23    18    15
  H     1.11308490 +1  111.3370676 +1 -160.7058929 +1    24    23    18
  H     1.12197403 +1  108.5066290 +1  -46.7707895 +1    24    23    18
  H     1.10917968 +1  110.3076694 +1 -165.8930760 +1    25    24    23
  H     1.11048008 +1  110.1089861 +1   79.1851713 +1    25    24    23
  H     1.11361701 +1  111.0507861 +1 -179.7001462 +1    26    25    24
  H     1.11719534 +1  111.0975795 +1  -60.6302417 +1    26    25    24
  H     1.04327450 +1  109.1369680 +1   57.8559320 +1    27    26    25
  H     1.12108511 +1  111.2436533 +1   85.6871797 +1    28    23    18
  H     1.12694081 +1  109.2086412 +1  -31.7333061 +1    28    23    18
  H     1.06406670 +1  110.3766975 +1  176.1168324 +1    27    26    25
  H     1.54876194 +1  149.1268866 +1  -16.2331090 +1    22    14     3
  O     0.96863482 +1   36.9892262 +1  140.2533904 +1    40    22    14

 *+*+*+*+*+*+*+*+*+*+*+*+*+*+*+*+*+*+*+*+*+*+*+*+*+*+*+*+*+*+*+*+*+*+*+*+*+*+*+*+
            BAR SHORTENED BY       1.000 PERCENT
 GRADIENT CRITERION IN FLEPO =    10.000


          FOR POINT   17 SECOND STRUCTURE
 DISTANCE A - B      3.400421
 HEAT              -80.886101
 GRADIENT NORM      21.417599
 DIRECTION COSINE    0.263161
* ===============================
* Input file for Mopac
* ===============================
 PM7 BONDS AUX DUMP=30M ITRY=15000 T=14D CHARGE=0 DOUBLET eps=78.4 RELSCF=1


  C     0.00000000 +0    0.0000000 +0    0.0000000 +0     0     0     0
  C     1.40338769 +1    0.0000000 +0    0.0000000 +0     1     0     0
  C     1.39678458 +1  120.5172280 +1    0.0000000 +0     2     1     0
  C     1.39677911 +1  119.5579392 +1    0.9207274 +1     3     2     1
  C     1.39889701 +1  119.1470338 +1   -1.2051495 +1     4     3     2
  C     1.38741120 +1  120.4235419 +1   -0.0619471 +1     1     2     3
  H     1.09214743 +1  119.5493153 +1  179.2397714 +1     1     2     3
  H     1.08937657 +1  119.0843162 +1 -179.9459776 +1     2     1     3
  H     1.09668091 +1  119.8691581 +1  179.4938896 +1     4     3     2
  H     1.09582988 +1  120.4305560 +1  179.6331223 +1     6     1     2
  N     1.44022365 +1  119.0641530 +1 -178.6715483 +1     5     4     3
  O     1.22484715 +1  119.4186298 +1  177.2605860 +1    11     5     4
  O     1.22172141 +1  119.2498381 +1   -2.3420306 +1    11     5     4
  C     1.45899942 +1  120.9692600 +1 -177.6109536 +1     3     2     1
  C     1.48623889 +1  118.7253610 +1   73.3159405 +1    14     3     2
  H     1.09477099 +1  112.8206068 +1 -139.5868964 +1    15    14     3
  H     1.10765284 +1  109.9407850 +1  101.3749776 +1    15    14     3
  H     1.09798505 +1  112.1763409 +1  -16.8578566 +1    15    14     3
  N     1.33153522 +1  120.6764197 +1 -114.8108202 +1    14     3     2
  O     1.26259024 +1  122.6411460 +1  177.4987494 +1    19    14     3
  O     1.25974551 +1  120.8626467 +1    0.1544480 +1    19    14     3
  H     2.23102869 +1   99.8619993 +1  -26.9349824 +1    14     3     2
  C     4.13987572 +1  136.1481822 +1 -111.3621984 +1    18    15    14
  C     1.47070059 +1  131.0414419 +1  -25.9624909 +1    23    18    15
  C     1.53384587 +1  112.8155406 +1   75.9950697 +1    24    23    18
  C     1.52713367 +1  110.9201088 +1  -44.0846945 +1    25    24    23
  N     1.51276608 +1  109.6323891 +1   60.2989167 +1    26    25    24
  C     1.47133979 +1   35.1235733 +1   63.0771381 +1    23    18    15
  H     1.07835785 +1   96.8274245 +1 -165.0847091 +1    23    18    15
  H     1.11536491 +1  111.2708741 +1 -160.1062271 +1    24    23    18
  H     1.11997032 +1  108.7873619 +1  -46.2986401 +1    24    23    18
  H     1.11240707 +1  110.1688228 +1 -165.8845165 +1    25    24    23
  H     1.10750352 +1  110.1122171 +1   79.2537439 +1    25    24    23
  H     1.11549940 +1  110.8283085 +1 -179.6040894 +1    26    25    24
  H     1.11423430 +1  111.1938088 +1  -60.6440434 +1    26    25    24
  H     1.04212790 +1  109.0412978 +1   57.8846753 +1    27    26    25
  H     1.12110663 +1  111.1598079 +1   85.8118805 +1    28    23    18
  H     1.12514207 +1  109.2624951 +1  -31.8300621 +1    28    23    18
  H     1.06328722 +1  110.4075438 +1  176.0448004 +1    27    26    25
  H     1.55156192 +1  149.1195421 +1  -16.7356083 +1    22    14     3
  O     0.96735453 +1  157.6082054 +1   70.8434899 +1    22    14     3

 TIME=     2.22
  REACTANTS AND PRODUCTS SWAPPED AROUND
 *+*+*+*+*+*+*+*+*+*+*+*+*+*+*+*+*+*+*+*+*+*+*+*+*+*+*+*+*+*+*+*+*+*+*+*+*+*+*+*+
            BAR SHORTENED BY       0.000 PERCENT
 GRADIENT CRITERION IN FLEPO =    10.000


          FOR POINT   18 FIRST  STRUCTURE
 DISTANCE A - B      3.400421
 HEAT              -72.668847
 GRADIENT NORM       6.469668
 DIRECTION COSINE   -0.288336
* ===============================
* Input file for Mopac
* ===============================
 PM7 BONDS AUX DUMP=30M ITRY=15000 T=14D CHARGE=0 DOUBLET eps=78.4 RELSCF=1


  C     0.00000000 +0    0.0000000 +0    0.0000000 +0     0     0     0
  C     1.39406038 +1    0.0000000 +0    0.0000000 +0     1     0     0
  C     1.39771903 +1  120.3840582 +1    0.0000000 +0     2     1     0
  C     1.39244497 +1  120.0537619 +1    0.8271085 +1     3     2     1
  C     1.39932841 +1  118.9181162 +1   -0.0766065 +1     4     3     2
  C     1.39089769 +1  120.3661904 +1   -0.7669747 +1     1     2     3
  H     1.09461262 +1  119.7732476 +1  179.2087295 +1     1     2     3
  H     1.09722840 +1  119.3701452 +1 -179.5540044 +1     2     1     3
  H     1.09791109 +1  120.6366559 +1  179.6472226 +1     4     3     2
  H     1.09701751 +1  120.2779053 +1 -179.9375916 +1     6     1     2
  N     1.44178609 +1  118.9324708 +1  179.6602425 +1     5     4     3
  O     1.22394782 +1  119.0831942 +1 -178.9627767 +1    11     5     4
  O     1.22341410 +1  119.2022040 +1    0.8614055 +1    11     5     4
  C     1.50298728 +1  118.7323821 +1 -178.0123974 +1     3     2     1
  C     1.52387175 +1  112.2389433 +1  123.3865343 +1    14     3     2
  H     1.10100475 +1  111.8587386 +1 -169.9351734 +1    15    14     3
  H     1.10048007 +1  113.2000679 +1   68.4519489 +1    15    14     3
  H     1.10299113 +1  110.5953250 +1  -50.8656620 +1    15    14     3
  N     1.50343217 +1  109.8796091 +1 -116.0423591 +1    14     3     2
  O     1.22168722 +1  117.9483224 +1  132.3532556 +1    19    14     3
  O     1.21880855 +1  119.5879682 +1  -48.1198575 +1    19    14     3
  H     1.13960148 +1  110.2500424 +1    1.2803574 +1    14     3     2
  C     4.59872958 +1  137.2533536 +1  -72.7125768 +1    18    15    14
  C     1.47089010 +1  128.6828168 +1  -50.9215503 +1    23    18    15
  C     1.53689703 +1  113.3914935 +1   87.2346820 +1    24    23    18
  C     1.53662172 +1  110.7865293 +1  -40.9793489 +1    25    24    23
  N     1.48274240 +1  111.5158339 +1   57.9898830 +1    26    25    24
  C     1.47829966 +1   46.0424172 +1   47.5881282 +1    23    18    15
  H     1.07317786 +1   91.2090817 +1  178.5652298 +1    23    18    15
  H     1.11137773 +1  111.1038885 +1 -149.1632203 +1    24    23    18
  H     1.11673860 +1  108.4740836 +1  -34.7447452 +1    24    23    18
  H     1.10578115 +1  110.5433963 +1 -163.1534117 +1    25    24    23
  H     1.10363830 +1  109.8151295 +1   80.7751241 +1    25    24    23
  H     1.11191104 +1  110.6892297 +1  178.4873336 +1    26    25    24
  H     1.11131760 +1  110.6076539 +1  -63.2953151 +1    26    25    24
  H     1.02483088 +1  109.6280022 +1   59.4668317 +1    27    26    25
  H     1.11597503 +1  111.6013447 +1   86.9134574 +1    28    23    18
  H     1.12100812 +1  108.9009966 +1  -29.5715524 +1    28    23    18
  H     1.88824253 +1  111.4137009 +1 -176.0649264 +1    27    26    25
  H     1.53773406 +1  139.6067801 +1 -128.0770477 +1    39    27    26
  O     0.96044562 +1   38.3670636 +1 -178.5844938 +1    40    39    27

 TIME=     0.24
  REACTANTS AND PRODUCTS SWAPPED AROUND
 *+*+*+*+*+*+*+*+*+*+*+*+*+*+*+*+*+*+*+*+*+*+*+*+*+*+*+*+*+*+*+*+*+*+*+*+*+*+*+*+
            BAR SHORTENED BY       1.000 PERCENT
 GRADIENT CRITERION IN FLEPO =     3.470


          FOR POINT   19 SECOND STRUCTURE
 DISTANCE A - B      3.366417
 HEAT              -81.040064
 GRADIENT NORM       9.540716
 DIRECTION COSINE   -0.125676
* ===============================
* Input file for Mopac
* ===============================
 PM7 BONDS AUX DUMP=30M ITRY=15000 T=14D CHARGE=0 DOUBLET eps=78.4 RELSCF=1


  C     0.00000000 +0    0.0000000 +0    0.0000000 +0     0     0     0
  C     1.39312159 +1    0.0000000 +0    0.0000000 +0     1     0     0
  C     1.40020964 +1  120.7062455 +1    0.0000000 +0     2     1     0
  C     1.39555012 +1  119.4595230 +1    0.8465013 +1     3     2     1
  C     1.39862394 +1  119.0551835 +1   -1.0095340 +1     4     3     2
  C     1.38988029 +1  120.5100516 +1   -0.1412655 +1     1     2     3
  H     1.09182800 +1  119.6935836 +1 -179.7482182 +1     1     2     3
  H     1.08982624 +1  119.2651357 +1  179.4601903 +1     2     1     3
  H     1.09555533 +1  119.7870306 +1  179.5482348 +1     4     3     2
  H     1.09199376 +1  120.6005565 +1  179.8444284 +1     6     1     2
  N     1.44161869 +1  118.9377618 +1 -178.7244679 +1     5     4     3
  O     1.22582939 +1  119.3815382 +1  177.2104207 +1    11     5     4
  O     1.22317128 +1  119.1814335 +1   -2.4159079 +1    11     5     4
  C     1.46143927 +1  121.1467896 +1 -177.6230940 +1     3     2     1
  C     1.48724342 +1  118.6010785 +1   73.6791102 +1    14     3     2
  H     1.09902018 +1  112.7488283 +1 -139.7105185 +1    15    14     3
  H     1.10428834 +1  110.0907209 +1  101.1357867 +1    15    14     3
  H     1.09836190 +1  112.2474743 +1  -17.3930286 +1    15    14     3
  N     1.33337494 +1  120.6209892 +1 -114.6524905 +1    14     3     2
  O     1.26219999 +1  122.1238480 +1  177.2374586 +1    19    14     3
  O     1.26185071 +1  120.9181951 +1   -0.1185116 +1    19    14     3
  H     2.23727968 +1   99.5484058 +1  -26.8264331 +1    14     3     2
  C     4.14209496 +1  136.4960315 +1 -111.1004771 +1    18    15    14
  C     1.46764517 +1  130.9331231 +1  -26.0445999 +1    23    18    15
[...]
    111         37  H    CARTESIAN Z     0.525511     -0.338818  KCAL/ANGSTROM
    112         38  H    CARTESIAN X     2.163905     -0.192637  KCAL/ANGSTROM
    113         38  H    CARTESIAN Y    -4.487627     -0.085345  KCAL/ANGSTROM
    114         38  H    CARTESIAN Z    -0.681167     -0.094780  KCAL/ANGSTROM
    115         39  H    CARTESIAN X     3.397842      1.181585  KCAL/ANGSTROM
    116         39  H    CARTESIAN Y    -2.949769     -0.747977  KCAL/ANGSTROM
    117         39  H    CARTESIAN Z    -1.973234      0.501910  KCAL/ANGSTROM
    118         40  H    CARTESIAN X     3.109133      0.153893  KCAL/ANGSTROM
    119         40  H    CARTESIAN Y    -1.307510      0.026508  KCAL/ANGSTROM
    120         40  H    CARTESIAN Z    -2.597224      0.217463  KCAL/ANGSTROM
    121         41  O    CARTESIAN X     2.673211      1.176072  KCAL/ANGSTROM
    122         41  O    CARTESIAN Y    -2.155525     -0.014004  KCAL/ANGSTROM
    123         41  O    CARTESIAN Z    -2.670590      0.271346  KCAL/ANGSTROM




   ATOM   CHEMICAL          X               Y               Z
  NUMBER   SYMBOL      (ANGSTROMS)     (ANGSTROMS)     (ANGSTROMS)

     1       C          0.89068343  *   0.43481178  *   0.63849971  *
     2       C          1.01985729  *  -0.41941420  *  -0.45538092  *
     3       C         -0.10722822  *  -0.96647009  *  -1.07706809  *
     4       C         -1.37915659  *  -0.65042346  *  -0.59062466  *
     5       C         -1.49454101  *   0.20706033  *   0.50893441  *
     6       C         -0.36805210  *   0.75756048  *   1.13195028  *
     7       H          1.78426940  *   0.85258888  *   1.11173587  *
     8       H          2.02117475  *  -0.65739388  *  -0.82609194  *
     9       H         -2.27344415  *  -1.06693152  *  -1.06781610  *
    10       H         -0.47108949  *   1.42929676  *   1.99107982  *
    11       N         -2.80150734  *   0.53388505  *   1.02496071  *
    12       O         -2.89474244  *   1.28936762  *   1.98360505  *
    13       O         -3.79409003  *   0.04841517  *   0.49819748  *
    14       C          0.06342040  *  -1.88224498  *  -2.23019999  *
    15       C         -0.30280930  *  -3.31781504  *  -1.94253220  *
    16       H         -0.00519411  *  -3.99260283  *  -2.75506977  *
    17       H         -1.38688018  *  -3.43806128  *  -1.79310381  *
    18       H          0.18570564  *  -3.67836407  *  -1.02813910  *
    19       N         -0.46462883  *  -1.39213308  *  -3.44812696  *
    20       O         -0.48307244  *  -2.10448593  *  -4.45735997  *
    21       O         -0.86752836  *  -0.22716558  *  -3.52999378  *
    22       H          1.49455634  *  -2.00280360  *  -2.46328381  *
    23       C          3.59246428  *  -5.39381565  *   0.59835739  *
    24       C          4.46367027  *  -6.40885971  *  -0.00554329  *
    25       C          5.44470143  *  -5.80305273  *  -1.01652420  *
    26       C          4.72766386  *  -4.82285132  *  -1.95382647  *
    27       N          4.07830030  *  -3.70062918  *  -1.19938358  *
    28       C          3.12391807  *  -4.21954482  *  -0.16006588  *
    29       H          3.20847768  *  -5.54563487  *   1.59166212  *
    30       H          5.02220132  *  -6.97823351  *   0.77058564  *
    31       H          3.82942458  *  -7.18008369  *  -0.50951212  *
    32       H          5.92957158  *  -6.60680314  *  -1.60757276  *
    33       H          6.27094818  *  -5.29797064  *  -0.48007390  *
    34       H          5.45348853  *  -4.38259844  *  -2.67570091  *
    35       H          3.94887697  *  -5.35193742  *  -2.54902756  *
    36       H          4.81362610  *  -3.13263199  *  -0.74050967  *
    37       H          2.87961793  *  -3.36890945  *   0.52551114  *
    38       H          2.16390495  *  -4.48762672  *  -0.68116663  *
    39       H          3.39784212  *  -2.94976887  *  -1.97323447  *
    40       H          3.10913267  *  -1.30750953  *  -2.59722390  *
    41       O          2.67321050  *  -2.15552472  *  -2.67059038  *

                             CARTESIAN COORDINATES

   1    C        0.890683434     0.434811779     0.638499706
   2    C        1.019857290    -0.419414199    -0.455380923
   3    C       -0.107228218    -0.966470094    -1.077068089
   4    C       -1.379156592    -0.650423455    -0.590624655
   5    C       -1.494541009     0.207060327     0.508934406
   6    C       -0.368052097     0.757560484     1.131950283
   7    H        1.784269405     0.852588883     1.111735871
   8    H        2.021174751    -0.657393879    -0.826091938
   9    H       -2.273444148    -1.066931518    -1.067816097
  10    H       -0.471089490     1.429296761     1.991079822
  11    N       -2.801507339     0.533885051     1.024960709
  12    O       -2.894742436     1.289367617     1.983605052
  13    O       -3.794090029     0.048415166     0.498197481
  14    C        0.063420395    -1.882244981    -2.230199995
  15    C       -0.302809303    -3.317815040    -1.942532196
  16    H       -0.005194110    -3.992602831    -2.755069773
  17    H       -1.386880175    -3.438061280    -1.793103805
  18    H        0.185705645    -3.678364074    -1.028139101
  19    N       -0.464628832    -1.392133075    -3.448126962
  20    O       -0.483072441    -2.104485929    -4.457359968
  21    O       -0.867528363    -0.227165581    -3.529993782
  22    H        1.494556336    -2.002803601    -2.463283807
  23    C        3.592464284    -5.393815649     0.598357393
  24    C        4.463670269    -6.408859711    -0.005543292
  25    C        5.444701427    -5.803052729    -1.016524198
  26    C        4.727663861    -4.822851325    -1.953826470
  27    N        4.078300301    -3.700629175    -1.199383582
  28    C        3.123918069    -4.219544824    -0.160065878
  29    H        3.208477679    -5.545634872     1.591662116
  30    H        5.022201319    -6.978233505     0.770585644
  31    H        3.829424579    -7.180083687    -0.509512123
  32    H        5.929571576    -6.606803143    -1.607572760
  33    H        6.270948178    -5.297970638    -0.480073902
  34    H        5.453488534    -4.382598443    -2.675700905
  35    H        3.948876965    -5.351937418    -2.549027564
  36    H        4.813626096    -3.132631994    -0.740509673
  37    H        2.879617933    -3.368909450     0.525511144
  38    H        2.163904950    -4.487626716    -0.681166627
  39    H        3.397842121    -2.949768870    -1.973234468
  40    H        3.109132667    -1.307509530    -2.597223901
  41    O        2.673210503    -2.155524721    -2.670590376


           Empirical Formula: C13 H20 N3 O5  =    41 atoms



      MOLECULAR POINT GROUP   :   C1  


          ALPHA EIGENVALUES  
 -37.48890 -36.94735 -36.69665 -31.39926 -30.80681 -29.71858 -28.89950 -28.63186
 -27.63346 -27.55212 -26.52573 -25.95315 -24.73870 -24.67098 -23.28801 -22.11026
 -21.70309 -21.41629 -20.30186 -19.68957 -19.12156 -18.40817 -18.19935 -17.81357
 -17.63208 -17.60624 -17.07617 -16.92859 -16.73103 -16.16489 -15.97243 -15.79133
 -15.61549 -15.24088 -15.05731 -14.82813 -14.45875 -14.17396 -13.94341 -13.76604
 -13.57237 -13.49333 -13.13247 -12.98205 -12.57525 -12.44147 -12.17523 -11.96908
 -11.94572 -11.83526 -11.69196 -11.59512 -11.41099 -11.34681 -11.26583 -10.61317
 -10.29432  -9.56602  -9.16523  -1.40615  -0.41934   0.06712   0.27183   0.48611
   1.30932   1.66506   1.95623   3.07065   3.25526   3.37969   3.49113   3.66141
   3.74304   3.83550   4.03338   4.15330   4.20420   4.27572   4.39986   4.47959
   4.53227   4.70532   4.74124   4.97338   5.00995   5.09429   5.11075   5.30120
   5.32827   5.46907   5.52013   5.58537   5.60080   5.68924   5.71443   5.73481
   5.77511   5.87614   6.01703   6.09104   6.23205   6.35069   6.46902   6.85158


           BETA EIGENVALUES 
 -37.48890 -36.92021 -36.69642 -31.39925 -30.80680 -29.71870 -28.89098 -28.54776
 -27.62862 -27.55207 -26.40931 -25.95263 -24.73836 -24.66978 -23.22539 -22.11005
 -21.59912 -21.41535 -20.30087 -19.54758 -19.12074 -18.40385 -18.16137 -17.80898
 -17.62997 -17.60596 -17.04143 -16.89708 -16.73042 -16.15988 -15.91997 -15.78714
 -15.45788 -15.12126 -15.05457 -14.61862 -14.43943 -14.14712 -13.87000 -13.74258
 -13.56174 -13.47230 -13.09798 -12.94088 -12.52022 -12.44137 -12.07983 -11.94570
 -11.87068 -11.83524 -11.69170 -11.59531 -11.41077 -11.33866 -11.22755 -10.61314
 -10.29425  -9.56387  -1.40621  -0.41934   0.06458   0.27184   0.34593   0.48628
   1.30938   1.72307   1.95625   3.07078   3.28034   3.41876   3.50276   3.66385
   3.75182   3.94023   4.14833   4.18433   4.22434   4.30520   4.40289   4.48381
   4.67186   4.74125   4.88873   4.97393   5.03958   5.09702   5.11481   5.35653
   5.38078   5.46935   5.53793   5.59530   5.61483   5.70068   5.72150   5.73632
   5.78554   5.87637   6.06433   6.21908   6.28897   6.38669   6.46952   6.85288


              NET ATOMIC CHARGES AND DIPOLE CONTRIBUTIONS

  ATOM NO.   TYPE          CHARGE      No. of ELECS.   s-Pop       p-Pop       
    1          C          -0.166163        4.1662     1.08655     3.07962
    2          C          -0.093661        4.0937     1.09903     2.99463
    3          C           0.008277        3.9917     1.06393     2.92780
    4          C          -0.085906        4.0859     1.09648     2.98943
    5          C          -0.088961        4.0890     1.06892     3.02004
    6          C          -0.083304        4.0833     1.09428     2.98902
    7          H           0.178158        0.8218     0.82184
    8          H           0.169674        0.8303     0.83033
    9          H           0.197056        0.8029     0.80294
   10          H           0.192217        0.8078     0.80778
   11          N           0.678158        4.3218     1.44673     2.87511
   12          O          -0.463132        6.4631     1.94065     4.52249
   13          O          -0.460337        6.4603     1.94050     4.51984
   14          C          -0.340896        4.3409     1.10340     3.23750
   15          C          -0.416087        4.4161     1.04845     3.36763
   16          H           0.162798        0.8372     0.83720
   17          H           0.159982        0.8400     0.84002
   18          H           0.156362        0.8436     0.84364
   19          N           0.709892        4.2901     1.44849     2.84162
   20          O          -0.556995        6.5570     1.94131     4.61569
   21          O          -0.560934        6.5609     1.94110     4.61984
   22          H           0.423178        0.5768     0.57682
   23          C          -0.215163        4.2152     1.11080     3.10436
   24          C          -0.283434        4.2834     1.04943     3.23401
   25          C          -0.298145        4.2981     1.06282     3.23533
   26          C          -0.145311        4.1453     1.07924     3.06608
   27          N          -0.361170        5.3612     1.58344     3.77773
   28          C          -0.153225        4.1532     1.07053     3.08270
   29          H           0.156034        0.8440     0.84397
   30          H           0.160828        0.8392     0.83917
   31          H           0.174488        0.8255     0.82551
   32          H           0.161956        0.8380     0.83804
   33          H           0.154855        0.8451     0.84514
   34          H           0.167409        0.8326     0.83259
   35          H           0.172255        0.8277     0.82775
   36          H           0.306521        0.6935     0.69348
   37          H           0.177572        0.8224     0.82243
   38          H           0.184548        0.8155     0.81545
   39          H           0.421538        0.5785     0.57846
   40          H           0.377150        0.6229     0.62285
   41          O          -0.878082        6.8781     1.83014     5.04794
 DIPOLE           X         Y         Z       TOTAL
 POINT-CHG.    19.987   -10.251     7.275    23.611
 HYBRID        -0.844     0.664     0.281     1.110
 SUM           19.143    -9.587     7.555    22.703


          ATOMIC ORBITAL ELECTRON POPULATIONS

     Atom    s        px        py        pz   
    1  C   1.08655   1.05629   1.01165   1.01167
    2  C   1.09903   1.07399   0.94528   0.97536
    3  C   1.06393   0.96537   0.97851   0.98392
    4  C   1.09648   1.07208   0.95435   0.96300
    5  C   1.06892   0.86677   1.10046   1.05282
    6  C   1.09428   0.96722   0.99073   1.03108
    7  H   0.82184
    8  H   0.83033
    9  H   0.80294
   10  H   0.80778
   11  N   1.44673   1.00422   0.92780   0.94310
   12  O   1.94065   1.92889   1.36316   1.23044
   13  O   1.94050   1.34402   1.56175   1.61407
   14  C   1.10340   1.39144   0.97895   0.86711
   15  C   1.04845   1.17553   1.01116   1.18094
   16  H   0.83720
   17  H   0.84002
   18  H   0.84364
   19  N   1.44849   0.89768   0.94172   1.00222
   20  O   1.94131   1.68495   1.59273   1.33800
   21  O   1.94110   1.58121   1.11315   1.92547
   22  H   0.57682
   23  C   1.11080   1.04708   0.99274   1.06453
   24  C   1.04943   1.07142   1.06670   1.09589
   25  C   1.06282   1.06900   1.10004   1.06629
   26  C   1.07924   1.09699   0.95574   1.01335
   27  N   1.58344   1.26085   1.24415   1.27274
   28  C   1.07053   1.00581   1.07637   1.00052
   29  H   0.84397
   30  H   0.83917
   31  H   0.82551
   32  H   0.83804
   33  H   0.84514
   34  H   0.83259
   35  H   0.82775
   36  H   0.69348
   37  H   0.82243
   38  H   0.81545
   39  H   0.57846
   40  H   0.62285
   41  O   1.83014   1.61558   1.52124   1.91112


                    (SZ)    =    0.500000
                    (S**2)  =    0.753701


          ATOMIC ORBITAL SPIN POPULATIONS

    Atom   Total    s     px     py     pz   
         Atomic
    1  C  0.0000  0.000  0.000  0.000  0.000
    2  C -0.0001 -0.000 -0.000 -0.000 -0.000
    3  C  0.0001  0.000  0.000  0.000  0.000
    4  C -0.0000 -0.000 -0.000 -0.000 -0.000
    5  C  0.0000  0.000  0.000  0.000  0.000
    6  C -0.0001 -0.000 -0.000 -0.000 -0.000
    7  H -0.0000 -0.000
    8  H  0.0000  0.000
    9  H  0.0000  0.000
   10  H  0.0000  0.000
   11  N -0.0000 -0.000 -0.000 -0.000 -0.000
   12  O  0.0000  0.000  0.000  0.000  0.000
   13  O  0.0000 -0.000 -0.000  0.000  0.000
   14  C  0.0000  0.000  0.000 -0.000 -0.000
   15  C  0.0002  0.000  0.000  0.000  0.000
   16  H -0.0000 -0.000
   17  H -0.0000 -0.000
   18  H -0.0001 -0.000
   19  N  0.0000  0.000  0.000 -0.000 -0.000
   20  O -0.0000 -0.000 -0.000 -0.000 -0.000
   21  O -0.0000 -0.000 -0.000 -0.000 -0.000
   22  H -0.0000 -0.000
   23  C  0.9984  0.026  0.570  0.252  0.151
   24  C -0.0429 -0.006 -0.012 -0.019 -0.006
   25  C  0.0140  0.002  0.005  0.002  0.005
   26  C -0.0018 -0.000 -0.000 -0.001 -0.001
   27  N  0.0121  0.002  0.003  0.002  0.005
   28  C -0.0451 -0.006 -0.016 -0.019 -0.004
   29  H -0.0283 -0.028
   30  H  0.0101  0.010
   31  H  0.0390  0.039
   32  H -0.0009 -0.001
   33  H -0.0006 -0.001
   34  H  0.0007  0.001
   35  H  0.0001  0.000
   36  H  0.0005  0.001
   37  H  0.0113  0.011
   38  H  0.0338  0.034
   39  H -0.0005 -0.000
   40  H -0.0000 -0.000
   41  O  0.0001 -0.000  0.000  0.000  0.000

          BONDING CONTRIBUTION OF EACH ALPHA M.O.

  0.6738  0.6863  0.6790  0.9422  0.4995  0.4926  0.7899  0.9385  0.5582  0.7323
  0.9688  0.8119  0.6101  0.7097  0.9565  0.8605  0.9759  0.7456  0.6971  0.9279
  0.7717  0.6849  0.8324  0.6661  0.7061  0.7387  0.8758  0.9018  0.8427  0.7556
  0.9397  0.9494  0.9039  0.8715  0.9738  0.9012  0.9140  0.8723  0.9887  0.8920
  0.8484  0.9405  0.7959  0.8245  0.6901  0.9693  0.9403  0.9417  0.4235  0.1449
  0.3359  0.3641  0.1807  0.4038  0.5865  0.9446  0.9996  0.5524  0.2379 -1.0876
 -0.9682 -1.1815 -1.0985 -1.0596 -1.0505 -0.9568 -0.9948 -0.9783 -0.9453 -0.9432
 -0.9764 -0.9835 -0.9729 -1.0034 -0.9768 -1.0213 -0.9795 -0.9878 -0.9893 -0.9844
 -0.9823 -0.9749 -0.9858 -0.9951 -0.9718 -0.9829 -0.9842 -0.9872 -0.9679 -0.9730
 -0.9656 -0.9646 -0.9754 -0.9806 -0.9766 -0.9780 -0.9792 -0.9744 -0.9493 -0.9281
 -0.9708 -0.9675 -0.8563 -0.9518

          BONDING CONTRIBUTION OF EACH BETA  M.O.

  0.6738  0.6893  0.6790  0.9422  0.4995  0.4926  0.7842  0.9497  0.5622  0.7318
  0.9756  0.8116  0.6105  0.7096  0.9654  0.8606  0.9790  0.7479  0.6967  0.9430
  0.7721  0.6770  0.8387  0.6686  0.7115  0.7367  0.8778  0.9031  0.8439  0.7517
  0.9399  0.9539  0.9494  0.9312  0.9717  0.9543  0.9433  0.8869  0.9844  0.8925
  0.8559  0.9226  0.8545  0.7564  0.7076  0.9693  0.9823  0.4235  0.9654  0.1453
  0.3364  0.3640  0.1772  0.3578  0.6543  0.9446  0.9997  0.5524 -1.0876 -0.9682
 -1.1729 -1.0984 -0.2879 -1.0588 -1.0504 -0.9203 -0.9948 -0.9783 -0.9388 -0.9366
 -0.9717 -0.9830 -0.9688 -0.9975 -1.0127 -0.9892 -0.9789 -0.9842 -0.9895 -0.9834
 -0.9334 -0.9858 -0.9819 -0.9952 -0.9652 -0.9837 -0.9845 -0.9607 -0.9622 -0.9733
 -0.9595 -0.9690 -0.9650 -0.9752 -0.9761 -0.9777 -0.9731 -0.9744 -0.9085 -0.9689
 -0.9763 -0.9527 -0.8564 -0.9513





            (VALENCIES)   BOND ORDERS

     1  C     (3.968)     6  C 1.462     2  C 1.429     7  H 0.955     4  C 0.102

     2  C     (3.964)     1  C 1.429     3  C 1.414     8  H 0.954     5  C 0.105

     3  C     (3.993)     4  C 1.435     2  C 1.414    14  C 1.000     6  C 0.103

     4  C     (3.954)     3  C 1.435     5  C 1.385     9  H 0.946     1  C 0.102    12  O 0.019    13  O 0.012
                          6  C 0.010

     5  C     (3.931)     4  C 1.385     6  C 1.375    11  N 0.909     2  C 0.105    13  O 0.068    12  O 0.068

     6  C     (3.956)     1  C 1.462     5  C 1.375    10  H 0.949     3  C 0.103    13  O 0.019    12  O 0.012
                          4  C 0.010

     7  H     (0.968)     1  C 0.955

     8  H     (0.971)     2  C 0.954

     9  H     (0.961)     4  C 0.946

    10  H     (0.963)     6  C 0.949

    11  N     (3.783)    13  O 1.421    12  O 1.421     5  C 0.909

    12  O     (1.813)    11  N 1.421    13  O 0.284     5  C 0.068     4  C 0.019     6  C 0.012

    13  O     (1.814)    11  N 1.421    12  O 0.284     5  C 0.068     6  C 0.019     4  C 0.012

    14  C     (3.652)     3  C 1.000    19  N 0.998    15  C 0.980    22  H 0.378    21  O 0.096    20  O 0.093
                         41  O 0.062

    15  C     (3.917)    14  C 0.980    17  H 0.965    16  H 0.964    18  H 0.961    21  O 0.012

    16  H     (0.973)    15  C 0.964

    17  H     (0.974)    15  C 0.965

    18  H     (0.976)    15  C 0.961

    19  N     (3.772)    20  O 1.361    21  O 1.359    14  C 0.998    22  H 0.011    41  O 0.010

    20  O     (1.722)    19  N 1.361    21  O 0.236    14  C 0.093

    21  O     (1.723)    19  N 1.359    20  O 0.236    14  C 0.096    15  C 0.012

    22  H     (0.821)    41  O 0.405    14  C 0.378    19  N 0.011

    23  C     (3.968)    24  C 1.037    28  C 1.033    29  H 0.962

    24  C     (3.954)    23  C 1.037    25  C 0.994    30  H 0.956    31  H 0.935

    25  C     (3.950)    26  C 1.004    24  C 0.994    33  H 0.965    32  H 0.960

    26  C     (3.899)    25  C 1.004    35  H 0.959    34  H 0.958    27  N 0.936

    27  N     (3.358)    26  C 0.936    28  C 0.935    36  H 0.880    39  H 0.494    41  O 0.069

    28  C     (3.906)    23  C 1.033    37  H 0.949    27  N 0.935    38  H 0.933

    29  H     (0.976)    23  C 0.962

    30  H     (0.974)    24  C 0.956

    31  H     (0.970)    24  C 0.935

    32  H     (0.974)    25  C 0.960

    33  H     (0.976)    25  C 0.965

    34  H     (0.972)    26  C 0.958

    35  H     (0.970)    26  C 0.959

    36  H     (0.906)    27  N 0.880

    37  H     (0.968)    28  C 0.949

    38  H     (0.966)    28  C 0.933

    39  H     (0.822)    27  N 0.494    41  O 0.307

    40  H     (0.858)    41  O 0.844

    41  O     (1.725)    40  H 0.844    22  H 0.405    39  H 0.307    27  N 0.069    14  C 0.062    19  N 0.010


 **********************
 *                    *
 * JOB ENDED NORMALLY *
 *                    *
 **********************



 TOTAL JOB TIME:           237.96 SECONDS

 == MOPAC DONE ==
