 *******************************************************************************
 **                                                                           **
 **                              MOPAC v22.0.6                                **
 **                                                                           **
 *******************************************************************************
 **          Digital Object Identifier (DOI): 10.5281/zenodo.6511958          **
 **    Visit the DOI location for information on how to cite this program.    **
 *******************************************************************************

                              PM7 CALCULATION RESULTS

 *******************************************************************************
 *  CALCULATION DONE:                                Tue Mar 26 11:09:48 2024  *
 *  PM7        - The PM7 Hamiltonian to be used
 *  SINGLET    - SPIN STATE DEFINED AS A SINGLET
 *
 *
 *
 *                 CHARGE ON SYSTEM = 0
 *
 *
 *
 *  EPS=78.4   - USE ANDREAS KLAMT'S COSMO IMPLICIT SOLVATION MODEL
 *  T=         - A TIME OF 14.0 DAYS REQUESTED
 *  DUMP=N     - RESTART FILE WRITTEN EVERY 30.0 MINUTES REQUESTED
 *  RELSCF     - DEFAULT SCF CRITERION MULTIPLIED BY 1.0000
 *              (DEFAULT SCF CRITERION = 0.00010)
 *  ITRY=      - DO A MAXIMUM OF 15000 ITERATIONS FOR SCF
 *  AUX        - OUTPUT AUXILIARY INFORMATION
 *  BONDS      - FINAL BOND-ORDER MATRIX TO BE PRINTED
 *******************************************************************************
PM7 BONDS AUX DUMP=30M ITRY=15000 T=14D CHARGE=0 SINGLET eps=78.4 RELSCF=1
 Title: ASE calculation

   ATOM   CHEMICAL          X               Y               Z
  NUMBER   SYMBOL      (ANGSTROMS)     (ANGSTROMS)     (ANGSTROMS)

     1       C          1.93298000  *   2.69557000  *   2.30428000  *
     2       C          1.92529000  *   1.30710000  *   2.19421000  *
     3       C          0.75986000  *   0.64019000  *   1.80692000  *
     4       C         -0.40352000  *   1.37453000  *   1.55427000  *
     5       C         -0.39383000  *   2.76185000  *   1.67002000  *
     6       C          0.77586000  *   3.42440000  *   2.03843000  *
     7       H          2.84884000  *   3.21048000  *   2.59567000  *
     8       H          2.83312000  *   0.75230000  *   2.41883000  *
     9       H         -1.31768000  *   0.85609000  *   1.26623000  *
    10       H          0.78641000  *   4.51045000  *   2.11835000  *
    11       C          0.74966000  *  -0.82002000  *   1.68843000  *
    12       C          0.37051000  *  -1.60890000  *   2.89623000  *
    13       H          0.69167000  *  -2.65984000  *   2.82996000  *
    14       H         -0.72186000  *  -1.62291000  *   3.04368000  *
    15       H          0.80897000  *  -1.18683000  *   3.81088000  *
    16       N          0.62128000  *  -1.39212000  *   0.46004000  *
    17       O          0.83401000  *  -0.72934000  *  -0.57920000  *
    18       O          0.39392000  *  -2.61486000  *   0.33466000  *
    19       N          4.12197000  *  -1.19179000  *   5.01571000  *
    20       C          4.43252000  *  -2.55167000  *   5.52955000  *
    21       C          5.10501000  *  -2.49255000  *   6.91020000  *
    22       C          6.36750000  *  -1.62712000  *   6.84442000  *
    23       C          5.98062000  *  -0.22175000  *   6.37370000  *
    24       C          5.31053000  *  -0.29858000  *   4.99395000  *
    25       H          4.95283000  *   0.71147000  *   4.68961000  *
    26       H          6.05771000  *  -0.61672000  *   4.23464000  *
    27       H          6.87003000  *   0.43252000  *   6.32103000  *
    28       H          5.29496000  *   0.24759000  *   7.10436000  *
    29       H          5.35091000  *  -3.51590000  *   7.24945000  *
    30       H          4.40230000  *  -2.07876000  *   7.65787000  *
    31       H          5.07555000  *  -3.12577000  *   4.82762000  *
    32       H          2.67513000  *  -1.14600000  *   1.74010000  *
    33       H          3.77446000  *  -1.27908000  *   4.05505000  *
    34       H          3.46438000  *  -3.09844000  *   5.60222000  *
    35       H          6.86516000  *  -1.58571000  *   7.83023000  *
    36       H          7.10389000  *  -2.07465000  *   6.15005000  *
    37       H         -1.30308000  *   3.33170000  *   1.47289000  *
    38       H          4.15230000  *  -2.12627000  *   1.36744000  *
    39       H          4.28234000  *  -0.58996000  *   1.09954000  *
    40       O          3.95896000  *  -1.23651000  *   1.81215000  *



          CARTESIAN COORDINATES 

    NO.       ATOM           X           Y           Z

     1         C          1.9330      2.6956      2.3043
     2         C          1.9253      1.3071      2.1942
     3         C          0.7599      0.6402      1.8069
     4         C         -0.4035      1.3745      1.5543
     5         C         -0.3938      2.7618      1.6700
     6         C          0.7759      3.4244      2.0384
     7         H          2.8488      3.2105      2.5957
     8         H          2.8331      0.7523      2.4188
     9         H         -1.3177      0.8561      1.2662
    10         H          0.7864      4.5104      2.1183
    11         C          0.7497     -0.8200      1.6884
    12         C          0.3705     -1.6089      2.8962
    13         H          0.6917     -2.6598      2.8300
    14         H         -0.7219     -1.6229      3.0437
    15         H          0.8090     -1.1868      3.8109
    16         N          0.6213     -1.3921      0.4600
    17         O          0.8340     -0.7293     -0.5792
    18         O          0.3939     -2.6149      0.3347
    19         N          4.1220     -1.1918      5.0157
    20         C          4.4325     -2.5517      5.5296
    21         C          5.1050     -2.4926      6.9102
    22         C          6.3675     -1.6271      6.8444
    23         C          5.9806     -0.2218      6.3737
    24         C          5.3105     -0.2986      4.9939
    25         H          4.9528      0.7115      4.6896
    26         H          6.0577     -0.6167      4.2346
    27         H          6.8700      0.4325      6.3210
    28         H          5.2950      0.2476      7.1044
    29         H          5.3509     -3.5159      7.2495
    30         H          4.4023     -2.0788      7.6579
    31         H          5.0755     -3.1258      4.8276
    32         H          2.6751     -1.1460      1.7401
    33         H          3.7745     -1.2791      4.0550
    34         H          3.4644     -3.0984      5.6022
    35         H          6.8652     -1.5857      7.8302
    36         H          7.1039     -2.0747      6.1501
    37         H         -1.3031      3.3317      1.4729
    38         H          4.1523     -2.1263      1.3674
    39         H          4.2823     -0.5900      1.0995
    40         O          3.9590     -1.2365      1.8121

 General Reference for PM7:
 "Optimization of Parameters for Semiempirical Methods VI: More Modifications to the 
 NDDO Approximations and Re-optimization of Parameters", J. J. P. Stewart, J. Mol. Mod., 1:32, 19 (2013)
 https://link.springer.com/article/10.1007/s00894-012-1667-x

           Empirical Formula: C13 H22 N2 O3  =    40 atoms



      MOLECULAR POINT GROUP   :   C1  


 SINGLET STATE CALCULATION


      RHF CALCULATION, NO. OF DOUBLY OCCUPIED LEVELS = 51


          Geometry optimization using L-BFGS
  SCF CRITERION =    0.1000E-03
 CYCLE:     1 TIME:   0.195 TIME LEFT:  2.00W  GRAD.:    81.154 HEAT: -54.46457
 CYCLE:     2 TIME:   0.055 TIME LEFT:  2.00W  GRAD.:    80.944 HEAT: -54.53638
 CYCLE:     3 TIME:   0.078 TIME LEFT:  2.00W  GRAD.:   214.596 HEAT: -50.35744
 CYCLE:     4 TIME:   0.070 TIME LEFT:  2.00W  GRAD.:    81.013 HEAT: -54.53681
 CYCLE:     5 TIME:   0.070 TIME LEFT:  2.00W  GRAD.:   215.311 HEAT: -50.30965
 CYCLE:     6 TIME:   0.074 TIME LEFT:  2.00W  GRAD.:   168.527 HEAT: -51.71509
 CYCLE:     7 TIME:   0.062 TIME LEFT:  2.00W  GRAD.:    42.406 HEAT: -61.70808
 CYCLE:     8 TIME:   0.062 TIME LEFT:  2.00W  GRAD.:    42.373 HEAT: -63.01985
 CYCLE:     9 TIME:   0.062 TIME LEFT:  2.00W  GRAD.:    19.166 HEAT: -63.76280
 CYCLE:    10 TIME:   0.059 TIME LEFT:  2.00W  GRAD.:    16.382 HEAT: -63.61859
 CYCLE:    11 TIME:   0.055 TIME LEFT:  2.00W  GRAD.:    16.914 HEAT: -63.82555
 CYCLE:    12 TIME:   0.066 TIME LEFT:  2.00W  GRAD.:    49.397 HEAT: -63.78782
 CYCLE:    13 TIME:   0.059 TIME LEFT:  2.00W  GRAD.:    31.331 HEAT: -64.04776
 CYCLE:    14 TIME:   0.062 TIME LEFT:  2.00W  GRAD.:    15.237 HEAT: -64.25347
 CYCLE:    15 TIME:   0.059 TIME LEFT:  2.00W  GRAD.:    11.997 HEAT: -64.38966
 CYCLE:    16 TIME:   0.094 TIME LEFT:  2.00W  GRAD.:    20.186 HEAT: -64.74659
 CYCLE:    17 TIME:   0.059 TIME LEFT:  2.00W  GRAD.:    20.250 HEAT: -65.03690
 CYCLE:    18 TIME:   0.066 TIME LEFT:  2.00W  GRAD.:    80.338 HEAT: -63.65276
 CYCLE:    19 TIME:   0.059 TIME LEFT:  2.00W  GRAD.:    11.163 HEAT: -64.97089
 CYCLE:    20 TIME:   0.059 TIME LEFT:  2.00W  GRAD.:     8.367 HEAT: -65.05616
 CYCLE:    21 TIME:   0.062 TIME LEFT:  2.00W  GRAD.:    12.294 HEAT: -65.14892
 CYCLE:    22 TIME:   0.062 TIME LEFT:  2.00W  GRAD.:    22.194 HEAT: -65.35264
 CYCLE:    23 TIME:   0.070 TIME LEFT:  2.00W  GRAD.:    42.384 HEAT: -65.93737
 CYCLE:    24 TIME:   0.066 TIME LEFT:  2.00W  GRAD.:    60.005 HEAT: -66.64495
 CYCLE:    25 TIME:   0.070 TIME LEFT:  2.00W  GRAD.:   141.110 HEAT: -67.34266
 CYCLE:    26 TIME:   0.062 TIME LEFT:  2.00W  GRAD.:    81.495 HEAT: -69.63346
 CYCLE:    27 TIME:   0.074 TIME LEFT:  2.00W  GRAD.:    91.462 HEAT: -74.45796
 CYCLE:    28 TIME:   0.070 TIME LEFT:  2.00W  GRAD.:   216.780 HEAT: -74.87338
 CYCLE:    29 TIME:   0.074 TIME LEFT:  2.00W  GRAD.:    53.872 HEAT: -80.84413
 CYCLE:    30 TIME:   0.062 TIME LEFT:  2.00W  GRAD.:    46.521 HEAT: -80.96225
 CYCLE:    31 TIME:   0.062 TIME LEFT:  2.00W  GRAD.:    42.062 HEAT: -82.56437
 CYCLE:    32 TIME:   0.066 TIME LEFT:  2.00W  GRAD.:    43.395 HEAT: -81.49413
 CYCLE:    33 TIME:   0.066 TIME LEFT:  2.00W  GRAD.:   119.779 HEAT: -81.58587
 CYCLE:    34 TIME:   0.059 TIME LEFT:  2.00W  GRAD.:    30.047 HEAT: -83.31648
 CYCLE:    35 TIME:   0.059 TIME LEFT:  2.00W  GRAD.:    13.553 HEAT: -83.81701
 CYCLE:    36 TIME:   0.055 TIME LEFT:  2.00W  GRAD.:    13.125 HEAT: -83.88361
 CYCLE:    37 TIME:   0.059 TIME LEFT:  2.00W  GRAD.:    19.443 HEAT: -84.79943
 CYCLE:    38 TIME:   0.059 TIME LEFT:  2.00W  GRAD.:    36.049 HEAT: -85.08949
 CYCLE:    39 TIME:   0.062 TIME LEFT:  2.00W  GRAD.:    18.893 HEAT: -85.57691
 CYCLE:    40 TIME:   0.062 TIME LEFT:  2.00W  GRAD.:    17.065 HEAT: -86.05826
 CYCLE:    41 TIME:   0.062 TIME LEFT:  2.00W  GRAD.:    20.517 HEAT: -86.29532
 CYCLE:    42 TIME:   0.059 TIME LEFT:  2.00W  GRAD.:    20.669 HEAT: -86.46662
 CYCLE:    43 TIME:   0.059 TIME LEFT:  2.00W  GRAD.:    11.781 HEAT: -86.69940
 CYCLE:    44 TIME:   0.059 TIME LEFT:  2.00W  GRAD.:    12.407 HEAT: -86.90707
 CYCLE:    45 TIME:   0.059 TIME LEFT:  2.00W  GRAD.:    21.190 HEAT: -87.06747
 CYCLE:    46 TIME:   0.059 TIME LEFT:  2.00W  GRAD.:    10.276 HEAT: -87.36697
 CYCLE:    47 TIME:   0.086 TIME LEFT:  2.00W  GRAD.:     7.541 HEAT: -87.46157
 CYCLE:    48 TIME:   0.059 TIME LEFT:  2.00W  GRAD.:     8.544 HEAT: -87.51489
 CYCLE:    49 TIME:   0.062 TIME LEFT:  2.00W  GRAD.:     9.948 HEAT: -87.53624
 CYCLE:    50 TIME:   0.082 TIME LEFT:  2.00W  GRAD.:     6.070 HEAT: -87.59108
 CYCLE:    51 TIME:   0.055 TIME LEFT:  2.00W  GRAD.:     6.130 HEAT: -87.62544
 CYCLE:    52 TIME:   0.059 TIME LEFT:  2.00W  GRAD.:     6.849 HEAT: -87.62437
 CYCLE:    53 TIME:   0.059 TIME LEFT:  2.00W  GRAD.:     4.430 HEAT: -87.64927
 CYCLE:    54 TIME:   0.059 TIME LEFT:  2.00W  GRAD.:     4.878 HEAT: -87.54926
 CYCLE:    55 TIME:   0.055 TIME LEFT:  2.00W  GRAD.:     4.916 HEAT: -87.54671
 CYCLE:    56 TIME:   0.055 TIME LEFT:  2.00W  GRAD.:     4.930 HEAT: -87.71513
 CYCLE:    57 TIME:   0.059 TIME LEFT:  2.00W  GRAD.:     6.221 HEAT: -87.72227
 CYCLE:    58 TIME:   0.055 TIME LEFT:  2.00W  GRAD.:     7.074 HEAT: -87.70175
 CYCLE:    59 TIME:   0.059 TIME LEFT:  2.00W  GRAD.:     6.193 HEAT: -87.73078
 CYCLE:    60 TIME:   0.055 TIME LEFT:  2.00W  GRAD.:     6.078 HEAT: -87.75011
 CYCLE:    61 TIME:   0.055 TIME LEFT:  2.00W  GRAD.:     6.711 HEAT: -87.78908
 CYCLE:    62 TIME:   0.059 TIME LEFT:  2.00W  GRAD.:     7.211 HEAT: -87.91979
 CYCLE:    63 TIME:   0.055 TIME LEFT:  2.00W  GRAD.:     6.710 HEAT: -87.94975
 CYCLE:    64 TIME:   0.078 TIME LEFT:  2.00W  GRAD.:     4.895 HEAT: -87.97486
 CYCLE:    65 TIME:   0.059 TIME LEFT:  2.00W  GRAD.:     7.179 HEAT: -87.97191
 CYCLE:    66 TIME:   0.059 TIME LEFT:  2.00W  GRAD.:     6.334 HEAT: -88.00014
 CYCLE:    67 TIME:   0.074 TIME LEFT:  2.00W  GRAD.:     5.459 HEAT: -88.01916
 CYCLE:    68 TIME:   0.062 TIME LEFT:  2.00W  GRAD.:     9.039 HEAT: -88.01489
 CYCLE:    69 TIME:   0.059 TIME LEFT:  2.00W  GRAD.:    12.191 HEAT: -87.94940
 CYCLE:    70 TIME:   0.059 TIME LEFT:  2.00W  GRAD.:     5.309 HEAT: -87.98183
 CYCLE:    71 TIME:   0.055 TIME LEFT:  2.00W  GRAD.:     4.095 HEAT: -88.00407
 CYCLE:    72 TIME:   0.062 TIME LEFT:  2.00W  GRAD.:     5.996 HEAT: -88.13881
 CYCLE:    73 TIME:   0.117 TIME LEFT:  2.00W  GRAD.:    16.980 HEAT: -88.01749
 CYCLE:    74 TIME:   0.113 TIME LEFT:  2.00W  GRAD.:     5.030 HEAT: -88.07312
 CYCLE:    75 TIME:   0.113 TIME LEFT:  2.00W  GRAD.:     3.920 HEAT: -88.09746
 CYCLE:    76 TIME:   0.109 TIME LEFT:  2.00W  GRAD.:     4.684 HEAT: -88.01109
 CYCLE:    77 TIME:   0.098 TIME LEFT:  2.00W  GRAD.:     5.877 HEAT: -88.02267
 CYCLE:    78 TIME:   0.066 TIME LEFT:  2.00W  GRAD.:    12.859 HEAT: -88.02228
 CYCLE:    79 TIME:   0.059 TIME LEFT:  2.00W  GRAD.:     3.893 HEAT: -88.06475
 CYCLE:    80 TIME:   0.055 TIME LEFT:  2.00W  GRAD.:     3.359 HEAT: -88.06291
 CYCLE:    81 TIME:   0.059 TIME LEFT:  2.00W  GRAD.:     4.164 HEAT: -88.00905
 CYCLE:    82 TIME:   0.062 TIME LEFT:  2.00W  GRAD.:     7.507 HEAT: -88.20243
 CYCLE:    83 TIME:   0.055 TIME LEFT:  2.00W  GRAD.:     4.111 HEAT: -88.19529
 CYCLE:    84 TIME:   0.062 TIME LEFT:  2.00W  GRAD.:     3.690 HEAT: -88.15781
 CYCLE:    85 TIME:   0.059 TIME LEFT:  2.00W  GRAD.:     5.592 HEAT: -88.15486
 CYCLE:    86 TIME:   0.055 TIME LEFT:  2.00W  GRAD.:     7.691 HEAT: -88.16666
 CYCLE:    87 TIME:   0.059 TIME LEFT:  2.00W  GRAD.:     3.981 HEAT: -88.18789
 CYCLE:    88 TIME:   0.059 TIME LEFT:  2.00W  GRAD.:     3.247 HEAT: -88.07084
 CYCLE:    89 TIME:   0.059 TIME LEFT:  2.00W  GRAD.:     3.802 HEAT: -88.08085
 CYCLE:    90 TIME:   0.059 TIME LEFT:  2.00W  GRAD.:     5.486 HEAT: -88.08584
 CYCLE:    91 TIME:   0.055 TIME LEFT:  2.00W  GRAD.:     5.581 HEAT: -88.06609
 CYCLE:    92 TIME:   0.055 TIME LEFT:  2.00W  GRAD.:     2.871 HEAT: -88.07939
 CYCLE:    93 TIME:   0.113 TIME LEFT:  2.00W  GRAD.:     2.788 HEAT: -88.08821
 CYCLE:    94 TIME:   0.059 TIME LEFT:  2.00W  GRAD.:     2.941 HEAT: -88.12055
 CYCLE:    95 TIME:   0.062 TIME LEFT:  2.00W  GRAD.:     4.941 HEAT: -88.14286
 CYCLE:    96 TIME:   0.082 TIME LEFT:  2.00W  GRAD.:     5.815 HEAT: -88.09168
 CYCLE:    97 TIME:   0.059 TIME LEFT:  2.00W  GRAD.:     3.455 HEAT: -88.08002
 CYCLE:    98 TIME:   0.059 TIME LEFT:  2.00W  GRAD.:     4.233 HEAT: -88.23675
 CYCLE:    99 TIME:   0.062 TIME LEFT:  2.00W  GRAD.:     9.107 HEAT: -88.14958
 CYCLE:   100 TIME:   0.059 TIME LEFT:  2.00W  GRAD.:     6.684 HEAT: -88.07262
 CYCLE:   101 TIME:   0.062 TIME LEFT:  2.00W  GRAD.:     6.888 HEAT: -88.18655
 CYCLE:   102 TIME:   0.059 TIME LEFT:  2.00W  GRAD.:     5.466 HEAT: -88.00510
 CYCLE:   103 TIME:   0.059 TIME LEFT:  2.00W  GRAD.:     5.242 HEAT: -87.95540
 CYCLE:   104 TIME:   0.070 TIME LEFT:  2.00W  GRAD.:     4.816 HEAT: -88.00503
 CYCLE:   105 TIME:   0.059 TIME LEFT:  2.00W  GRAD.:     3.449 HEAT: -87.99643
 CYCLE:   106 TIME:   0.066 TIME LEFT:  2.00W  GRAD.:     5.179 HEAT: -87.97997
 CYCLE:   107 TIME:   0.059 TIME LEFT:  2.00W  GRAD.:     2.938 HEAT: -88.01541
 CYCLE:   108 TIME:   0.125 TIME LEFT:  2.00W  GRAD.:     2.843 HEAT: -87.96201
 CYCLE:   109 TIME:   0.059 TIME LEFT:  2.00W  GRAD.:     4.551 HEAT: -88.02248
 CYCLE:   110 TIME:   0.059 TIME LEFT:  2.00W  GRAD.:     5.306 HEAT: -87.99802
 CYCLE:   111 TIME:   0.066 TIME LEFT:  2.00W  GRAD.:     4.056 HEAT: -87.95826
 CYCLE:   112 TIME:   0.059 TIME LEFT:  2.00W  GRAD.:     3.906 HEAT: -87.95640
 CYCLE:   113 TIME:   0.082 TIME LEFT:  2.00W  GRAD.:     4.110 HEAT: -87.94379
 CYCLE:   114 TIME:   0.055 TIME LEFT:  2.00W  GRAD.:     5.342 HEAT: -87.92584
 CYCLE:   115 TIME:   0.059 TIME LEFT:  2.00W  GRAD.:     5.780 HEAT: -87.83342
 CYCLE:   116 TIME:   0.055 TIME LEFT:  2.00W  GRAD.:     4.350 HEAT: -87.83769
 CYCLE:   117 TIME:   0.059 TIME LEFT:  2.00W  GRAD.:     5.299 HEAT: -87.89183
 CYCLE:   118 TIME:   0.059 TIME LEFT:  2.00W  GRAD.:     6.286 HEAT: -87.88208
 CYCLE:   119 TIME:   0.059 TIME LEFT:  2.00W  GRAD.:     5.700 HEAT: -87.84278
 CYCLE:   120 TIME:   0.062 TIME LEFT:  2.00W  GRAD.:    14.166 HEAT: -87.69292
 CYCLE:   121 TIME:   0.082 TIME LEFT:  2.00W  GRAD.:    18.520 HEAT: -87.57907
 CYCLE:   122 TIME:   0.082 TIME LEFT:  2.00W  GRAD.:    13.776 HEAT: -87.67695
 CYCLE:   123 TIME:   0.109 TIME LEFT:  2.00W  GRAD.:     3.563 HEAT: -87.76708
 CYCLE:   124 TIME:   0.062 TIME LEFT:  2.00W  GRAD.:     4.873 HEAT: -87.63059
 CYCLE:   125 TIME:   0.055 TIME LEFT:  2.00W  GRAD.:     9.539 HEAT: -87.63519
 CYCLE:   126 TIME:   0.059 TIME LEFT:  2.00W  GRAD.:     3.830 HEAT: -87.82318
 CYCLE:   127 TIME:   0.059 TIME LEFT:  2.00W  GRAD.:     3.035 HEAT: -87.64577
 CYCLE:   128 TIME:   0.070 TIME LEFT:  2.00W  GRAD.:     6.110 HEAT: -87.66569


           HEAT OF FORMATION IS ESSENTIALLY STATIONARY


          CURRENT BEST VALUE OF HEAT OF FORMATION =    -88.236687

 PM7 BONDS AUX DUMP=30M ITRY=15000 T=14D CHARGE=0 SINGLET eps=78.4 RELSCF=1
 Title: ASE calculation

  C     1.95913644 +1   2.71649840 +1   2.34963580 +1
  C     2.04127558 +1   1.33002290 +1   2.24211176 +1
  C     0.90778742 +1   0.59238440 +1   1.90237385 +1
  C    -0.30079615 +1   1.24390004 +1   1.65237240 +1
  C    -0.37744024 +1   2.63075260 +1   1.75205016 +1
  C     0.75102088 +1   3.36776194 +1   2.10754195 +1
  H     2.84411492 +1   3.29111843 +1   2.62175009 +1
  H     2.99090518 +1   0.82376820 +1   2.42325918 +1
  H    -1.18447032 +1   0.66869389 +1   1.37609005 +1
  H     0.68817788 +1   4.45272290 +1   2.19648049 +1
  C     1.00565196 +1  -0.90757106 +1   1.84558361 +1
  C     0.14985303 +1  -1.55340803 +1   2.92758463 +1
  H     0.21357669 +1  -2.65123577 +1   2.90518455 +1
  H    -0.91267619 +1  -1.28201984 +1   2.86063533 +1
  H     0.48927600 +1  -1.23660969 +1   3.92708261 +1
  N     0.62304436 +1  -1.39984426 +1   0.48425208 +1
  O     0.83299785 +1  -0.68273402 +1  -0.48171143 +1
  O     0.15034799 +1  -2.51915996 +1   0.36694114 +1
  N     4.29864461 +1  -1.14988584 +1   4.75285657 +1
  C     4.54866535 +1  -2.51241971 +1   5.28764716 +1
  C     4.96398757 +1  -2.44325056 +1   6.76728682 +1
  C     6.21182974 +1  -1.56724658 +1   6.92394504 +1
  C     5.92901449 +1  -0.17368787 +1   6.35213514 +1
  C     5.49997311 +1  -0.28642580 +1   4.87958352 +1
  H     5.23266666 +1   0.71668446 +1   4.48061774 +1
  H     6.35077288 +1  -0.65799063 +1   4.26866729 +1
  H     6.82227946 +1   0.47093112 +1   6.43571607 +1
  H     5.13192837 +1   0.32031523 +1   6.93764599 +1
  H     5.15157712 +1  -3.46111458 +1   7.15362891 +1
  H     4.13478319 +1  -2.03014745 +1   7.37054599 +1
  H     5.32448008 +1  -3.05696098 +1   4.70716436 +1
  H     2.08700335 +1  -1.24627047 +1   1.97846564 +1
  H     4.03696952 +1  -1.21730306 +1   3.75977787 +1
  H     3.60407848 +1  -3.08965681 +1   5.18238616 +1
  H     6.50584394 +1  -1.49802461 +1   7.98657148 +1
  H     7.07047635 +1  -2.02814575 +1   6.40084231 +1
  H    -1.32247021 +1   3.13787381 +1   1.55330582 +1
  H     4.51577714 +1  -2.23471117 +1   1.53779578 +1
  H     4.80249436 +1  -0.74109623 +1   1.44128934 +1
  O     4.12634196 +1  -1.37244667 +1   1.71653230 +1



 -------------------------------------------------------------------------------
 PM7 BONDS AUX DUMP=30M ITRY=15000 T=14D CHARGE=0 SINGLET eps=78.4 RELSCF=1
 Title: ASE calculation



     HERBERTS TEST WAS SATISFIED IN BFGS                      
     SCF FIELD WAS ACHIEVED                                   


                              PM7 CALCULATION
                                                       MOPAC v22.0.6 Linux
                                                       Tue Mar 26 11:09:57 2024




          FINAL HEAT OF FORMATION =        -88.23669 KCAL/MOL =    -369.18230 KJ/MOL
          VAN DER WAALS AREA      =        308.30 SQUARE ANGSTROMS



          DIELECTRIC ENERGY       =         -0.86583 EV
          COSMO AREA              =        308.30 SQUARE ANGSTROMS
          COSMO VOLUME            =        348.31 CUBIC ANGSTROMS

          GRADIENT NORM           =          4.23319          =       0.66933 PER ATOM
          IONIZATION POTENTIAL    =          9.185577 EV
          HOMO LUMO ENERGIES (EV) =         -9.186 -0.402
          NO. OF FILLED LEVELS    =         51
          MOLECULAR WEIGHT        =        254.3284         POINT GROUP:  C1  

          MOLECULAR DIMENSIONS (Angstroms)

            Atom       Atom       Distance
            H    37    H    35    11.14275
            O    18    H    10     7.07764
            H    39    H    14     4.96662


          SCF CALCULATIONS        =        131

          WALL-CLOCK TIME         =      8.633 SECONDS
          COMPUTATION TIME        =         12 MINUTES AND 22.217 SECONDS



       FINAL  POINT  AND  DERIVATIVES

   PARAMETER     ATOM    TYPE            VALUE        GRADIENT
      1          1  C    CARTESIAN X     1.959136     -0.221184  KCAL/ANGSTROM
      2          1  C    CARTESIAN Y     2.716498     -0.034446  KCAL/ANGSTROM
      3          1  C    CARTESIAN Z     2.349636     -0.005324  KCAL/ANGSTROM
      4          2  C    CARTESIAN X     2.041276     -0.366059  KCAL/ANGSTROM
      5          2  C    CARTESIAN Y     1.330023     -0.460805  KCAL/ANGSTROM
      6          2  C    CARTESIAN Z     2.242112     -0.286772  KCAL/ANGSTROM
      7          3  C    CARTESIAN X     0.907787     -0.406902  KCAL/ANGSTROM
      8          3  C    CARTESIAN Y     0.592384      0.005643  KCAL/ANGSTROM
      9          3  C    CARTESIAN Z     1.902374     -0.255069  KCAL/ANGSTROM
     10          4  C    CARTESIAN X    -0.300796      0.329541  KCAL/ANGSTROM
     11          4  C    CARTESIAN Y     1.243900      0.298725  KCAL/ANGSTROM
     12          4  C    CARTESIAN Z     1.652372      0.140955  KCAL/ANGSTROM
     13          5  C    CARTESIAN X    -0.377440      0.182508  KCAL/ANGSTROM
     14          5  C    CARTESIAN Y     2.630753      0.695654  KCAL/ANGSTROM
     15          5  C    CARTESIAN Z     1.752050      0.058826  KCAL/ANGSTROM
     16          6  C    CARTESIAN X     0.751021     -0.245748  KCAL/ANGSTROM
     17          6  C    CARTESIAN Y     3.367762      0.238155  KCAL/ANGSTROM
     18          6  C    CARTESIAN Z     2.107542     -0.149805  KCAL/ANGSTROM
     19          7  H    CARTESIAN X     2.844115     -0.548090  KCAL/ANGSTROM
     20          7  H    CARTESIAN Y     3.291118     -0.492099  KCAL/ANGSTROM
     21          7  H    CARTESIAN Z     2.621750     -0.169106  KCAL/ANGSTROM
     22          8  H    CARTESIAN X     2.990905     -0.863316  KCAL/ANGSTROM
     23          8  H    CARTESIAN Y     0.823768     -0.101163  KCAL/ANGSTROM
     24          8  H    CARTESIAN Z     2.423259     -0.397130  KCAL/ANGSTROM
     25          9  H    CARTESIAN X    -1.184470      1.068801  KCAL/ANGSTROM
     26          9  H    CARTESIAN Y     0.668694     -0.174981  KCAL/ANGSTROM
     27          9  H    CARTESIAN Z     1.376090     -0.053622  KCAL/ANGSTROM
     28         10  H    CARTESIAN X     0.688178     -0.095979  KCAL/ANGSTROM
     29         10  H    CARTESIAN Y     4.452723     -0.005386  KCAL/ANGSTROM
     30         10  H    CARTESIAN Z     2.196480      0.270122  KCAL/ANGSTROM
     31         11  C    CARTESIAN X     1.005652      0.437548  KCAL/ANGSTROM
     32         11  C    CARTESIAN Y    -0.907571     -0.622850  KCAL/ANGSTROM
     33         11  C    CARTESIAN Z     1.845584     -0.104481  KCAL/ANGSTROM
     34         12  C    CARTESIAN X     0.149853      0.217630  KCAL/ANGSTROM
     35         12  C    CARTESIAN Y    -1.553408      0.326280  KCAL/ANGSTROM
     36         12  C    CARTESIAN Z     2.927585     -0.257312  KCAL/ANGSTROM
     37         13  H    CARTESIAN X     0.213577      0.202178  KCAL/ANGSTROM
     38         13  H    CARTESIAN Y    -2.651236      0.596597  KCAL/ANGSTROM
     39         13  H    CARTESIAN Z     2.905185      0.133860  KCAL/ANGSTROM
     40         14  H    CARTESIAN X    -0.912676     -0.337609  KCAL/ANGSTROM
     41         14  H    CARTESIAN Y    -1.282020      0.073463  KCAL/ANGSTROM
     42         14  H    CARTESIAN Z     2.860635      1.254734  KCAL/ANGSTROM
     43         15  H    CARTESIAN X     0.489276     -0.316378  KCAL/ANGSTROM
     44         15  H    CARTESIAN Y    -1.236610     -0.024940  KCAL/ANGSTROM
     45         15  H    CARTESIAN Z     3.927083      0.178938  KCAL/ANGSTROM
     46         16  N    CARTESIAN X     0.623044     -0.048037  KCAL/ANGSTROM
     47         16  N    CARTESIAN Y    -1.399844      0.522205  KCAL/ANGSTROM
     48         16  N    CARTESIAN Z     0.484252     -0.916486  KCAL/ANGSTROM
     49         17  O    CARTESIAN X     0.832998      0.125420  KCAL/ANGSTROM
     50         17  O    CARTESIAN Y    -0.682734      0.084299  KCAL/ANGSTROM
     51         17  O    CARTESIAN Z    -0.481711     -0.123341  KCAL/ANGSTROM
     52         18  O    CARTESIAN X     0.150348      0.343894  KCAL/ANGSTROM
     53         18  O    CARTESIAN Y    -2.519160      0.265609  KCAL/ANGSTROM
     54         18  O    CARTESIAN Z     0.366941      0.152660  KCAL/ANGSTROM
     55         19  N    CARTESIAN X     4.298645     -0.034199  KCAL/ANGSTROM
     56         19  N    CARTESIAN Y    -1.149886      0.054009  KCAL/ANGSTROM
     57         19  N    CARTESIAN Z     4.752857      0.240276  KCAL/ANGSTROM
     58         20  C    CARTESIAN X     4.548665      0.084146  KCAL/ANGSTROM
     59         20  C    CARTESIAN Y    -2.512420     -0.117446  KCAL/ANGSTROM
     60         20  C    CARTESIAN Z     5.287647      0.113852  KCAL/ANGSTROM
     61         21  C    CARTESIAN X     4.963988      0.104133  KCAL/ANGSTROM
     62         21  C    CARTESIAN Y    -2.443251      0.025234  KCAL/ANGSTROM
     63         21  C    CARTESIAN Z     6.767287     -0.101598  KCAL/ANGSTROM
     64         22  C    CARTESIAN X     6.211830     -0.035357  KCAL/ANGSTROM
     65         22  C    CARTESIAN Y    -1.567247     -0.019137  KCAL/ANGSTROM
     66         22  C    CARTESIAN Z     6.923945     -0.135801  KCAL/ANGSTROM
     67         23  C    CARTESIAN X     5.929014     -0.034542  KCAL/ANGSTROM
     68         23  C    CARTESIAN Y    -0.173688      0.024902  KCAL/ANGSTROM
     69         23  C    CARTESIAN Z     6.352135      0.008253  KCAL/ANGSTROM
     70         24  C    CARTESIAN X     5.499973      0.045343  KCAL/ANGSTROM
     71         24  C    CARTESIAN Y    -0.286426     -0.018328  KCAL/ANGSTROM
     72         24  C    CARTESIAN Z     4.879584      0.125286  KCAL/ANGSTROM
     73         25  H    CARTESIAN X     5.232667      0.042159  KCAL/ANGSTROM
     74         25  H    CARTESIAN Y     0.716684     -0.217103  KCAL/ANGSTROM
     75         25  H    CARTESIAN Z     4.480618      0.023373  KCAL/ANGSTROM
     76         26  H    CARTESIAN X     6.350773     -0.101965  KCAL/ANGSTROM
     77         26  H    CARTESIAN Y    -0.657991      0.062688  KCAL/ANGSTROM
     78         26  H    CARTESIAN Z     4.268667     -0.055078  KCAL/ANGSTROM
     79         27  H    CARTESIAN X     6.822279      0.024520  KCAL/ANGSTROM
     80         27  H    CARTESIAN Y     0.470931     -0.111159  KCAL/ANGSTROM
     81         27  H    CARTESIAN Z     6.435716      0.037746  KCAL/ANGSTROM
     82         28  H    CARTESIAN X     5.131928      0.087025  KCAL/ANGSTROM
     83         28  H    CARTESIAN Y     0.320315     -0.115594  KCAL/ANGSTROM
     84         28  H    CARTESIAN Z     6.937646     -0.203689  KCAL/ANGSTROM
     85         29  H    CARTESIAN X     5.151577      0.067825  KCAL/ANGSTROM
     86         29  H    CARTESIAN Y    -3.461115      0.143917  KCAL/ANGSTROM
     87         29  H    CARTESIAN Z     7.153629      0.093709  KCAL/ANGSTROM
     88         30  H    CARTESIAN X     4.134783      0.156973  KCAL/ANGSTROM
     89         30  H    CARTESIAN Y    -2.030147     -0.153821  KCAL/ANGSTROM
     90         30  H    CARTESIAN Z     7.370546     -0.093390  KCAL/ANGSTROM
     91         31  H    CARTESIAN X     5.324480     -0.053440  KCAL/ANGSTROM
     92         31  H    CARTESIAN Y    -3.056961     -0.133867  KCAL/ANGSTROM
     93         31  H    CARTESIAN Z     4.707164      0.056085  KCAL/ANGSTROM
     94         32  H    CARTESIAN X     2.087003     -0.072261  KCAL/ANGSTROM
     95         32  H    CARTESIAN Y    -1.246270     -0.521575  KCAL/ANGSTROM
     96         32  H    CARTESIAN Z     1.978466     -0.232106  KCAL/ANGSTROM
     97         33  H    CARTESIAN X     4.036970     -0.194030  KCAL/ANGSTROM
     98         33  H    CARTESIAN Y    -1.217303      0.255701  KCAL/ANGSTROM
     99         33  H    CARTESIAN Z     3.759778      0.314713  KCAL/ANGSTROM
    100         34  H    CARTESIAN X     3.604078      0.244758  KCAL/ANGSTROM
    101         34  H    CARTESIAN Y    -3.089657      0.034157  KCAL/ANGSTROM
    102         34  H    CARTESIAN Z     5.182386      0.102273  KCAL/ANGSTROM
    103         35  H    CARTESIAN X     6.505844      0.118665  KCAL/ANGSTROM
    104         35  H    CARTESIAN Y    -1.498025     -0.097673  KCAL/ANGSTROM
    105         35  H    CARTESIAN Z     7.986571     -0.284072  KCAL/ANGSTROM
    106         36  H    CARTESIAN X     7.070476     -0.115093  KCAL/ANGSTROM
    107         36  H    CARTESIAN Y    -2.028146      0.039056  KCAL/ANGSTROM
    108         36  H    CARTESIAN Z     6.400842      0.017583  KCAL/ANGSTROM
    109         37  H    CARTESIAN X    -1.322470     -0.093627  KCAL/ANGSTROM
    110         37  H    CARTESIAN Y     3.137874     -0.179367  KCAL/ANGSTROM
    111         37  H    CARTESIAN Z     1.553306     -0.117457  KCAL/ANGSTROM
    112         38  H    CARTESIAN X     4.515777     -0.364846  KCAL/ANGSTROM
    113         38  H    CARTESIAN Y    -2.234711      1.416812  KCAL/ANGSTROM
    114         38  H    CARTESIAN Z     1.537796      0.751971  KCAL/ANGSTROM
    115         39  H    CARTESIAN X     4.802494      0.501060  KCAL/ANGSTROM
    116         39  H    CARTESIAN Y    -0.741096      0.463312  KCAL/ANGSTROM
    117         39  H    CARTESIAN Z     1.441289      0.512819  KCAL/ANGSTROM
    118         40  O    CARTESIAN X     4.126342      0.164639  KCAL/ANGSTROM
    119         40  O    CARTESIAN Y    -1.372447     -2.024568  KCAL/ANGSTROM
    120         40  O    CARTESIAN Z     1.716532     -0.646375  KCAL/ANGSTROM




   ATOM   CHEMICAL          X               Y               Z
  NUMBER   SYMBOL      (ANGSTROMS)     (ANGSTROMS)     (ANGSTROMS)

     1       C          1.95913644  *   2.71649840  *   2.34963580  *
     2       C          2.04127558  *   1.33002290  *   2.24211176  *
     3       C          0.90778742  *   0.59238440  *   1.90237385  *
     4       C         -0.30079615  *   1.24390004  *   1.65237240  *
     5       C         -0.37744024  *   2.63075260  *   1.75205016  *
     6       C          0.75102088  *   3.36776194  *   2.10754195  *
     7       H          2.84411492  *   3.29111843  *   2.62175009  *
     8       H          2.99090518  *   0.82376820  *   2.42325918  *
     9       H         -1.18447032  *   0.66869389  *   1.37609005  *
    10       H          0.68817788  *   4.45272290  *   2.19648049  *
    11       C          1.00565196  *  -0.90757106  *   1.84558361  *
    12       C          0.14985303  *  -1.55340803  *   2.92758463  *
    13       H          0.21357669  *  -2.65123577  *   2.90518455  *
    14       H         -0.91267619  *  -1.28201984  *   2.86063533  *
    15       H          0.48927600  *  -1.23660969  *   3.92708261  *
    16       N          0.62304436  *  -1.39984426  *   0.48425208  *
    17       O          0.83299785  *  -0.68273402  *  -0.48171143  *
    18       O          0.15034799  *  -2.51915996  *   0.36694114  *
    19       N          4.29864461  *  -1.14988584  *   4.75285657  *
    20       C          4.54866535  *  -2.51241971  *   5.28764716  *
    21       C          4.96398757  *  -2.44325056  *   6.76728682  *
    22       C          6.21182974  *  -1.56724658  *   6.92394504  *
    23       C          5.92901449  *  -0.17368787  *   6.35213514  *
    24       C          5.49997311  *  -0.28642580  *   4.87958352  *
    25       H          5.23266666  *   0.71668446  *   4.48061774  *
    26       H          6.35077288  *  -0.65799063  *   4.26866729  *
    27       H          6.82227946  *   0.47093112  *   6.43571607  *
    28       H          5.13192837  *   0.32031523  *   6.93764599  *
    29       H          5.15157712  *  -3.46111458  *   7.15362891  *
    30       H          4.13478319  *  -2.03014745  *   7.37054599  *
    31       H          5.32448008  *  -3.05696098  *   4.70716436  *
    32       H          2.08700335  *  -1.24627047  *   1.97846564  *
    33       H          4.03696952  *  -1.21730306  *   3.75977787  *
    34       H          3.60407848  *  -3.08965681  *   5.18238616  *
    35       H          6.50584394  *  -1.49802461  *   7.98657148  *
    36       H          7.07047635  *  -2.02814575  *   6.40084231  *
    37       H         -1.32247021  *   3.13787381  *   1.55330582  *
    38       H          4.51577714  *  -2.23471117  *   1.53779578  *
    39       H          4.80249436  *  -0.74109623  *   1.44128934  *
    40       O          4.12634196  *  -1.37244667  *   1.71653230  *

                             CARTESIAN COORDINATES

   1    C        1.959136445     2.716498395     2.349635803
   2    C        2.041275578     1.330022905     2.242111757
   3    C        0.907787419     0.592384399     1.902373851
   4    C       -0.300796154     1.243900041     1.652372403
   5    C       -0.377440238     2.630752604     1.752050162
   6    C        0.751020878     3.367761939     2.107541954
   7    H        2.844114919     3.291118425     2.621750087
   8    H        2.990905177     0.823768203     2.423259184
   9    H       -1.184470318     0.668693894     1.376090046
  10    H        0.688177880     4.452722896     2.196480490
  11    C        1.005651959    -0.907571063     1.845583613
  12    C        0.149853034    -1.553408028     2.927584629
  13    H        0.213576685    -2.651235767     2.905184554
  14    H       -0.912676187    -1.282019845     2.860635333
  15    H        0.489275999    -1.236609692     3.927082611
  16    N        0.623044361    -1.399844263     0.484252081
  17    O        0.832997846    -0.682734016    -0.481711434
  18    O        0.150347994    -2.519159964     0.366941141
  19    N        4.298644611    -1.149885843     4.752856566
  20    C        4.548665348    -2.512419715     5.287647156
  21    C        4.963987567    -2.443250559     6.767286818
  22    C        6.211829737    -1.567246581     6.923945036
  23    C        5.929014486    -0.173687873     6.352135142
  24    C        5.499973112    -0.286425798     4.879583517
  25    H        5.232666662     0.716684462     4.480617742
  26    H        6.350772880    -0.657990632     4.268667286
  27    H        6.822279457     0.470931122     6.435716071
  28    H        5.131928371     0.320315228     6.937645995
  29    H        5.151577117    -3.461114584     7.153628914
  30    H        4.134783192    -2.030147454     7.370545990
  31    H        5.324480081    -3.056960982     4.707164364
  32    H        2.087003353    -1.246270474     1.978465642
  33    H        4.036969524    -1.217303056     3.759777867
  34    H        3.604078476    -3.089656808     5.182386159
  35    H        6.505843941    -1.498024611     7.986571482
  36    H        7.070476347    -2.028145755     6.400842313
  37    H       -1.322470206     3.137873813     1.553305822
  38    H        4.515777140    -2.234711167     1.537795778
  39    H        4.802494360    -0.741096228     1.441289344
  40    O        4.126341961    -1.372446672     1.716532302


           Empirical Formula: C13 H22 N2 O3  =    40 atoms



      MOLECULAR POINT GROUP   :   C1  


                  EIGENVALUES  
 -37.35400 -35.07691 -31.10503 -30.75417 -29.20081 -29.00953 -28.33280 -26.20832
 -26.04442 -25.67432 -24.94671 -22.19522 -22.15623 -21.40611 -21.12262 -20.41603
 -19.12508 -18.61671 -18.17462 -18.07209 -17.56681 -17.42792 -16.86856 -15.85554
 -15.44472 -15.39226 -15.14497 -14.85479 -14.60172 -14.51449 -14.43166 -14.18132
 -13.91452 -13.87205 -13.83109 -13.38339 -12.99676 -12.92188 -12.28883 -12.22452
 -12.09449 -12.06394 -11.91601 -11.81050 -11.54801 -11.44197 -11.23879 -11.13446
 -10.16086 -10.08176  -9.18558  -0.40231  -0.35492  -0.08400   0.57814   2.19581
   2.84770   3.26869   3.41495   3.72494   3.99325   4.01103   4.09895   4.29546
   4.36303   4.36731   4.60026   4.69988   4.79975   4.86809   4.96183   4.96796
   5.11338   5.40277   5.43804   5.52294   5.64485   5.65352   5.67877   5.76902
   5.89993   5.93363   6.01090   6.03713   6.09959   6.12036   6.22299   6.32424
   6.52327   6.58855   6.63950   6.64812   6.71707   7.01397


              NET ATOMIC CHARGES AND DIPOLE CONTRIBUTIONS

  ATOM NO.   TYPE          CHARGE      No. of ELECS.   s-Pop       p-Pop       
    1          C          -0.154333        4.1543     1.08645     3.06788
    2          C          -0.144671        4.1447     1.08856     3.05611
    3          C          -0.046533        4.0465     1.06633     2.98020
    4          C          -0.151312        4.1513     1.08682     3.06449
    5          C          -0.156475        4.1565     1.08648     3.06999
    6          C          -0.147328        4.1473     1.08883     3.05850
    7          H           0.165566        0.8344     0.83443
    8          H           0.169338        0.8307     0.83066
    9          H           0.169221        0.8308     0.83078
   10          H           0.162725        0.8373     0.83728
   11          C          -0.054877        4.0549     1.09579     2.95909
   12          C          -0.461611        4.4616     1.05689     3.40472
   13          H           0.181438        0.8186     0.81856
   14          H           0.173075        0.8269     0.82692
   15          H           0.180913        0.8191     0.81909
   16          N           0.627256        4.3727     1.47816     2.89458
   17          O          -0.456007        6.4560     1.93960     4.51641
   18          O          -0.452810        6.4528     1.93948     4.51333
   19          N          -0.582995        5.5830     1.67909     3.90390
   20          C          -0.110606        4.1106     1.06689     3.04372
   21          C          -0.283541        4.2835     1.06140     3.22214
   22          C          -0.268899        4.2689     1.05756     3.21134
   23          C          -0.283363        4.2834     1.06137     3.22199
   24          C          -0.110350        4.1104     1.06681     3.04354
   25          H           0.138687        0.8613     0.86131
   26          H           0.119630        0.8804     0.88037
   27          H           0.137547        0.8625     0.86245
   28          H           0.143700        0.8563     0.85630
   29          H           0.138192        0.8618     0.86181
   30          H           0.143358        0.8566     0.85664
   31          H           0.120183        0.8798     0.87982
   32          H           0.227414        0.7726     0.77259
   33          H           0.279391        0.7206     0.72061
   34          H           0.138137        0.8619     0.86186
   35          H           0.137192        0.8628     0.86281
   36          H           0.138944        0.8611     0.86106
   37          H           0.166616        0.8334     0.83338
   38          H           0.376293        0.6237     0.62371
   39          H           0.374183        0.6258     0.62582
   40          O          -0.743290        6.7433     1.81184     4.93145
 DIPOLE           X         Y         Z       TOTAL
 POINT-CHG.     4.547     1.087     4.392     6.414
 HYBRID         0.572    -0.589    -1.272     1.513
 SUM            5.120     0.498     3.120     6.016


          ATOMIC ORBITAL ELECTRON POPULATIONS

     Atom    s        px        py        pz   
    1  C   1.08645   1.05492   1.01134   1.00162
    2  C   1.08856   1.05430   1.00920   0.99261
    3  C   1.06633   0.99749   0.94441   1.03830
    4  C   1.08682   1.04533   1.01869   1.00048
    5  C   1.08648   1.06565   1.00421   1.00014
    6  C   1.08883   0.98623   1.08854   0.98373
    7  H   0.83443
    8  H   0.83066
    9  H   0.83078
   10  H   0.83728
   11  C   1.09579   1.12769   0.99719   0.83420
   12  C   1.05689   1.14009   1.17207   1.09256
   13  H   0.81856
   14  H   0.82692
   15  H   0.81909
   16  N   1.47816   0.91506   0.95470   1.02482
   17  O   1.93960   1.59119   1.54234   1.38287
   18  O   1.93948   1.48431   1.10578   1.92324
   19  N   1.67909   1.38154   1.18179   1.34057
   20  C   1.06689   1.12817   0.90879   1.00676
   21  C   1.06140   1.07268   1.11170   1.03777
   22  C   1.05756   1.05890   1.01777   1.13467
   23  C   1.06137   1.14443   1.04484   1.03271
   24  C   1.06681   0.97016   1.04819   1.02519
   25  H   0.86131
   26  H   0.88037
   27  H   0.86245
   28  H   0.85630
   29  H   0.86181
   30  H   0.85664
   31  H   0.87982
   32  H   0.77259
   33  H   0.72061
   34  H   0.86186
   35  H   0.86281
   36  H   0.86106
   37  H   0.83338
   38  H   0.62371
   39  H   0.62582
   40  O   1.81184   1.59633   1.41150   1.92362

          BONDING CONTRIBUTION OF EACH M.O.

  1.3157  1.3491  1.7905  1.1082  1.2371  1.6476  1.9191  1.9261  1.9699  1.5052
  1.4326  1.8625  1.7356  1.8997  1.9771  1.6564  1.8812  1.5985  1.5586  1.4299
  1.6585  1.9552  1.7926  1.8616  1.9637  1.9325  1.9189  1.8914  1.7157  1.8060
  1.4323  1.5931  2.0091  1.8617  1.8053  1.9629  2.0024  1.7853  0.5508  1.7378
  1.8001  1.9538  0.8764  0.3379  1.8907  0.8458  2.0075  1.9609  2.0116  1.9614
  0.9148 -2.3247 -2.0767 -1.9873 -2.0562 -1.9961 -1.9678 -1.9645 -1.9670 -1.9442
 -1.9613 -1.9859 -1.9630 -1.8547 -1.9756 -1.9840 -1.9662 -1.9592 -1.9736 -2.0031
 -1.9188 -1.9877 -1.8906 -1.9551 -1.9488 -1.9600 -1.9628 -1.9803 -1.9843 -1.9693
 -1.9820 -1.9628 -1.9701 -1.9713 -1.9847 -1.9651 -1.9908 -1.9821 -1.9539 -1.8923
 -1.9472 -1.9427 -1.7145 -1.8697





            (VALENCIES)   BOND ORDERS

     1  C     (3.972)     2  C 1.443     6  C 1.442     7  H 0.960     4  C 0.112

     2  C     (3.970)     1  C 1.443     3  C 1.427     8  H 0.957     5  C 0.111

     3  C     (3.991)     2  C 1.427     4  C 1.421    11  C 0.995     6  C 0.113

     4  C     (3.971)     5  C 1.449     3  C 1.421     9  H 0.958     1  C 0.112

     5  C     (3.972)     4  C 1.449     6  C 1.437    37  H 0.960     2  C 0.111

     6  C     (3.972)     1  C 1.442     5  C 1.437    10  H 0.961     3  C 0.113

     7  H     (0.973)     1  C 0.960

     8  H     (0.971)     2  C 0.957

     9  H     (0.971)     4  C 0.958

    10  H     (0.974)     6  C 0.961

    11  C     (3.902)    12  C 0.996     3  C 0.995    32  H 0.910    16  N 0.827    18  O 0.070    17  O 0.070

    12  C     (3.898)    11  C 0.996    14  H 0.961    13  H 0.957    15  H 0.952

    13  H     (0.967)    12  C 0.957

    14  H     (0.970)    12  C 0.961

    15  H     (0.967)    12  C 0.952

    16  N     (3.744)    18  O 1.441    17  O 1.440    11  C 0.827

    17  O     (1.830)    16  N 1.440    18  O 0.297    11  C 0.070

    18  O     (1.832)    16  N 1.441    17  O 0.297    11  C 0.070

    19  N     (2.876)    20  C 0.972    24  C 0.972    33  H 0.887

    20  C     (3.941)    21  C 1.000    19  N 0.972    31  H 0.971    34  H 0.966

    21  C     (3.961)    22  C 1.003    20  C 1.000    30  H 0.970    29  H 0.969

    22  C     (3.962)    21  C 1.003    23  C 1.003    36  H 0.971    35  H 0.970

    23  C     (3.961)    22  C 1.003    24  C 1.000    28  H 0.969    27  H 0.969

    24  C     (3.941)    23  C 1.000    19  N 0.972    26  H 0.971    25  H 0.966

    25  H     (0.981)    24  C 0.966

    26  H     (0.986)    24  C 0.971

    27  H     (0.981)    23  C 0.969

    28  H     (0.979)    23  C 0.969

    29  H     (0.981)    21  C 0.969

    30  H     (0.979)    21  C 0.970

    31  H     (0.986)    20  C 0.971

    32  H     (0.948)    11  C 0.910

    33  H     (0.922)    19  N 0.887

    34  H     (0.981)    20  C 0.966

    35  H     (0.981)    22  C 0.970

    36  H     (0.981)    22  C 0.971

    37  H     (0.972)     5  C 0.960

    38  H     (0.858)    40  O 0.855

    39  H     (0.860)    40  O 0.856

    40  O     (1.734)    39  H 0.856    38  H 0.855


 **********************
 *                    *
 * JOB ENDED NORMALLY *
 *                    *
 **********************



 TOTAL JOB TIME:             8.65 SECONDS

 == MOPAC DONE ==
