
                                 *****************
                                 * O   R   C   A *
                                 *****************

                                            #,                                       
                                            ###                                      
                                            ####                                     
                                            #####                                    
                                            ######                                   
                                           ########,                                 
                                     ,,################,,,,,                         
                               ,,#################################,,                 
                          ,,##########################################,,             
                       ,#########################################, ''#####,          
                    ,#############################################,,   '####,        
                  ,##################################################,,,,####,       
                ,###########''''           ''''###############################       
              ,#####''   ,,,,##########,,,,          '''####'''          '####       
            ,##' ,,,,###########################,,,                        '##       
           ' ,,###''''                  '''############,,,                           
         ,,##''                                '''############,,,,        ,,,,,,###''
      ,#''                                            '''#######################'''  
     '                                                          ''''####''''         
             ,#######,   #######,   ,#######,      ##                                
            ,#'     '#,  ##    ##  ,#'     '#,    #''#        ######   ,####,        
            ##       ##  ##   ,#'  ##            #'  '#       #        #'  '#        
            ##       ##  #######   ##           ,######,      #####,   #    #        
            '#,     ,#'  ##    ##  '#,     ,#' ,#      #,         ##   #,  ,#        
             '#######'   ##     ##  '#######'  #'      '#     #####' # '####'        



                  #######################################################
                  #                        -***-                        #
                  #          Department of theory and spectroscopy      #
                  #    Directorship and core code : Frank Neese         #
                  #        Max Planck Institute fuer Kohlenforschung    #
                  #                Kaiser Wilhelm Platz 1               #
                  #                 D-45470 Muelheim/Ruhr               #
                  #                      Germany                        #
                  #                                                     #
                  #                  All rights reserved                #
                  #                        -***-                        #
                  #######################################################


                         Program Version 5.0.4 -  RELEASE  -


 With contributions from (in alphabetic order):
   Daniel Aravena         : Magnetic Suceptibility
   Michael Atanasov       : Ab Initio Ligand Field Theory (pilot matlab implementation)
   Alexander A. Auer      : GIAO ZORA, VPT2 properties, NMR spectrum
   Ute Becker             : Parallelization
   Giovanni Bistoni       : ED, misc. LED, open-shell LED, HFLD
   Martin Brehm           : Molecular dynamics
   Dmytro Bykov           : SCF Hessian
   Vijay G. Chilkuri      : MRCI spin determinant printing, contributions to CSF-ICE
   Dipayan Datta          : RHF DLPNO-CCSD density
   Achintya Kumar Dutta   : EOM-CC, STEOM-CC
   Dmitry Ganyushin       : Spin-Orbit,Spin-Spin,Magnetic field MRCI
   Miquel Garcia          : C-PCM and meta-GGA Hessian, CC/C-PCM, Gaussian charge scheme
   Yang Guo               : DLPNO-NEVPT2, F12-NEVPT2, CIM, IAO-localization
   Andreas Hansen         : Spin unrestricted coupled pair/coupled cluster methods
   Benjamin Helmich-Paris : MC-RPA, TRAH-SCF, COSX integrals
   Lee Huntington         : MR-EOM, pCC
   Robert Izsak           : Overlap fitted RIJCOSX, COSX-SCS-MP3, EOM
   Marcus Kettner         : VPT2
   Christian Kollmar      : KDIIS, OOCD, Brueckner-CCSD(T), CCSD density, CASPT2, CASPT2-K
   Simone Kossmann        : Meta GGA functionals, TD-DFT gradient, OOMP2, MP2 Hessian
   Martin Krupicka        : Initial AUTO-CI
   Lucas Lang             : DCDCAS
   Marvin Lechner         : AUTO-CI (C++ implementation), FIC-MRCC
   Dagmar Lenk            : GEPOL surface, SMD
   Dimitrios Liakos       : Extrapolation schemes; Compound Job, initial MDCI parallelization
   Dimitrios Manganas     : Further ROCIS development; embedding schemes
   Dimitrios Pantazis     : SARC Basis sets
   Anastasios Papadopoulos: AUTO-CI, single reference methods and gradients
   Taras Petrenko         : DFT Hessian,TD-DFT gradient, ASA, ECA, R-Raman, ABS, FL, XAS/XES, NRVS
   Peter Pinski           : DLPNO-MP2, DLPNO-MP2 Gradient
   Christoph Reimann      : Effective Core Potentials
   Marius Retegan         : Local ZFS, SOC
   Christoph Riplinger    : Optimizer, TS searches, QM/MM, DLPNO-CCSD(T), (RO)-DLPNO pert. Triples
   Tobias Risthaus        : Range-separated hybrids, TD-DFT gradient, RPA, STAB
   Michael Roemelt        : Original ROCIS implementation
   Masaaki Saitow         : Open-shell DLPNO-CCSD energy and density
   Barbara Sandhoefer     : DKH picture change effects
   Avijit Sen             : IP-ROCIS
   Kantharuban Sivalingam : CASSCF convergence, NEVPT2, FIC-MRCI
   Bernardo de Souza      : ESD, SOC TD-DFT
   Georgi Stoychev        : AutoAux, RI-MP2 NMR, DLPNO-MP2 response
   Willem Van den Heuvel  : Paramagnetic NMR
   Boris Wezisla          : Elementary symmetry handling
   Frank Wennmohs         : Technical directorship


 We gratefully acknowledge several colleagues who have allowed us to
 interface, adapt or use parts of their codes:
   Stefan Grimme, W. Hujo, H. Kruse, P. Pracht,  : VdW corrections, initial TS optimization,
                  C. Bannwarth, S. Ehlert          DFT functionals, gCP, sTDA/sTD-DF
   Ed Valeev, F. Pavosevic, A. Kumar             : LibInt (2-el integral package), F12 methods
   Garnet Chan, S. Sharma, J. Yang, R. Olivares  : DMRG
   Ulf Ekstrom                                   : XCFun DFT Library
   Mihaly Kallay                                 : mrcc  (arbitrary order and MRCC methods)
   Jiri Pittner, Ondrej Demel                    : Mk-CCSD
   Frank Weinhold                                : gennbo (NPA and NBO analysis)
   Christopher J. Cramer and Donald G. Truhlar   : smd solvation model
   Lars Goerigk                                  : TD-DFT with DH, B97 family of functionals
   V. Asgeirsson, H. Jonsson                     : NEB implementation
   FAccTs GmbH                                   : IRC, NEB, NEB-TS, DLPNO-Multilevel, CI-OPT
                                                   MM, QMMM, 2- and 3-layer-ONIOM, Crystal-QMMM,
                                                   LR-CPCM, SF, NACMEs, symmetry and pop. for TD-DFT,
                                                   nearIR, NL-DFT gradient (VV10), updates on ESD,
                                                   ML-optimized integration grids
   S Lehtola, MJT Oliveira, MAL Marques          : LibXC Library
   Liviu Ungur et al                             : ANISO software


 Your calculation uses the libint2 library for the computation of 2-el integrals
 For citations please refer to: http://libint.valeyev.net

 Your ORCA version has been built with support for libXC version: 5.1.0
 For citations please refer to: https://tddft.org/programs/libxc/

 This ORCA versions uses:
   CBLAS   interface :  Fast vector & matrix operations
   LAPACKE interface :  Fast linear algebra routines
   SCALAPACK package :  Parallel linear algebra routines
   Shared memory     :  Shared parallel matrices
   BLAS/LAPACK       :  OpenBLAS 0.3.15  USE64BITINT DYNAMIC_ARCH NO_AFFINITY Prescott SINGLE_THREADED
        Core in use  :  Prescott
   Copyright (c) 2011-2014, The OpenBLAS Project


Your calculation utilizes the atom-pairwise dispersion correction
with the Becke-Johnson damping scheme (D3BJ)
Cite in your paper:
S.Grimme, S.Ehrlich, L.Goerigk, J Comput Chem, (2011), 32, 1456–1465 
S.Grimme, J.Antony, S.Ehrlich and H.Krieg, J.Chem.Phys., 132, (2010), 154104 
   

================================================================================

----- Orbital basis set information -----
Your calculation utilizes the basis: def2-TZVP
   F. Weigend and R. Ahlrichs, Phys. Chem. Chem. Phys. 7, 3297 (2005).

----- AuxJ basis set information -----
Your calculation utilizes the auxiliary basis: def2/J
   F. Weigend, Phys. Chem. Chem. Phys. 8, 1057 (2006).

================================================================================
                                        WARNINGS
                       Please study these warnings very carefully!
================================================================================


WARNING: Geometry Optimization
  ===> : Switching off AutoStart
         For restart on a previous wavefunction, please use MOREAD

INFO   : the flag for use of the SHARK integral package has been found!

================================================================================
                                       INPUT FILE
================================================================================
NAME = /home/rudenko/mop_saddle_orca_4_serv/for_orca/CH2CHCH2NO2_pyridine/orca/orca_end/end.inp
|  1> !  opt B3LYP def2-TZVP CPCM D3 
|  2> %pal nprocs 102 end
|  3> %cpcm epsilon 78.4 end 
|  4> *xyz 0 1 
|  5> C   0.3696058 -0.43282024 0.20771834
|  6> H   0.54574421 -1.06847541 -0.66769437
|  7> N   0.62851876 -2.39602143 1.6156431
|  8> O   0.74820859 -3.15268855 0.61942385
|  9> O   0.66572469 -2.93529602 2.75477189
| 10> H   -0.12564486 1.52722579 0.89486771
| 11> C   0.47364235 -1.07500223 1.49461671
| 12> H   2.49599473 -0.52968116 1.93132783
| 13> H   0.35990392 -0.48022389 2.3974101
| 14> C   0.05540143 0.86138972 0.0686538
| 15> H   -0.03757106 1.35067156 -0.88515838
| 16> C   5.9286206 0.72825562 3.84438639
| 17> C   6.97772279 1.51350732 4.31346615
| 18> C   6.93185338 2.89678341 4.13803866
| 19> C   5.82992624 3.46816033 3.50139292
| 20> C   4.79920256 2.65003586 3.04553635
| 21> N   4.86383275 1.30292205 3.22120551
| 22> H   5.91888647 -0.37182352 3.95799855
| 23> H   7.82950682 1.03937404 4.81222973
| 24> H   5.76765699 4.55126282 3.35451926
| 25> H   3.90628008 3.05426492 2.53499659
| 26> H   7.75351858 3.52704526 4.49584799
| 27> H   3.70486377 -1.35246485 2.40983797
| 28> H   4.09001468 0.67943504 2.83380509
| 29> O   3.47355191 -0.52818733 1.94786833
| 30> *
| 31> 
| 32>                          ****END OF INPUT****
================================================================================

                       *****************************
                       * Geometry Optimization Run *
                       *****************************

Geometry optimization settings:
Update method            Update   .... BFGS
Choice of coordinates    CoordSys .... Z-matrix Internals
Initial Hessian          InHess   .... Almoef's Model

Convergence Tolerances:
Energy Change            TolE     ....  5.0000e-06 Eh
Max. Gradient            TolMAXG  ....  3.0000e-04 Eh/bohr
RMS Gradient             TolRMSG  ....  1.0000e-04 Eh/bohr
Max. Displacement        TolMAXD  ....  4.0000e-03 bohr
RMS Displacement         TolRMSD  ....  2.0000e-03 bohr
Strict Convergence                ....  False
------------------------------------------------------------------------------
                        ORCA OPTIMIZATION COORDINATE SETUP
------------------------------------------------------------------------------

The optimization will be done in new redundant internal coordinates
Making redundant internal coordinates   ...  (new redundants) done
Evaluating the initial hessian          ...  (Almloef) done
Evaluating the coordinates              ...  done
Calculating the B-matrix                .... done
Calculating the G-matrix                .... done
Diagonalizing the G-matrix              .... done
Small eigenvalue found = 6.160e-03
Small eigenvalue found = 1.395e-02
Small eigenvalue found = 2.570e-02
The first mode is                       ....  107
The number of degrees of freedom        ....   69

    -----------------------------------------------------------------
                    Redundant Internal Coordinates


    -----------------------------------------------------------------
         Definition                    Initial Value    Approx d2E/dq
    -----------------------------------------------------------------
      1. B(H   1,C   0)                  1.0961         0.352123   
      2. B(O   3,N   2)                  1.2567         0.817835   
      3. B(O   4,N   2)                  1.2609         0.805410   
      4. B(C   6,C   0)                  1.4420         0.516173   
      5. B(C   6,N   2)                  1.3356         0.683483   
      6. B(H   7,C   6)                  2.1396         0.007617   
      7. B(H   7,C   0)                  2.7389         0.000843   
      8. B(H   7,N   2)                  2.6590         0.001012   
      9. B(H   8,H   7)                  2.1869         0.001226   
     10. B(H   8,C   6)                  1.0871         0.363989   
     11. B(C   9,C   0)                  1.3390         0.753413   
     12. B(C   9,H   5)                  1.0765         0.378478   
     13. B(H  10,C   9)                  1.0760         0.379090   
     14. B(C  12,C  11)                  1.3919         0.620544   
     15. B(C  13,C  12)                  1.3951         0.613177   
     16. B(C  14,C  13)                  1.3950         0.613419   
     17. B(C  15,C  14)                  1.3927         0.618703   
     18. B(N  16,C  15)                  1.3601         0.624668   
     19. B(N  16,C  11)                  1.3610         0.622465   
     20. B(H  17,C  11)                  1.1060         0.339578   
     21. B(H  18,C  12)                  1.0950         0.353499   
     22. B(H  19,C  14)                  1.0948         0.353822   
     23. B(H  20,C  15)                  1.1052         0.340603   
     24. B(H  21,C  13)                  1.0956         0.352737   
     25. B(H  23,N  16)                  1.0666         0.351490   
     26. B(O  24,H  23)                  1.6196         0.046083   
     27. B(O  24,H  22)                  0.9728         0.496059   
     28. B(O  24,H   7)                  0.9777         0.487226   
     29. A(C   6,C   0,C   9)          122.6868         0.434975   
     30. A(H   1,C   0,H   7)          110.9365         0.139976   
     31. A(C   6,C   0,H   7)           50.7001         0.153268   
     32. A(H   7,C   0,C   9)          106.3621         0.159012   
     33. A(H   1,C   0,C   6)          116.2893         0.340905   
     34. A(H   1,C   0,C   9)          121.0156         0.363416   
     35. A(O   3,N   2,C   6)          122.3272         0.455328   
     36. A(O   3,N   2,O   4)          117.1195         0.466003   
     37. A(O   3,N   2,H   7)          116.7331         0.161264   
     38. A(O   4,N   2,C   6)          120.5527         0.454061   
     39. A(O   4,N   2,H   7)           99.9166         0.161014   
     40. A(C   6,N   2,H   7)           52.9833         0.158975   
     41. A(C   0,C   6,H   7)           97.8652         0.194782   
     42. A(N   2,C   6,H   7)           97.1224         0.200795   
     43. A(N   2,C   6,H   8)          118.5584         0.357228   
     44. A(H   7,C   6,H   8)           77.8741         0.173535   
     45. A(C   0,C   6,N   2)          121.9875         0.424645   
     46. A(C   0,C   6,H   8)          119.3370         0.342802   
     47. A(N   2,H   7,H   8)           49.8475         0.100662   
     48. A(C   0,H   7,H   8)           51.3179         0.100320   
     49. A(N   2,H   7,C   6)           29.8943         0.111053   
     50. A(H   8,H   7,O  24)          166.6511         0.136197   
     51. A(C   0,H   7,C   6)           31.4346         0.110406   
     52. A(C   6,H   7,O  24)          161.6036         0.178250   
     53. A(C   0,H   7,N   2)           53.4773         0.102399   
     54. A(N   2,H   7,O  24)          134.8537         0.144864   
     55. A(C   0,H   7,O  24)          141.8910         0.143224   
     56. A(C   6,H   7,H   8)           29.0775         0.107632   
     57. A(C   6,H   8,H   7)           73.0483         0.133703   
     58. A(H   5,C   9,H  10)          112.6172         0.295515   
     59. A(C   0,C   9,H  10)          123.4924         0.368038   
     60. A(C   0,C   9,H   5)          123.8894         0.367936   
     61. A(N  16,C  11,H  17)          117.3957         0.347516   
     62. A(C  12,C  11,H  17)          122.2207         0.349479   
     63. A(C  12,C  11,N  16)          120.3836         0.431602   
     64. A(C  11,C  12,C  13)          119.4872         0.433271   
     65. A(C  13,C  12,H  18)          120.8078         0.351149   
     66. A(C  11,C  12,H  18)          119.7047         0.351858   
     67. A(C  12,C  13,C  14)          119.3059         0.432372   
     68. A(C  14,C  13,H  21)          120.3859         0.351044   
     69. A(C  12,C  13,H  21)          120.3082         0.351021   
     70. A(C  13,C  14,C  15)          119.5636         0.433070   
     71. A(C  15,C  14,H  19)          119.6811         0.351736   
     72. A(C  13,C  14,H  19)          120.7552         0.351226   
     73. A(N  16,C  15,H  20)          117.4097         0.347900   
     74. A(C  14,C  15,H  20)          122.2979         0.349481   
     75. A(C  14,C  15,N  16)          120.2924         0.431646   
     76. A(C  15,N  16,H  23)          119.8420         0.346711   
     77. A(C  11,N  16,H  23)          119.1492         0.346505   
     78. A(C  11,N  16,C  15)          120.9663         0.429293   
     79. A(N  16,H  23,O  24)          155.5980         0.212127   
     80. A(H   7,O  24,H  22)          104.1513         0.316002   
     81. A(H  22,O  24,H  23)          106.3502         0.222112   
     82. A(H   7,O  24,H  23)          113.0138         0.221572   
     83. D(H   8,C   6,N   2,O   4)     -1.2600         0.045066   
     84. D(N   2,C   6,C   0,C   9)    171.7926         0.021134   
     85. D(H   8,C   6,C   0,C   9)     -4.2161         0.021134   
     86. D(H   8,C   6,N   2,O   3)    179.0366         0.045066   
     87. D(C   0,C   6,N   2,O   3)      2.9979         0.045066   
     88. D(H   8,C   6,C   0,H   1)    176.8231         0.021134   
     89. D(C   0,C   6,N   2,O   4)   -177.2986         0.045066   
     90. D(H   8,C   6,N   2,H   7)    -80.0372         0.045066   
     91. D(H   7,C   6,N   2,O   3)   -100.9262         0.045066   
     92. D(N   2,C   6,C   0,H   1)     -7.1682         0.021134   
     93. D(H   7,C   6,C   0,H   1)     96.3559         0.021134   
     94. D(N   2,C   6,C   0,H   7)   -103.5240         0.021134   
     95. D(H   8,C   6,C   0,H   7)     80.4673         0.021134   
     96. D(H   7,C   6,C   0,C   9)    -84.6834         0.021134   
     97. D(H   7,C   6,N   2,O   4)     78.7772         0.045066   
     98. D(C   0,C   6,N   2,H   7)    103.9242         0.045066   
     99. D(O  24,H   7,N   2,C   6)   -162.7554         0.001501   
    100. D(O  24,H   7,N   2,O   3)    -51.0328         0.001501   
    101. D(O  24,H   7,N   2,O   4)     76.2824         0.001501   
    102. D(H   8,H   7,C   0,C   6)    -33.1919         0.001501   
    103. D(C   6,H   7,C   0,C   9)    119.1455         0.001501   
    104. D(H   8,H   7,C   0,H   1)   -140.6289         0.001501   
    105. D(N   2,H   7,C   0,C   9)    150.1709         0.001501   
    106. D(N   2,H   7,C   6,C   0)   -123.7924         0.001536   
    107. D(H   8,H   7,C   6,C   0)    118.4378         0.001536   
    108. D(H   8,H   7,C   0,C   9)     85.9536         0.001501   
    109. D(N   2,H   7,C   0,C   6)     31.0254         0.001501   
    110. D(N   2,H   7,C   0,H   1)    -76.4116         0.001501   
    111. D(O  24,H   7,C   6,N   2)     41.7529         0.001536   
    112. D(C   0,H   7,N   2,O   3)     79.0844         0.001501   
    113. D(O  24,H   7,C   6,C   0)    -82.0395         0.001536   
    114. D(H   8,H   7,N   2,C   6)     34.2364         0.001501   
    115. D(O  24,H   7,C   0,C   6)    149.5736         0.001501   
    116. D(H   8,H   7,N   2,O   3)    145.9590         0.001501   
    117. D(H   8,H   7,N   2,O   4)    -86.7258         0.001501   
    118. D(O  24,H   7,C   0,H   1)     42.1366         0.001501   
    119. D(O  24,H   7,C   0,C   9)    -91.2809         0.001501   
    120. D(O  24,H   7,C   6,H   8)    159.5227         0.001536   
    121. D(C   6,H   7,N   2,O   3)    111.7226         0.001501   
    122. D(C   6,H   7,N   2,O   4)   -120.9622         0.001501   
    123. D(C   0,H   7,C   6,N   2)    123.7924         0.001536   
    124. D(C   0,H   7,C   6,H   8)   -118.4378         0.001536   
    125. D(C   0,H   7,N   2,C   6)    -32.6381         0.001501   
    126. D(C   6,H   7,C   0,H   1)   -107.4370         0.001501   
    127. D(H   8,H   7,C   6,N   2)   -117.7698         0.001536   
    128. D(N   2,H   7,C   6,H   8)    117.7698         0.001536   
    129. D(C   0,H   7,N   2,O   4)   -153.6004         0.001501   
    130. D(C   6,H   8,H   7,N   2)    -35.2380         0.001516   
    131. D(C   6,H   8,H   7,C   0)     35.9778         0.001516   
    132. D(C   6,H   8,H   7,O  24)   -151.4325         0.001516   
    133. D(H   7,H   8,C   6,N   2)     91.5727         0.124691   
    134. D(H   7,H   8,C   6,C   0)    -92.2813         0.124691   
    135. D(H  10,C   9,C   0,H   7)    127.3576         0.044100   
    136. D(H  10,C   9,C   0,C   6)   -179.2215         0.044100   
    137. D(H  10,C   9,C   0,H   1)     -0.3087         0.044100   
    138. D(H   5,C   9,C   0,H   7)    -52.2492         0.044100   
    139. D(H   5,C   9,C   0,C   6)      1.1717         0.044100   
    140. D(H   5,C   9,C   0,H   1)   -179.9155         0.044100   
    141. D(H  18,C  12,C  11,H  17)      0.1111         0.026649   
    142. D(H  18,C  12,C  11,N  16)   -179.9310         0.026649   
    143. D(C  13,C  12,C  11,H  17)    179.9215         0.026649   
    144. D(C  13,C  12,C  11,N  16)     -0.1206         0.026649   
    145. D(C  14,C  13,C  12,C  11)      0.3576         0.025983   
    146. D(H  21,C  13,C  12,H  18)      0.2299         0.025983   
    147. D(H  21,C  13,C  12,C  11)   -179.5783         0.025983   
    148. D(C  14,C  13,C  12,H  18)   -179.8342         0.025983   
    149. D(H  19,C  14,C  13,H  21)     -0.2907         0.026005   
    150. D(H  19,C  14,C  13,C  12)    179.7734         0.026005   
    151. D(C  15,C  14,C  13,H  21)    179.5802         0.026005   
    152. D(C  15,C  14,C  13,C  12)     -0.3556         0.026005   
    153. D(H  20,C  15,C  14,H  19)     -0.0889         0.026481   
    154. D(H  20,C  15,C  14,C  13)   -179.9613         0.026481   
    155. D(N  16,C  15,C  14,H  19)    179.9886         0.026481   
    156. D(N  16,C  15,C  14,C  13)      0.1163         0.026481   
    157. D(H  23,N  16,C  15,H  20)      2.5930         0.031635   
    158. D(H  23,N  16,C  15,C  14)   -177.4808         0.031635   
    159. D(C  11,N  16,C  15,H  20)   -179.7998         0.031635   
    160. D(C  11,N  16,C  15,C  14)      0.1264         0.031635   
    161. D(H  23,N  16,C  11,H  17)     -2.5408         0.031394   
    162. D(H  23,N  16,C  11,C  12)    177.4993         0.031394   
    163. D(C  15,N  16,C  11,H  17)    179.8357         0.031394   
    164. D(C  15,N  16,C  11,C  12)     -0.1242         0.031394   
    165. D(O  24,H  23,N  16,C  15)    123.2755         0.128772   
    166. D(O  24,H  23,N  16,C  11)    -54.3753         0.128772   
    167. D(H  22,O  24,H  23,N  16)     74.4845         0.002717   
    168. D(H   7,O  24,H  23,N  16)   -171.8478         0.002717   
    169. D(H  23,O  24,H   7,H   8)    -48.0485         0.381828   
    170. D(H  23,O  24,H   7,C   6)    179.3766         0.381828   
    171. D(H  23,O  24,H   7,N   2)   -152.7074         0.381828   
    172. D(H  23,O  24,H   7,C   0)    122.5626         0.381828   
    173. D(H  22,O  24,H   7,H   8)     66.9451         0.381828   
    174. D(H  22,O  24,H   7,C   6)    -65.6297         0.381828   
    175. D(H  22,O  24,H   7,N   2)    -37.7137         0.381828   
    176. D(H  22,O  24,H   7,C   0)   -122.4437         0.381828   
    -----------------------------------------------------------------

Number of atoms                         .... 25
Number of degrees of freedom            .... 176

         *************************************************************
         *                GEOMETRY OPTIMIZATION CYCLE   1            *
         *************************************************************
---------------------------------
CARTESIAN COORDINATES (ANGSTROEM)
---------------------------------
  C      0.369606   -0.432820    0.207718
  H      0.545744   -1.068475   -0.667694
  N      0.628519   -2.396021    1.615643
  O      0.748209   -3.152689    0.619424
  O      0.665725   -2.935296    2.754772
  H     -0.125645    1.527226    0.894868
  C      0.473642   -1.075002    1.494617
  H      2.495995   -0.529681    1.931328
  H      0.359904   -0.480224    2.397410
  C      0.055401    0.861390    0.068654
  H     -0.037571    1.350672   -0.885158
  C      5.928621    0.728256    3.844386
  C      6.977723    1.513507    4.313466
  C      6.931853    2.896783    4.138039
  C      5.829926    3.468160    3.501393
  C      4.799203    2.650036    3.045536
  N      4.863833    1.302922    3.221206
  H      5.918886   -0.371824    3.957999
  H      7.829507    1.039374    4.812230
  H      5.767657    4.551263    3.354519
  H      3.906280    3.054265    2.534997
  H      7.753519    3.527045    4.495848
  H      3.704864   -1.352465    2.409838
  H      4.090015    0.679435    2.833805
  O      3.473552   -0.528187    1.947868

----------------------------
CARTESIAN COORDINATES (A.U.)
----------------------------
  NO LB      ZA    FRAG     MASS         X           Y           Z
   0 C     6.0000    0    12.011    0.698454   -0.817912    0.392531
   1 H     1.0000    0     1.008    1.031307   -2.019126   -1.261760
   2 N     7.0000    0    14.007    1.187728   -4.527824    3.053123
   3 O     8.0000    0    15.999    1.413909   -5.957718    1.170541
   4 O     8.0000    0    15.999    1.258037   -5.546906    5.205764
   5 H     1.0000    0     1.008   -0.237434    2.886038    1.691055
   6 C     6.0000    0    12.011    0.895054   -2.031460    2.824416
   7 H     1.0000    0     1.008    4.716746   -1.000952    3.649681
   8 H     1.0000    0     1.008    0.680120   -0.907492    4.530449
   9 C     6.0000    0    12.011    0.104694    1.627791    0.129737
  10 H     1.0000    0     1.008   -0.070999    2.552399   -1.672707
  11 C     6.0000    0    12.011   11.203469    1.376204    7.264837
  12 C     6.0000    0    12.011   13.185985    2.860114    8.151270
  13 C     6.0000    0    12.011   13.099304    5.474127    7.819760
  14 C     6.0000    0    12.011   11.016964    6.553873    6.616674
  15 C     6.0000    0    12.011    9.069178    5.007842    5.755230
  16 N     7.0000    0    14.007    9.191312    2.462166    6.087196
  17 H     1.0000    0     1.008   11.185074   -0.702645    7.479533
  18 H     1.0000    0     1.008   14.795624    1.964132    9.093796
  19 H     1.0000    0     1.008   10.899292    8.600640    6.339123
  20 H     1.0000    0     1.008    7.381800    5.771724    4.790449
  21 H     1.0000    0     1.008   14.652027    6.665150    8.495921
  22 H     1.0000    0     1.008    7.001178   -2.555788    4.553934
  23 H     1.0000    0     1.008    7.729008    1.283946    5.355116
  24 O     8.0000    0    15.999    6.564062   -0.998129    3.680938

--------------------------------
INTERNAL COORDINATES (ANGSTROEM)
--------------------------------
 C      0   0   0     0.000000000000     0.00000000     0.00000000
 H      1   0   0     1.096097462571     0.00000000     0.00000000
 N      1   2   0     2.429701002818    88.68735480     0.00000000
 O      3   1   2     1.256711414751    92.13733251   356.10957889
 O      3   1   2     1.260878965188   150.71948372   178.33508193
 H      1   2   3     2.135234861237   145.75494215   184.29374983
 C      3   1   2     1.335561985166    30.22329159   173.57486335
 H      7   3   1     2.139626327331    97.12237447   256.07583899
 H      7   3   1     1.087075714575   118.55843367   176.03865210
 C      6   1   2     1.076450117894    31.37124055     0.12866549
 H     10   6   1     1.076010351979   112.61718777   180.35524676
 C      8   7   3     4.126150549830   163.46687195   260.99442278
 C     12   8   7     1.391858993813   162.80563041   263.72464713
 C     13  12   8     1.395109869576   119.48720325     9.75715860
 C     14  13  12     1.395002797430   119.30589250     0.35757954
 C     15  14  13     1.392668002554   119.56357216   359.64435232
 N     16  15  14     1.360056003379   120.29235987     0.11628346
 H     12   8   7     1.105973141830    74.75550207    92.33923316
 H     13  12   8     1.095035848592   119.70468643   189.94677490
 H     15  14  13     1.094787803796   120.75520555   179.77342587
 H     16  15  14     1.105152720116   122.29788931   180.03873869
 H     14  13  12     1.095623665814   120.30820669   180.42166836
 H      8   7   3     1.538606288328   132.05253336   352.98092254
 H     17  16  15     1.066587803471   119.84196134   182.51919936
 O     23   8   7     0.972807563106    38.03630543   157.22275934

---------------------------
INTERNAL COORDINATES (A.U.)
---------------------------
 C      0   0   0     0.000000000000     0.00000000     0.00000000
 H      1   0   0     2.071324020345     0.00000000     0.00000000
 N      1   2   0     4.591469482640    88.68735480     0.00000000
 O      3   1   2     2.374840403252    92.13733251   356.10957889
 O      3   1   2     2.382715932227   150.71948372   178.33508193
 H      1   2   3     4.035009119339   145.75494215   184.29374983
 C      3   1   2     2.523846386839    30.22329159   173.57486335
 H      7   3   1     4.043307787584    97.12237447   256.07583899
 H      7   3   1     2.054275387384   118.55843367   176.03865210
 C      6   1   2     2.034195919646    31.37124055     0.12866549
 H     10   6   1     2.033364882505   112.61718777   180.35524676
 C      8   7   3     7.797294526507   163.46687195   260.99442278
 C     12   8   7     2.630232315341   162.80563041   263.72464713
 C     13  12   8     2.636375580228   119.48720325     9.75715860
 C     14  13  12     2.636173243197   119.30589250     0.35757954
 C     15  14  13     2.631761120302   119.56357216   359.64435232
 N     16  15  14     2.570133373182   120.29235987     0.11628346
 H     12   8   7     2.089986349532    74.75550207    92.33923316
 H     13  12   8     2.069317860664   119.70468643   189.94677490
 H     15  14  13     2.068849123932   120.75520555   179.77342587
 H     16  15  14     2.088435977176   122.29788931   180.03873869
 H     14  13  12     2.070428674231   120.30820669   180.42166836
 H      8   7   3     2.907544512870   132.05253336   352.98092254
 H     17  16  15     2.015558846341   119.84196134   182.51919936
 O     23   8   7     1.838339875277    38.03630543   157.22275934

---------------------
BASIS SET INFORMATION
---------------------
There are 4 groups of distinct atoms

 Group   1 Type C   : 11s6p2d1f contracted to 5s3p2d1f pattern {62111/411/11/1}
 Group   2 Type H   : 5s1p contracted to 3s1p pattern {311/1}
 Group   3 Type N   : 11s6p2d1f contracted to 5s3p2d1f pattern {62111/411/11/1}
 Group   4 Type O   : 11s6p2d1f contracted to 5s3p2d1f pattern {62111/411/11/1}

Atom   0C    basis set group =>   1
Atom   1H    basis set group =>   2
Atom   2N    basis set group =>   3
Atom   3O    basis set group =>   4
Atom   4O    basis set group =>   4
Atom   5H    basis set group =>   2
Atom   6C    basis set group =>   1
Atom   7H    basis set group =>   2
Atom   8H    basis set group =>   2
Atom   9C    basis set group =>   1
Atom  10H    basis set group =>   2
Atom  11C    basis set group =>   1
Atom  12C    basis set group =>   1
Atom  13C    basis set group =>   1
Atom  14C    basis set group =>   1
Atom  15C    basis set group =>   1
Atom  16N    basis set group =>   3
Atom  17H    basis set group =>   2
Atom  18H    basis set group =>   2
Atom  19H    basis set group =>   2
Atom  20H    basis set group =>   2
Atom  21H    basis set group =>   2
Atom  22H    basis set group =>   2
Atom  23H    basis set group =>   2
Atom  24O    basis set group =>   4
---------------------------------
AUXILIARY/J BASIS SET INFORMATION
---------------------------------
There are 4 groups of distinct atoms

 Group   1 Type C   : 12s5p4d2f1g contracted to 6s4p3d1f1g pattern {711111/2111/211/2/1}
 Group   2 Type H   : 5s2p1d contracted to 3s1p1d pattern {311/2/1}
 Group   3 Type N   : 12s5p4d2f1g contracted to 6s4p3d1f1g pattern {711111/2111/211/2/1}
 Group   4 Type O   : 12s5p4d2f1g contracted to 6s4p3d1f1g pattern {711111/2111/211/2/1}

Atom   0C    basis set group =>   1
Atom   1H    basis set group =>   2
Atom   2N    basis set group =>   3
Atom   3O    basis set group =>   4
Atom   4O    basis set group =>   4
Atom   5H    basis set group =>   2
Atom   6C    basis set group =>   1
Atom   7H    basis set group =>   2
Atom   8H    basis set group =>   2
Atom   9C    basis set group =>   1
Atom  10H    basis set group =>   2
Atom  11C    basis set group =>   1
Atom  12C    basis set group =>   1
Atom  13C    basis set group =>   1
Atom  14C    basis set group =>   1
Atom  15C    basis set group =>   1
Atom  16N    basis set group =>   3
Atom  17H    basis set group =>   2
Atom  18H    basis set group =>   2
Atom  19H    basis set group =>   2
Atom  20H    basis set group =>   2
Atom  21H    basis set group =>   2
Atom  22H    basis set group =>   2
Atom  23H    basis set group =>   2
Atom  24O    basis set group =>   4


           ************************************************************
           *        Program running with 102 parallel MPI-processes   *
           *              working on a common directory               *
           ************************************************************
------------------------------------------------------------------------------
                           ORCA GTO INTEGRAL CALCULATION
                           -- RI-GTO INTEGRALS CHOSEN --
------------------------------------------------------------------------------
------------------------------------------------------------------------------
                   ___                                                        
                  /   \      - P O W E R E D   B Y -                         
                 /     \                                                     
                 |  |  |   _    _      __       _____    __    __             
                 |  |  |  | |  | |    /  \     |  _  \  |  |  /  |          
                  \  \/   | |  | |   /    \    | | | |  |  | /  /          
                 / \  \   | |__| |  /  /\  \   | |_| |  |  |/  /          
                |  |  |   |  __  | /  /__\  \  |    /   |      \           
                |  |  |   | |  | | |   __   |  |    \   |  |\   \          
                \     /   | |  | | |  |  |  |  | |\  \  |  | \   \       
                 \___/    |_|  |_| |__|  |__|  |_| \__\ |__|  \__/        
                                                                              
                      - O R C A' S   B I G   F R I E N D -                    
                                      &                                       
                       - I N T E G R A L  F E E D E R -                       
                                                                              
 v1 FN, 2020, v2 2021                                                         
------------------------------------------------------------------------------


Reading SHARK input file /home/rudenko/mop_saddle_orca_4_serv/for_orca/CH2CHCH2NO2_pyridine/orca/orca_end/end.SHARKINP.tmp ... ok
----------------------
SHARK INTEGRAL PACKAGE
----------------------

Number of atoms                             ...     25
Number of basis functions                   ...    475
Number of shells                            ...    191
Maximum angular momentum                    ...      3
Integral batch strategy                     ... SHARK/LIBINT Hybrid
RI-J (if used) integral strategy            ... SPLIT-RIJ (Revised 2003 algorithm where possible)
Printlevel                                  ...      1
Contraction scheme used                     ... SEGMENTED contraction
Coulomb Range Separation                    ... NOT USED
Exchange Range Separation                   ... NOT USED
Finite Nucleus Model                        ... NOT USED
Auxiliary Coulomb fitting basis             ... AVAILABLE
   # of basis functions in Aux-J            ...    769
   # of shells in Aux-J                     ...    255
   Maximum angular momentum in Aux-J        ...      4
Auxiliary J/K fitting basis                 ... NOT available
Auxiliary Correlation fitting basis         ... NOT available
Auxiliary 'external' fitting basis          ... NOT available
Integral threshold                          ...     2.500000e-11
Primitive cut-off                           ...     2.500000e-12
Primitive pair pre-selection threshold      ...     2.500000e-12

Calculating pre-screening integrals         ... done (  0.1 sec) Dimension = 191
Organizing shell pair data                  ... done (  0.3 sec)
Shell pair information
Total number of shell pairs                 ...     18336
Shell pairs after pre-screening             ...     12711
Total number of primitive shell pairs       ...     55600
Primitive shell pairs kept                  ...     26734
          la=0 lb=0:   3549 shell pairs
          la=1 lb=0:   3746 shell pairs
          la=1 lb=1:   1025 shell pairs
          la=2 lb=0:   1733 shell pairs
          la=2 lb=1:    931 shell pairs
          la=2 lb=2:    217 shell pairs
          la=3 lb=0:    831 shell pairs
          la=3 lb=1:    439 shell pairs
          la=3 lb=2:    191 shell pairs
          la=3 lb=3:     49 shell pairs

Calculating one electron integrals          ... done (  0.1 sec)
Calculating RI/J V-Matrix + Cholesky decomp.... done (  0.1 sec)
Calculating Nuclear repulsion               ... done (  0.0 sec) ENN=    712.379087382396 Eh

SHARK setup successfully completed in   0.9 seconds

Maximum memory used throughout the entire GTOINT-calculation: 25.3 MB


           ************************************************************
           *        Program running with 102 parallel MPI-processes   *
           *              working on a common directory               *
           ************************************************************
-------------------------------------------------------------------------------
                                 ORCA SCF
-------------------------------------------------------------------------------

------------
SCF SETTINGS
------------
Hamiltonian:
 Density Functional     Method          .... DFT(GTOs)
 Exchange Functional    Exchange        .... B88
   X-Alpha parameter    XAlpha          ....  0.666667
   Becke's b parameter  XBeta           ....  0.004200
 Correlation Functional Correlation     .... LYP
 LDA part of GGA corr.  LDAOpt          .... VWN-5
 Gradients option       PostSCFGGA      .... off
 Hybrid DFT is turned on
   Fraction HF Exchange ScalHFX         ....  0.200000
   Scaling of DF-GGA-X  ScalDFX         ....  0.720000
   Scaling of DF-GGA-C  ScalDFC         ....  0.810000
   Scaling of DF-LDA-C  ScalLDAC        ....  1.000000
   Perturbative correction              ....  0.000000
   Density functional embedding theory  .... OFF
   NL short-range parameter             ....  4.800000
 RI-approximation to the Coulomb term is turned on
   Number of AuxJ basis functions       .... 769
   RIJ-COSX (HFX calculated with COS-X)).... on


General Settings:
 Integral files         IntName         .... /home/rudenko/mop_saddle_orca_4_serv/for_orca/CH2CHCH2NO2_pyridine/orca/orca_end/end
 Hartree-Fock type      HFTyp           .... RHF
 Total Charge           Charge          ....    0
 Multiplicity           Mult            ....    1
 Number of Electrons    NEL             ....   98
 Basis Dimension        Dim             ....  475
 Nuclear Repulsion      ENuc            ....    712.3790873824 Eh

Convergence Acceleration:
 DIIS                   CNVDIIS         .... on
   Start iteration      DIISMaxIt       ....    12
   Startup error        DIISStart       ....  0.200000
   # of expansion vecs  DIISMaxEq       ....     5
   Bias factor          DIISBfac        ....   1.050
   Max. coefficient     DIISMaxC        ....  10.000
 Trust-Rad. Augm. Hess. CNVTRAH         .... auto
   Auto Start mean grad. ratio tolernc. ....  1.125000
   Auto Start start iteration           ....    20
   Auto Start num. interpolation iter.  ....    10
   Max. Number of Micro iterations      ....    16
   Max. Number of Macro iterations      .... Maxiter - #DIIS iter
   Number of Davidson start vectors     ....     2
   Converg. threshold I  (grad. norm)   ....   1.000e-05
   Converg. threshold II (energy diff.) ....   1.000e-08
   Grad. Scal. Fac. for Micro threshold ....   0.100
   Minimum threshold for Micro iter.    ....   0.010
   NR start threshold (gradient norm)   ....   0.001
   Initial trust radius                 ....   0.400
   Minimum AH scaling param. (alpha)    ....   1.000
   Maximum AH scaling param. (alpha)    .... 1000.000
   Orbital update algorithm             .... Taylor
   White noise on init. David. guess    .... on
   Maximum white noise                  ....   0.010
   Quad. conv. algorithm                .... NR
 SOSCF                  CNVSOSCF        .... on
   Start iteration      SOSCFMaxIt      ....   150
   Startup grad/error   SOSCFStart      ....  0.003300
 Level Shifting         CNVShift        .... on
   Level shift para.    LevelShift      ....    0.2500
   Turn off err/grad.   ShiftErr        ....    0.0010
 Zerner damping         CNVZerner       .... off
 Static damping         CNVDamp         .... on
   Fraction old density DampFac         ....    0.7000
   Max. Damping (<1)    DampMax         ....    0.9800
   Min. Damping (>=0)   DampMin         ....    0.0000
   Turn off err/grad.   DampErr         ....    0.1000
 Fernandez-Rico         CNVRico         .... off

SCF Procedure:
 Maximum # iterations   MaxIter         ....   125
 SCF integral mode      SCFMode         .... Direct
   Integral package                     .... SHARK and LIBINT hybrid scheme
 Reset frequency        DirectResetFreq ....    20
 Integral Threshold     Thresh          ....  2.500e-11 Eh
 Primitive CutOff       TCut            ....  2.500e-12 Eh

Convergence Tolerance:
 Convergence Check Mode ConvCheckMode   .... Total+1el-Energy
 Convergence forced     ConvForced      .... 0
 Energy Change          TolE            ....  1.000e-08 Eh
 1-El. energy change                    ....  1.000e-05 Eh
 Orbital Gradient       TolG            ....  1.000e-05
 Orbital Rotation angle TolX            ....  1.000e-05
 DIIS Error             TolErr          ....  5.000e-07


Diagonalization of the overlap matrix:
Smallest eigenvalue                        ... 6.025e-05
Time for diagonalization                   ...    0.110 sec
Threshold for overlap eigenvalues          ... 1.000e-08
Number of eigenvalues below threshold      ... 0
Time for construction of square roots      ...    0.150 sec
Total time needed                          ...    0.263 sec

Time for model grid setup =    0.176 sec

------------------------------
INITIAL GUESS: MODEL POTENTIAL
------------------------------
Loading Hartree-Fock densities                     ... done
Calculating cut-offs                               ... done
Initializing the effective Hamiltonian             ... done
Setting up the integral package (SHARK)            ... done
Starting the Coulomb interaction                   ... done (   0.0 sec)
Reading the grid                                   ... done
Mapping shells                                     ... done
Starting the XC term evaluation                    ... done (   0.0 sec)
  promolecular density results
     # of electrons  =     97.993185189
     EX              =    -82.380750962
     EC              =     -3.330681669
     EX+EC           =    -85.711432631
Transforming the Hamiltonian                       ... done (   0.1 sec)
Diagonalizing the Hamiltonian                      ... done (   0.1 sec)
Back transforming the eigenvectors                 ... done (   0.1 sec)
Now organizing SCF variables                       ... done
                      ------------------
                      INITIAL GUESS DONE (   0.6 sec)
                      ------------------
-------------------
DFT GRID GENERATION
-------------------

General Integration Accuracy     IntAcc      ... 4.388
Radial Grid Type                 RadialGrid  ... OptM3 with GC (2021)
Angular Grid (max. ang.)         AngularGrid ... 4 (Lebedev-302)
Angular grid pruning method      GridPruning ... 4 (adaptive)
Weight generation scheme         WeightScheme... Becke
Basis function cutoff            BFCut       ... 1.0000e-11
Integration weight cutoff        WCut        ... 1.0000e-14
Angular grids for H and He will be reduced by one unit
Partially contracted basis set               ... off
Rotationally invariant grid construction     ... off

Total number of grid points                  ...   117284
Total number of batches                      ...     1846
Average number of points per batch           ...       63
Average number of grid points per atom       ...     4691
Time for grid setup =    0.955 sec

--------------------
COSX GRID GENERATION
--------------------

GRIDX 1
-------
General Integration Accuracy     IntAcc      ... 3.816
Radial Grid Type                 RadialGrid  ... OptM3 with GC (2021)
Angular Grid (max. ang.)         AngularGrid ... 1 (Lebedev-50)
Angular grid pruning method      GridPruning ... 4 (adaptive)
Weight generation scheme         WeightScheme... Becke
Basis function cutoff            BFCut       ... 1.0000e-11
Integration weight cutoff        WCut        ... 1.0000e-14
Angular grids for H and He will be reduced by one unit
Partially contracted basis set               ... on
Rotationally invariant grid construction     ... off

Total number of grid points                  ...    14968
Total number of batches                      ...      244
Average number of points per batch           ...       61
Average number of grid points per atom       ...      599
UseSFitting                                  ... on

GRIDX 2
-------
General Integration Accuracy     IntAcc      ... 4.020
Radial Grid Type                 RadialGrid  ... OptM3 with GC (2021)
Angular Grid (max. ang.)         AngularGrid ... 2 (Lebedev-110)
Angular grid pruning method      GridPruning ... 4 (adaptive)
Weight generation scheme         WeightScheme... Becke
Basis function cutoff            BFCut       ... 1.0000e-11
Integration weight cutoff        WCut        ... 1.0000e-14
Angular grids for H and He will be reduced by one unit
Partially contracted basis set               ... on
Rotationally invariant grid construction     ... off

Total number of grid points                  ...    32598
Total number of batches                      ...      521
Average number of points per batch           ...       62
Average number of grid points per atom       ...     1304
UseSFitting                                  ... on

GRIDX 3
-------
General Integration Accuracy     IntAcc      ... 4.338
Radial Grid Type                 RadialGrid  ... OptM3 with GC (2021)
Angular Grid (max. ang.)         AngularGrid ... 3 (Lebedev-194)
Angular grid pruning method      GridPruning ... 4 (adaptive)
Weight generation scheme         WeightScheme... Becke
Basis function cutoff            BFCut       ... 1.0000e-11
Integration weight cutoff        WCut        ... 1.0000e-14
Angular grids for H and He will be reduced by one unit
Partially contracted basis set               ... on
Rotationally invariant grid construction     ... off

Total number of grid points                  ...    71458
Total number of batches                      ...     1131
Average number of points per batch           ...       63
Average number of grid points per atom       ...     2858
UseSFitting                                  ... on

Time for X-Grid setup             =    1.767 sec


--------------------
CPCM SOLVATION MODEL
--------------------
CPCM parameters:
  Epsilon                                         ...      78.4000
  Refrac                                          ...       1.3300
  Rsolv                                           ...       1.3000
  Surface type                                    ... GAUSSIAN VDW
  Epsilon function type                           ...         CPCM
Radii:
 Radius for C  used is    3.8550 Bohr (=   2.0400 Ang.)
 Radius for H  used is    2.4944 Bohr (=   1.3200 Ang.)
 Radius for N  used is    3.5149 Bohr (=   1.8600 Ang.)
 Radius for O  used is    3.4469 Bohr (=   1.8240 Ang.)
Calculating surface                               ...        done! (  0.0s)
GEPOL surface points                              ...         1495
GEPOL Volume                                      ...    1610.7075
GEPOL Surface-area                                ...     954.3657
Calculating surface distance matrix               ...        done! (  0.1s)
Performing Cholesky decomposition & store         ...        done! (  0.5s)
Overall time for CPCM initialization              ...                 0.6s
--------------
SCF ITERATIONS
--------------
ITER       Energy         Delta-E        Max-DP      RMS-DP      [F,P]     Damp
               ***  Starting incremental Fock matrix formation  ***
  0   -646.6131477241   0.000000000000 0.05723488  0.00086630  0.3037002 0.7000
  1   -646.8146945715  -0.201546847404 0.05136695  0.00064498  0.1211152 0.7000
                               ***Turning on DIIS***
  2   -646.8898183353  -0.075123763742 0.07330937  0.00103562  0.0390918 0.0000
  3   -647.0131830449  -0.123364709638 0.04413154  0.00045909  0.0675850 0.0000
  4   -647.0378142806  -0.024631235700 0.01342246  0.00015569  0.0167475 0.0000
  5   -647.0394477990  -0.001633518426 0.00561003  0.00006066  0.0047461 0.0000
                      *** Initiating the SOSCF procedure ***
                           *** Shutting down DIIS ***
                      *** Re-Reading the Fockian *** 
                      *** Removing any level shift *** 
ITER      Energy       Delta-E        Grad      Rot      Max-DP    RMS-DP
  6   -647.03956375  -0.0001159515  0.000419  0.000419  0.001537  0.000022
               *** Restarting incremental Fock matrix formation ***
  7   -647.03953643   0.0000273245  0.000163  0.000708  0.001963  0.000020
  8   -647.03953587   0.0000005533  0.000223  0.000542  0.000295  0.000005
  9   -647.03953849  -0.0000026157  0.000045  0.000219  0.000162  0.000002
 10   -647.03953840   0.0000000860  0.000060  0.000123  0.000099  0.000001
 11   -647.03953855  -0.0000001501  0.000006  0.000020  0.000056  0.000001
 12   -647.03953857  -0.0000000148  0.000007  0.000011  0.000029  0.000000
                  ***Gradient check signals convergence***
              ***Rediagonalizing the Fockian in SOSCF/NRSCF***

               *****************************************************
               *                     SUCCESS                       *
               *           SCF CONVERGED AFTER  13 CYCLES          *
               *****************************************************

Old exchange energy                            =    -16.691285023 Eh
New exchange energy                            =    -16.691287180 Eh
Exchange energy change after final integration =     -0.000002157 Eh
Total energy after final integration           =   -647.039540719 Eh
Final COS-X integration done in                =     2.097 sec

----------------
TOTAL SCF ENERGY
----------------

Total Energy       :         -647.03954072 Eh          -17606.84102 eV

Components:
Nuclear Repulsion  :          712.37908738 Eh           19384.82047 eV
Electronic Energy  :        -1359.41862810 Eh          -36991.66149 eV
One Electron Energy:        -2293.07725922 Eh          -62397.80447 eV
Two Electron Energy:          933.65863112 Eh           25406.14298 eV
Max COSX asymmetry :            0.00000121 Eh               0.00003 eV
CPCM Dielectric    :           -0.09268390 Eh              -2.52206 eV

Virial components:
Potential Energy   :        -1291.12426536 Eh          -35133.27740 eV
Kinetic Energy     :          644.08472465 Eh           17526.43638 eV
Virial Ratio       :            2.00458762


DFT components:
N(Alpha)           :       48.999977554300 electrons
N(Beta)            :       48.999977554300 electrons
N(Total)           :       97.999955108600 electrons
E(X)               :      -66.455562350403 Eh       
E(C)               :       -3.937584748855 Eh       
E(XC)              :      -70.393147099259 Eh       
DFET-embed. en.    :        0.000000000000 Eh       
CPCM Solvation Model Properties:
Surface-charge          :           -0.02741769
Charge-correction       :           -0.00037618 Eh              -0.01024 eV
Free-energy (cav+disp)  :  This term is not implemented in the current solvation scheme

---------------
SCF CONVERGENCE
---------------

  Last Energy change         ...    6.1577e-09  Tolerance :   1.0000e-08
  Last MAX-Density change    ...    1.7764e-15  Tolerance :   1.0000e-07
  Last RMS-Density change    ...    1.5470e-17  Tolerance :   5.0000e-09
  Last Orbital Gradient      ...    2.1496e-06  Tolerance :   1.0000e-05
  Last Orbital Rotation      ...    7.4127e-06  Tolerance :   1.0000e-05

             **** THE GBW FILE WAS UPDATED (/home/rudenko/mop_saddle_orca_4_serv/for_orca/CH2CHCH2NO2_pyridine/orca/orca_end/end.gbw) ****
             **** DENSITY /home/rudenko/mop_saddle_orca_4_serv/for_orca/CH2CHCH2NO2_pyridine/orca/orca_end/end.scfp WAS UPDATED ****
             **** ENERGY FILE WAS UPDATED (/home/rudenko/mop_saddle_orca_4_serv/for_orca/CH2CHCH2NO2_pyridine/orca/orca_end/end.en.tmp) ****
             **** THE GBW FILE WAS UPDATED (/home/rudenko/mop_saddle_orca_4_serv/for_orca/CH2CHCH2NO2_pyridine/orca/orca_end/end.gbw) ****
             **** DENSITY /home/rudenko/mop_saddle_orca_4_serv/for_orca/CH2CHCH2NO2_pyridine/orca/orca_end/end.scfp WAS UPDATED ****
----------------
ORBITAL ENERGIES
----------------

  NO   OCC          E(Eh)            E(eV) 
   0   2.0000     -19.146203      -520.9947 
   1   2.0000     -19.085852      -519.3524 
   2   2.0000     -19.084165      -519.3065 
   3   2.0000     -14.482952      -394.1012 
   4   2.0000     -14.414678      -392.2433 
   5   2.0000     -10.260750      -279.2092 
   6   2.0000     -10.260456      -279.2012 
   7   2.0000     -10.225045      -278.2376 
   8   2.0000     -10.215532      -277.9788 
   9   2.0000     -10.215341      -277.9736 
  10   2.0000     -10.171263      -276.7741 
  11   2.0000     -10.170076      -276.7418 
  12   2.0000     -10.144565      -276.0476 
  13   2.0000      -1.156705       -31.4755 
  14   2.0000      -1.031323       -28.0637 
  15   2.0000      -1.011293       -27.5187 
  16   2.0000      -0.970369       -26.4051 
  17   2.0000      -0.845729       -23.0135 
  18   2.0000      -0.813754       -22.1434 
  19   2.0000      -0.804497       -21.8915 
  20   2.0000      -0.740267       -20.1437 
  21   2.0000      -0.677686       -18.4408 
  22   2.0000      -0.673425       -18.3248 
  23   2.0000      -0.598033       -16.2733 
  24   2.0000      -0.593950       -16.1622 
  25   2.0000      -0.545786       -14.8516 
  26   2.0000      -0.532291       -14.4844 
  27   2.0000      -0.525661       -14.3040 
  28   2.0000      -0.517143       -14.0722 
  29   2.0000      -0.501747       -13.6532 
  30   2.0000      -0.489107       -13.3093 
  31   2.0000      -0.481869       -13.1123 
  32   2.0000      -0.471684       -12.8352 
  33   2.0000      -0.464756       -12.6467 
  34   2.0000      -0.454134       -12.3576 
  35   2.0000      -0.420751       -11.4492 
  36   2.0000      -0.415321       -11.3014 
  37   2.0000      -0.409588       -11.1455 
  38   2.0000      -0.397711       -10.8223 
  39   2.0000      -0.391418       -10.6510 
  40   2.0000      -0.345815        -9.4101 
  41   2.0000      -0.338398        -9.2083 
  42   2.0000      -0.334435        -9.1004 
  43   2.0000      -0.302069        -8.2197 
  44   2.0000      -0.299275        -8.1437 
  45   2.0000      -0.277998        -7.5647 
  46   2.0000      -0.264393        -7.1945 
  47   2.0000      -0.236655        -6.4397 
  48   2.0000      -0.183633        -4.9969 
  49   0.0000      -0.084575        -2.3014 
  50   0.0000      -0.052137        -1.4187 
  51   0.0000      -0.023197        -0.6312 
  52   0.0000       0.020837         0.5670 
  53   0.0000       0.053013         1.4426 
  54   0.0000       0.060967         1.6590 
  55   0.0000       0.067311         1.8316 
  56   0.0000       0.085609         2.3295 
  57   0.0000       0.086709         2.3595 
  58   0.0000       0.088009         2.3948 
  59   0.0000       0.090087         2.4514 
  60   0.0000       0.101156         2.7526 
  61   0.0000       0.108239         2.9453 
  62   0.0000       0.117811         3.2058 
  63   0.0000       0.130318         3.5461 
  64   0.0000       0.143118         3.8944 
  65   0.0000       0.145410         3.9568 
  66   0.0000       0.150491         4.0951 
  67   0.0000       0.172029         4.6811 
  68   0.0000       0.185346         5.0435 
  69   0.0000       0.188886         5.1399 
  70   0.0000       0.200854         5.4655 
  71   0.0000       0.206781         5.6268 
  72   0.0000       0.211846         5.7646 
  73   0.0000       0.215768         5.8713 
  74   0.0000       0.220450         5.9987 
  75   0.0000       0.225812         6.1447 
  76   0.0000       0.226245         6.1564 
  77   0.0000       0.230224         6.2647 
  78   0.0000       0.238902         6.5009 
  79   0.0000       0.241705         6.5771 
  80   0.0000       0.243366         6.6223 
  81   0.0000       0.251038         6.8311 
  82   0.0000       0.266199         7.2436 
  83   0.0000       0.274934         7.4813 
  84   0.0000       0.283672         7.7191 
  85   0.0000       0.294560         8.0154 
  86   0.0000       0.309960         8.4344 
  87   0.0000       0.314658         8.5623 
  88   0.0000       0.318175         8.6580 
  89   0.0000       0.323813         8.8114 
  90   0.0000       0.330722         8.9994 
  91   0.0000       0.333915         9.0863 
  92   0.0000       0.342349         9.3158 
  93   0.0000       0.363727         9.8975 
  94   0.0000       0.369223        10.0471 
  95   0.0000       0.380854        10.3636 
  96   0.0000       0.393703        10.7132 
  97   0.0000       0.402515        10.9530 
  98   0.0000       0.406517        11.0619 
  99   0.0000       0.409306        11.1378 
 100   0.0000       0.413019        11.2388 
 101   0.0000       0.420540        11.4435 
 102   0.0000       0.427831        11.6419 
 103   0.0000       0.431980        11.7548 
 104   0.0000       0.435835        11.8597 
 105   0.0000       0.443689        12.0734 
 106   0.0000       0.450006        12.2453 
 107   0.0000       0.454266        12.3612 
 108   0.0000       0.456626        12.4254 
 109   0.0000       0.465971        12.6797 
 110   0.0000       0.473120        12.8742 
 111   0.0000       0.481401        13.0996 
 112   0.0000       0.482236        13.1223 
 113   0.0000       0.490574        13.3492 
 114   0.0000       0.496079        13.4990 
 115   0.0000       0.508651        13.8411 
 116   0.0000       0.514114        13.9898 
 117   0.0000       0.526224        14.3193 
 118   0.0000       0.538261        14.6468 
 119   0.0000       0.541467        14.7341 
 120   0.0000       0.551487        15.0067 
 121   0.0000       0.561882        15.2896 
 122   0.0000       0.578030        15.7290 
 123   0.0000       0.584915        15.9164 
 124   0.0000       0.601468        16.3668 
 125   0.0000       0.611932        16.6515 
 126   0.0000       0.613913        16.7054 
 127   0.0000       0.617906        16.8141 
 128   0.0000       0.621077        16.9004 
 129   0.0000       0.631071        17.1723 
 130   0.0000       0.635238        17.2857 
 131   0.0000       0.643738        17.5170 
 132   0.0000       0.655940        17.8490 
 133   0.0000       0.669624        18.2214 
 134   0.0000       0.675528        18.3820 
 135   0.0000       0.689356        18.7583 
 136   0.0000       0.709514        19.3069 
 137   0.0000       0.710681        19.3386 
 138   0.0000       0.715368        19.4661 
 139   0.0000       0.725712        19.7476 
 140   0.0000       0.742728        20.2107 
 141   0.0000       0.748861        20.3775 
 142   0.0000       0.761563        20.7232 
 143   0.0000       0.780659        21.2428 
 144   0.0000       0.809871        22.0377 
 145   0.0000       0.822157        22.3720 
 146   0.0000       0.831084        22.6150 
 147   0.0000       0.835268        22.7288 
 148   0.0000       0.847870        23.0717 
 149   0.0000       0.868658        23.6374 
 150   0.0000       0.877924        23.8895 
 151   0.0000       0.897524        24.4229 
 152   0.0000       0.927009        25.2252 
 153   0.0000       0.932781        25.3823 
 154   0.0000       0.962829        26.1999 
 155   0.0000       0.980608        26.6837 
 156   0.0000       0.991300        26.9746 
 157   0.0000       1.011628        27.5278 
 158   0.0000       1.017951        27.6999 
 159   0.0000       1.028944        27.9990 
 160   0.0000       1.033999        28.1365 
 161   0.0000       1.068848        29.0848 
 162   0.0000       1.077218        29.3126 
 163   0.0000       1.082546        29.4576 
 164   0.0000       1.098376        29.8883 
 165   0.0000       1.108116        30.1534 
 166   0.0000       1.147606        31.2279 
 167   0.0000       1.158141        31.5146 
 168   0.0000       1.168899        31.8074 
 169   0.0000       1.173082        31.9212 
 170   0.0000       1.179462        32.0948 
 171   0.0000       1.199455        32.6388 
 172   0.0000       1.215874        33.0856 
 173   0.0000       1.233270        33.5590 
 174   0.0000       1.242505        33.8103 
 175   0.0000       1.245935        33.9036 
 176   0.0000       1.248100        33.9625 
 177   0.0000       1.260264        34.2935 
 178   0.0000       1.267368        34.4868 
 179   0.0000       1.275797        34.7162 
 180   0.0000       1.281261        34.8649 
 181   0.0000       1.305874        35.5346 
 182   0.0000       1.308192        35.5977 
 183   0.0000       1.353911        36.8418 
 184   0.0000       1.365472        37.1564 
 185   0.0000       1.374484        37.4016 
 186   0.0000       1.392650        37.8959 
 187   0.0000       1.411090        38.3977 
 188   0.0000       1.419203        38.6185 
 189   0.0000       1.437923        39.1279 
 190   0.0000       1.447600        39.3912 
 191   0.0000       1.453933        39.5635 
 192   0.0000       1.477568        40.2067 
 193   0.0000       1.488070        40.4924 
 194   0.0000       1.495280        40.6886 
 195   0.0000       1.509739        41.0821 
 196   0.0000       1.519455        41.3465 
 197   0.0000       1.520927        41.3865 
 198   0.0000       1.543417        41.9985 
 199   0.0000       1.546040        42.0699 
 200   0.0000       1.563907        42.5561 
 201   0.0000       1.578594        42.9557 
 202   0.0000       1.588885        43.2358 
 203   0.0000       1.617259        44.0079 
 204   0.0000       1.618888        44.0522 
 205   0.0000       1.638750        44.5926 
 206   0.0000       1.641928        44.6791 
 207   0.0000       1.649940        44.8972 
 208   0.0000       1.664045        45.2810 
 209   0.0000       1.669413        45.4270 
 210   0.0000       1.677930        45.6588 
 211   0.0000       1.682620        45.7864 
 212   0.0000       1.685687        45.8699 
 213   0.0000       1.692607        46.0582 
 214   0.0000       1.697241        46.1843 
 215   0.0000       1.718416        46.7605 
 216   0.0000       1.727234        47.0004 
 217   0.0000       1.731448        47.1151 
 218   0.0000       1.741547        47.3899 
 219   0.0000       1.756624        47.8002 
 220   0.0000       1.762387        47.9570 
 221   0.0000       1.788305        48.6622 
 222   0.0000       1.801032        49.0086 
 223   0.0000       1.843174        50.1553 
 224   0.0000       1.852629        50.4126 
 225   0.0000       1.862490        50.6809 
 226   0.0000       1.866518        50.7905 
 227   0.0000       1.878670        51.1212 
 228   0.0000       1.903651        51.8010 
 229   0.0000       1.927370        52.4464 
 230   0.0000       1.962663        53.4068 
 231   0.0000       1.974268        53.7226 
 232   0.0000       2.003206        54.5100 
 233   0.0000       2.006679        54.6045 
 234   0.0000       2.014157        54.8080 
 235   0.0000       2.029889        55.2361 
 236   0.0000       2.042677        55.5841 
 237   0.0000       2.046756        55.6951 
 238   0.0000       2.069238        56.3068 
 239   0.0000       2.073390        56.4198 
 240   0.0000       2.079231        56.5788 
 241   0.0000       2.102195        57.2036 
 242   0.0000       2.124257        57.8040 
 243   0.0000       2.142242        58.2934 
 244   0.0000       2.145774        58.3895 
 245   0.0000       2.164405        58.8965 
 246   0.0000       2.189551        59.5807 
 247   0.0000       2.191700        59.6392 
 248   0.0000       2.208916        60.1077 
 249   0.0000       2.220941        60.4349 
 250   0.0000       2.246529        61.1312 
 251   0.0000       2.255273        61.3691 
 252   0.0000       2.264833        61.6292 
 253   0.0000       2.267815        61.7104 
 254   0.0000       2.303785        62.6892 
 255   0.0000       2.316657        63.0395 
 256   0.0000       2.327192        63.3261 
 257   0.0000       2.356296        64.1181 
 258   0.0000       2.366575        64.3978 
 259   0.0000       2.369429        64.4754 
 260   0.0000       2.395850        65.1944 
 261   0.0000       2.399937        65.3056 
 262   0.0000       2.425842        66.0105 
 263   0.0000       2.466051        67.1046 
 264   0.0000       2.484456        67.6055 
 265   0.0000       2.498046        67.9753 
 266   0.0000       2.504188        68.1424 
 267   0.0000       2.526202        68.7415 
 268   0.0000       2.538778        69.0837 
 269   0.0000       2.541913        69.1690 
 270   0.0000       2.549120        69.3651 
 271   0.0000       2.554062        69.4995 
 272   0.0000       2.569792        69.9276 
 273   0.0000       2.578834        70.1736 
 274   0.0000       2.590019        70.4780 
 275   0.0000       2.609188        70.9996 
 276   0.0000       2.613630        71.1205 
 277   0.0000       2.622514        71.3622 
 278   0.0000       2.630459        71.5784 
 279   0.0000       2.649413        72.0942 
 280   0.0000       2.653131        72.1954 
 281   0.0000       2.654531        72.2335 
 282   0.0000       2.660161        72.3866 
 283   0.0000       2.662896        72.4611 
 284   0.0000       2.675205        72.7960 
 285   0.0000       2.680143        72.9304 
 286   0.0000       2.699494        73.4570 
 287   0.0000       2.743491        74.6542 
 288   0.0000       2.749696        74.8230 
 289   0.0000       2.758628        75.0661 
 290   0.0000       2.767388        75.3044 
 291   0.0000       2.772665        75.4481 
 292   0.0000       2.773253        75.4640 
 293   0.0000       2.775407        75.5227 
 294   0.0000       2.781873        75.6986 
 295   0.0000       2.802564        76.2616 
 296   0.0000       2.812102        76.5212 
 297   0.0000       2.816527        76.6416 
 298   0.0000       2.839283        77.2608 
 299   0.0000       2.847308        77.4792 
 300   0.0000       2.849220        77.5312 
 301   0.0000       2.861568        77.8672 
 302   0.0000       2.907234        79.1099 
 303   0.0000       2.915557        79.3363 
 304   0.0000       2.927597        79.6640 
 305   0.0000       2.953168        80.3598 
 306   0.0000       2.962415        80.6114 
 307   0.0000       2.986732        81.2731 
 308   0.0000       2.993854        81.4669 
 309   0.0000       2.998445        81.5918 
 310   0.0000       3.024970        82.3136 
 311   0.0000       3.026341        82.3509 
 312   0.0000       3.040258        82.7296 
 313   0.0000       3.051226        83.0281 
 314   0.0000       3.066487        83.4434 
 315   0.0000       3.077169        83.7340 
 316   0.0000       3.093717        84.1843 
 317   0.0000       3.099173        84.3328 
 318   0.0000       3.104087        84.4665 
 319   0.0000       3.104849        84.4872 
 320   0.0000       3.112947        84.7076 
 321   0.0000       3.123921        85.0062 
 322   0.0000       3.129200        85.1499 
 323   0.0000       3.133892        85.2775 
 324   0.0000       3.150612        85.7325 
 325   0.0000       3.167398        86.1893 
 326   0.0000       3.176458        86.4358 
 327   0.0000       3.186330        86.7044 
 328   0.0000       3.197641        87.0122 
 329   0.0000       3.200761        87.0971 
 330   0.0000       3.220507        87.6345 
 331   0.0000       3.226412        87.7951 
 332   0.0000       3.233838        87.9972 
 333   0.0000       3.242013        88.2197 
 334   0.0000       3.253888        88.5428 
 335   0.0000       3.287478        89.4568 
 336   0.0000       3.304141        89.9102 
 337   0.0000       3.322093        90.3987 
 338   0.0000       3.323110        90.4264 
 339   0.0000       3.326502        90.5187 
 340   0.0000       3.330324        90.6227 
 341   0.0000       3.377922        91.9179 
 342   0.0000       3.385098        92.1132 
 343   0.0000       3.395928        92.4079 
 344   0.0000       3.417032        92.9822 
 345   0.0000       3.421518        93.1042 
 346   0.0000       3.439322        93.5887 
 347   0.0000       3.447142        93.8015 
 348   0.0000       3.486855        94.8822 
 349   0.0000       3.494712        95.0959 
 350   0.0000       3.502955        95.3202 
 351   0.0000       3.544880        96.4611 
 352   0.0000       3.569912        97.1423 
 353   0.0000       3.588653        97.6522 
 354   0.0000       3.612792        98.3091 
 355   0.0000       3.639996        99.0493 
 356   0.0000       3.668008        99.8116 
 357   0.0000       3.675829       100.0244 
 358   0.0000       3.718572       101.1875 
 359   0.0000       3.723780       101.3292 
 360   0.0000       3.728768       101.4649 
 361   0.0000       3.751970       102.0963 
 362   0.0000       3.772354       102.6510 
 363   0.0000       3.814536       103.7988 
 364   0.0000       3.833976       104.3278 
 365   0.0000       3.864074       105.1468 
 366   0.0000       3.888717       105.8174 
 367   0.0000       3.916403       106.5707 
 368   0.0000       3.952255       107.5463 
 369   0.0000       3.955773       107.6421 
 370   0.0000       3.979471       108.2869 
 371   0.0000       4.005405       108.9926 
 372   0.0000       4.040352       109.9436 
 373   0.0000       4.043839       110.0385 
 374   0.0000       4.060970       110.5046 
 375   0.0000       4.119889       112.1079 
 376   0.0000       4.125523       112.2612 
 377   0.0000       4.139595       112.6441 
 378   0.0000       4.151821       112.9768 
 379   0.0000       4.172688       113.5446 
 380   0.0000       4.223182       114.9186 
 381   0.0000       4.240180       115.3812 
 382   0.0000       4.251034       115.6765 
 383   0.0000       4.279317       116.4461 
 384   0.0000       4.324396       117.6728 
 385   0.0000       4.335597       117.9776 
 386   0.0000       4.350200       118.3750 
 387   0.0000       4.352717       118.4434 
 388   0.0000       4.412049       120.0580 
 389   0.0000       4.419645       120.2646 
 390   0.0000       4.500775       122.4723 
 391   0.0000       4.530695       123.2865 
 392   0.0000       4.555302       123.9561 
 393   0.0000       4.581484       124.6685 
 394   0.0000       4.624433       125.8372 
 395   0.0000       4.700081       127.8957 
 396   0.0000       4.708743       128.1314 
 397   0.0000       4.717813       128.3782 
 398   0.0000       4.730460       128.7224 
 399   0.0000       4.744264       129.0980 
 400   0.0000       4.759720       129.5186 
 401   0.0000       4.774903       129.9317 
 402   0.0000       4.780623       130.0874 
 403   0.0000       4.807392       130.8158 
 404   0.0000       4.881023       132.8194 
 405   0.0000       4.885226       132.9338 
 406   0.0000       4.894699       133.1915 
 407   0.0000       4.918409       133.8367 
 408   0.0000       4.952654       134.7686 
 409   0.0000       5.003700       136.1576 
 410   0.0000       5.040040       137.1465 
 411   0.0000       5.052618       137.4887 
 412   0.0000       5.083107       138.3184 
 413   0.0000       5.099249       138.7576 
 414   0.0000       5.107081       138.9707 
 415   0.0000       5.130011       139.5947 
 416   0.0000       5.146939       140.0553 
 417   0.0000       5.149916       140.1363 
 418   0.0000       5.185566       141.1064 
 419   0.0000       5.198965       141.4710 
 420   0.0000       5.202549       141.5686 
 421   0.0000       5.207008       141.6899 
 422   0.0000       5.264179       143.2456 
 423   0.0000       5.297141       144.1425 
 424   0.0000       5.301913       144.2724 
 425   0.0000       5.318457       144.7226 
 426   0.0000       5.357609       145.7879 
 427   0.0000       5.407967       147.1583 
 428   0.0000       5.442247       148.0911 
 429   0.0000       5.458591       148.5358 
 430   0.0000       5.481230       149.1518 
 431   0.0000       5.543585       150.8486 
 432   0.0000       5.592209       152.1718 
 433   0.0000       5.662407       154.0819 
 434   0.0000       5.682369       154.6251 
 435   0.0000       5.712116       155.4346 
 436   0.0000       5.780231       157.2881 
 437   0.0000       5.836224       158.8117 
 438   0.0000       5.913696       160.9198 
 439   0.0000       5.993561       163.0931 
 440   0.0000       6.009519       163.5273 
 441   0.0000       6.232469       169.5941 
 442   0.0000       6.258059       170.2905 
 443   0.0000       6.296368       171.3329 
 444   0.0000       6.344759       172.6497 
 445   0.0000       6.369240       173.3158 
 446   0.0000       6.404442       174.2737 
 447   0.0000       6.420200       174.7025 
 448   0.0000       6.430869       174.9928 
 449   0.0000       6.455564       175.6648 
 450   0.0000       6.549663       178.2254 
 451   0.0000       6.747305       183.6035 
 452   0.0000       6.864223       186.7850 
 453   0.0000       6.878096       187.1625 
 454   0.0000       6.908325       187.9851 
 455   0.0000       6.932636       188.6466 
 456   0.0000       7.040880       191.5921 
 457   0.0000       7.151677       194.6070 
 458   0.0000       7.251077       197.3118 
 459   0.0000       7.274615       197.9523 
 460   0.0000       7.482382       203.6060 
 461   0.0000       7.625786       207.5082 
 462   0.0000      22.144034       602.5698 
 463   0.0000      22.221292       604.6721 
 464   0.0000      22.457126       611.0895 
 465   0.0000      22.495438       612.1320 
 466   0.0000      22.626172       615.6894 
 467   0.0000      22.668631       616.8448 
 468   0.0000      22.873808       622.4280 
 469   0.0000      22.875323       622.4692 
 470   0.0000      32.341965       880.0696 
 471   0.0000      32.388879       881.3462 
 472   0.0000      43.464905      1182.7402 
 473   0.0000      43.971955      1196.5377 
 474   0.0000      44.100205      1200.0276 

                    ********************************
                    * MULLIKEN POPULATION ANALYSIS *
                    ********************************

-----------------------
MULLIKEN ATOMIC CHARGES
-----------------------
   0 C :   -0.090833
   1 H :    0.125065
   2 N :    0.427686
   3 O :   -0.562128
   4 O :   -0.574686
   5 H :    0.123564
   6 C :   -0.334597
   7 H :    0.376564
   8 H :    0.159914
   9 C :   -0.390223
  10 H :    0.130131
  11 C :    0.006089
  12 C :   -0.106389
  13 C :   -0.083123
  14 C :   -0.107854
  15 C :    0.009193
  16 N :   -0.088061
  17 H :    0.208284
  18 H :    0.185117
  19 H :    0.184671
  20 H :    0.209935
  21 H :    0.185073
  22 H :    0.376659
  23 H :    0.304996
  24 O :   -0.675047
Sum of atomic charges:   -0.0000000

--------------------------------
MULLIKEN REDUCED ORBITAL CHARGES
--------------------------------
  0 C s       :     3.192692  s :     3.192692
      pz      :     0.918192  p :     2.805815
      px      :     0.927924
      py      :     0.959698
      dz2     :     0.010680  d :     0.085046
      dxz     :     0.015042
      dyz     :     0.029494
      dx2y2   :     0.008766
      dxy     :     0.021065
      f0      :     0.001226  f :     0.007280
      f+1     :     0.000820
      f-1     :     0.001176
      f+2     :     0.001211
      f-2     :     0.000711
      f+3     :     0.001149
      f-3     :     0.000986
  1 H s       :     0.852766  s :     0.852766
      pz      :     0.010036  p :     0.022169
      px      :     0.004394
      py      :     0.007738
  2 N s       :     3.266234  s :     3.266234
      pz      :     0.845720  p :     3.060431
      px      :     1.189633
      py      :     1.025078
      dz2     :     0.062128  d :     0.231617
      dxz     :     0.050041
      dyz     :     0.061510
      dx2y2   :     0.017577
      dxy     :     0.040361
      f0      :     0.003422  f :     0.014033
      f+1     :     0.001727
      f-1     :     0.002551
      f+2     :     0.002669
      f-2     :     0.002163
      f+3     :     0.000898
      f-3     :     0.000603
  3 O s       :     3.872113  s :     3.872113
      pz      :     1.413749  p :     4.650804
      px      :     1.638534
      py      :     1.598520
      dz2     :     0.008434  d :     0.036249
      dxz     :     0.006193
      dyz     :     0.013917
      dx2y2   :     0.003587
      dxy     :     0.004118
      f0      :     0.000419  f :     0.002963
      f+1     :     0.000231
      f-1     :     0.001065
      f+2     :     0.000576
      f-2     :     0.000489
      f+3     :     0.000100
      f-3     :     0.000083
  4 O s       :     3.875361  s :     3.875361
      pz      :     1.264462  p :     4.660382
      px      :     1.649514
      py      :     1.746406
      dz2     :     0.012993  d :     0.035987
      dxz     :     0.007759
      dyz     :     0.011341
      dx2y2   :     0.001603
      dxy     :     0.002291
      f0      :     0.000754  f :     0.002956
      f+1     :     0.000443
      f-1     :     0.001120
      f+2     :     0.000285
      f-2     :     0.000313
[...]
      pz      :     1.135577  p :     3.540955
      px      :     1.168589
      py      :     1.236789
      dz2     :     0.012354  d :     0.067208
      dxz     :     0.016071
      dyz     :     0.016582
      dx2y2   :     0.012431
      dxy     :     0.009770
      f0      :     0.000774  f :     0.004499
      f+1     :     0.000606
      f-1     :     0.000610
      f+2     :     0.000398
      f-2     :     0.000899
      f+3     :     0.000768
      f-3     :     0.000444
 17 H s       :     0.753297  s :     0.753297
      pz      :     0.003153  p :     0.022313
      px      :     0.011368
      py      :     0.007792
 18 H s       :     0.794292  s :     0.794292
      pz      :     0.012396  p :     0.022537
      px      :     0.006222
      py      :     0.003918
 19 H s       :     0.793836  s :     0.793836
      pz      :     0.004083  p :     0.022540
      px      :     0.011252
      py      :     0.007205
 20 H s       :     0.772111  s :     0.772111
      pz      :     0.013299  p :     0.022035
      px      :     0.005106
      py      :     0.003631
 21 H s       :     0.795056  s :     0.795056
      pz      :     0.008807  p :     0.022140
      px      :     0.005021
      py      :     0.008313
 22 H s       :     0.581840  s :     0.581840
      pz      :     0.013783  p :     0.044856
      px      :     0.013231
      py      :     0.017842
 23 H s       :     0.653064  s :     0.653064
      pz      :     0.020121  p :     0.050970
      px      :     0.010251
      py      :     0.020598
 24 O s       :     3.790928  s :     3.790928
      pz      :     1.883112  p :     4.870910
      px      :     1.429599
      py      :     1.558199
      dz2     :     0.002907  d :     0.018276
      dxz     :     0.002941
      dyz     :     0.002059
      dx2y2   :     0.004461
      dxy     :     0.005907
      f0      :     0.000220  f :     0.001177
      f+1     :     0.000157
      f-1     :     0.000215
      f+2     :     0.000170
      f-2     :     0.000077
      f+3     :     0.000303
      f-3     :     0.000035


                     *******************************
                     * LOEWDIN POPULATION ANALYSIS *
                     *******************************

----------------------
LOEWDIN ATOMIC CHARGES
----------------------
   0 C :   -0.250526
   1 H :    0.144869
   2 N :   -0.069572
   3 O :   -0.272195
   4 O :   -0.288940
   5 H :    0.117376
   6 C :   -0.323514
   7 H :    0.164015
   8 H :    0.134611
   9 C :   -0.269949
  10 H :    0.117983
  11 C :   -0.100383
  12 C :   -0.096453
  13 C :   -0.052752
  14 C :   -0.097098
  15 C :   -0.097392
  16 N :    0.274942
  17 H :    0.164712
  18 H :    0.168543
  19 H :    0.168366
  20 H :    0.167269
  21 H :    0.167930
  22 H :    0.182633
  23 H :    0.208053
  24 O :   -0.262528

-------------------------------
LOEWDIN REDUCED ORBITAL CHARGES
-------------------------------
  0 C s       :     2.787509  s :     2.787509
      pz      :     0.979699  p :     2.986889
      px      :     0.919509
      py      :     1.087681
      dz2     :     0.064669  d :     0.431578
      dxz     :     0.039298
      dyz     :     0.118163
      dx2y2   :     0.088877
      dxy     :     0.120570
      f0      :     0.002648  f :     0.044551
      f+1     :     0.003116
      f-1     :     0.011086
      f+2     :     0.006265
      f-2     :     0.006174
      f+3     :     0.007078
      f-3     :     0.008184
  1 H s       :     0.795288  s :     0.795288
      pz      :     0.029077  p :     0.059844
      px      :     0.018291
      py      :     0.012475
  2 N s       :     2.930763  s :     2.930763
      pz      :     1.095485  p :     3.345839
      px      :     1.083074
      py      :     1.167280
      dz2     :     0.161277  d :     0.727632
      dxz     :     0.115092
      dyz     :     0.187155
      dx2y2   :     0.117232
      dxy     :     0.146877
      f0      :     0.008878  f :     0.065337
      f+1     :     0.007266
      f-1     :     0.015641
      f+2     :     0.007375
      f-2     :     0.010662
      f+3     :     0.007488
      f-3     :     0.008027
  3 O s       :     3.533353  s :     3.533353
      pz      :     1.368203  p :     4.641973
      px      :     1.519353
      py      :     1.754417
      dz2     :     0.028039  d :     0.087674
      dxz     :     0.031089
      dyz     :     0.014844
      dx2y2   :     0.006992
      dxy     :     0.006711
      f0      :     0.001792  f :     0.009195
      f+1     :     0.003102
      f-1     :     0.001114
      f+2     :     0.001473
      f-2     :     0.001304
      f+3     :     0.000191
      f-3     :     0.000219
  4 O s       :     3.539426  s :     3.539426
      pz      :     1.621025  p :     4.653923
      px      :     1.558650
      py      :     1.474248
      dz2     :     0.010887  d :     0.086595
      dxz     :     0.010799
      dyz     :     0.025019
      dx2y2   :     0.016342
      dxy     :     0.023548
      f0      :     0.000983  f :     0.008997
      f+1     :     0.000459
      f-1     :     0.001274
      f+2     :     0.001358
      f-2     :     0.002131
      f+3     :     0.001630
      f-3     :     0.001162
  5 H s       :     0.819237  s :     0.819237
      pz      :     0.030094  p :     0.063386
      px      :     0.021208
      py      :     0.012085
  6 C s       :     2.793439  s :     2.793439
      pz      :     1.031038  p :     3.051338
      px      :     1.075797
      py      :     0.944503
      dz2     :     0.072148  d :     0.423586
      dxz     :     0.047015
      dyz     :     0.106768
      dx2y2   :     0.105583
      dxy     :     0.092072
      f0      :     0.003968  f :     0.055150
      f+1     :     0.003175
      f-1     :     0.011520
      f+2     :     0.009223
      f-2     :     0.007398
      f+3     :     0.009436
      f-3     :     0.010431
  7 H s       :     0.662900  s :     0.662900
      pz      :     0.052109  p :     0.173085
      px      :     0.085955
      py      :     0.035020
  8 H s       :     0.799739  s :     0.799739
      pz      :     0.033182  p :     0.065650
      px      :     0.023619
      py      :     0.008849
  9 C s       :     2.855285  s :     2.855285
      pz      :     1.039785  p :     3.153905
      px      :     1.029325
      py      :     1.084795
      dz2     :     0.040034  d :     0.233793
      dxz     :     0.019474
      dyz     :     0.076257
      dx2y2   :     0.041759
      dxy     :     0.056270
      f0      :     0.002022  f :     0.026966
      f+1     :     0.002372
      f-1     :     0.005286
      f+2     :     0.004480
      f-2     :     0.003657
      f+3     :     0.005157
      f-3     :     0.003991
 10 H s       :     0.818183  s :     0.818183
      pz      :     0.019302  p :     0.063834
      px      :     0.020825
      py      :     0.023707
 11 C s       :     2.773298  s :     2.773298
      pz      :     0.945205  p :     2.814677
      px      :     0.931876
      py      :     0.937596
      dz2     :     0.150367  d :     0.449595
      dxz     :     0.099387
      dyz     :     0.099451
      dx2y2   :     0.033827
      dxy     :     0.066562
      f0      :     0.013169  f :     0.062814
      f+1     :     0.011043
      f-1     :     0.012462
      f+2     :     0.009897
      f-2     :     0.009418
      f+3     :     0.002779
      f-3     :     0.004046
 12 C s       :     2.766837  s :     2.766837
      pz      :     0.989869  p :     2.925675
      px      :     0.979341
      py      :     0.956465
      dz2     :     0.077959  d :     0.360425
      dxz     :     0.092892
      dyz     :     0.057262
      dx2y2   :     0.062286
      dxy     :     0.070026
      f0      :     0.005960  f :     0.043516
      f+1     :     0.005709
      f-1     :     0.006939
      f+2     :     0.006240
      f-2     :     0.007418
      f+3     :     0.006041
      f-3     :     0.005208
 13 C s       :     2.770938  s :     2.770938
      pz      :     1.000183  p :     2.857994
      px      :     0.962722
      py      :     0.895089
      dz2     :     0.074309  d :     0.380115
      dxz     :     0.103480
      dyz     :     0.087764
      dx2y2   :     0.058539
      dxy     :     0.056022
      f0      :     0.008719  f :     0.043705
      f+1     :     0.006773
      f-1     :     0.006846
      f+2     :     0.004141
      f-2     :     0.006719
      f+3     :     0.006005
      f-3     :     0.004503
 14 C s       :     2.766978  s :     2.766978
      pz      :     1.030800  p :     2.926299
      px      :     0.955571
      py      :     0.939928
      dz2     :     0.105466  d :     0.360324
      dxz     :     0.078814
      dyz     :     0.088176
      dx2y2   :     0.035143
      dxy     :     0.052723
      f0      :     0.007741  f :     0.043498
      f+1     :     0.006794
      f-1     :     0.008547
      f+2     :     0.007093
      f-2     :     0.007118
      f+3     :     0.002545
      f-3     :     0.003660
 15 C s       :     2.773456  s :     2.773456
      pz      :     1.003579  p :     2.811876
      px      :     0.895135
      py      :     0.913162
      dz2     :     0.100129  d :     0.449372
      dxz     :     0.093113
      dyz     :     0.060021
      dx2y2   :     0.099109
      dxy     :     0.097000
      f0      :     0.007906  f :     0.062688
      f+1     :     0.008068
      f-1     :     0.008319
      f+2     :     0.007899
      f-2     :     0.009960
      f+3     :     0.011703
      f-3     :     0.008833
 16 N s       :     2.909561  s :     2.909561
      pz      :     1.181243  p :     3.543232
      px      :     1.186843
      py      :     1.175146
      dz2     :     0.050771  d :     0.254784
      dxz     :     0.067889
      dyz     :     0.057069
      dx2y2   :     0.041289
      dxy     :     0.037767
      f0      :     0.003587  f :     0.017481
      f+1     :     0.002588
      f-1     :     0.002827
      f+2     :     0.001680
      f-2     :     0.002474
      f+3     :     0.002384
      f-3     :     0.001942
 17 H s       :     0.772898  s :     0.772898
      pz      :     0.009681  p :     0.062391
      px      :     0.031079
      py      :     0.021631
 18 H s       :     0.770853  s :     0.770853
      pz      :     0.032062  p :     0.060604
      px      :     0.017158
      py      :     0.011384
 19 H s       :     0.771037  s :     0.771037
      pz      :     0.011975  p :     0.060597
      px      :     0.029296
      py      :     0.019325
 20 H s       :     0.770881  s :     0.770881
      pz      :     0.036114  p :     0.061850
      px      :     0.014825
      py      :     0.010911
 21 H s       :     0.772497  s :     0.772497
      pz      :     0.023500  p :     0.059572
      px      :     0.014042
      py      :     0.022030
 22 H s       :     0.657809  s :     0.657809
      pz      :     0.042410  p :     0.159558
      px      :     0.041853
      py      :     0.075295
 23 H s       :     0.651886  s :     0.651886
      pz      :     0.055468  p :     0.140061
      px      :     0.028228
      py      :     0.056365
 24 O s       :     3.443708  s :     3.443708
      pz      :     1.810738  p :     4.787497
      px      :     1.418408
      py      :     1.558351
      dz2     :     0.003598  d :     0.029068
      dxz     :     0.004913
      dyz     :     0.002311
      dx2y2   :     0.007751
      dxy     :     0.010495
      f0      :     0.000262  f :     0.002255
      f+1     :     0.000162
      f-1     :     0.000343
      f+2     :     0.000311
      f-2     :     0.000163
      f+3     :     0.000783
      f-3     :     0.000230


                      *****************************
                      * MAYER POPULATION ANALYSIS *
                      *****************************

  NA   - Mulliken gross atomic population
  ZA   - Total nuclear charge
  QA   - Mulliken gross atomic charge
  VA   - Mayer's total valence
  BVA  - Mayer's bonded valence
  FA   - Mayer's free valence

  ATOM       NA         ZA         QA         VA         BVA        FA
  0 C      6.1080     6.0000    -0.1080     3.8186     3.8186    -0.0000
  1 H      0.8753     1.0000     0.1247     1.0080     1.0080    -0.0000
  2 N      6.5904     7.0000     0.4096     4.1171     4.1171     0.0000
  3 O      8.5592     8.0000    -0.5592     1.6565     1.6565     0.0000
  4 O      8.5718     8.0000    -0.5718     1.6147     1.6147     0.0000
  5 H      0.8707     1.0000     0.1293     0.9746     0.9746     0.0000
  6 C      6.3217     6.0000    -0.3217     3.7690     3.7690    -0.0000
  7 H      0.6160     1.0000     0.3840     0.8673     0.8673    -0.0000
  8 H      0.8365     1.0000     0.1635     0.9882     0.9882     0.0000
  9 C      6.3925     6.0000    -0.3925     3.8518     3.8518    -0.0000
 10 H      0.8659     1.0000     0.1341     0.9727     0.9727    -0.0000
 11 C      6.0002     6.0000    -0.0002     3.8861     3.8861     0.0000
 12 C      6.1094     6.0000    -0.1094     3.9097     3.9097     0.0000
 13 C      6.0794     6.0000    -0.0794     3.9352     3.9352     0.0000
 14 C      6.1086     6.0000    -0.1086     3.9084     3.9084    -0.0000
 15 C      5.9883     6.0000     0.0117     3.9032     3.9032     0.0000
 16 N      7.0738     7.0000    -0.0738     3.4604     3.4604     0.0000
 17 H      0.7756     1.0000     0.2244     0.9440     0.9440    -0.0000
 18 H      0.8168     1.0000     0.1832     0.9593     0.9593     0.0000
 19 H      0.8164     1.0000     0.1836     0.9578     0.9578     0.0000
 20 H      0.7941     1.0000     0.2059     0.9529     0.9529    -0.0000
 21 H      0.8172     1.0000     0.1828     0.9556     0.9556    -0.0000
 22 H      0.6267     1.0000     0.3733     0.8758     0.8758    -0.0000
 23 H      0.7040     1.0000     0.2960     0.9563     0.9563    -0.0000
 24 O      8.6813     8.0000    -0.6813     1.8519     1.8519    -0.0000

  Mayer bond orders larger than 0.100000
B(  0-C ,  1-H ) :   0.9443 B(  0-C ,  6-C ) :   1.1645 B(  0-C ,  9-C ) :   1.7231 
B(  2-N ,  3-O ) :   1.3771 B(  2-N ,  4-O ) :   1.3197 B(  2-N ,  6-C ) :   1.3760 
B(  4-O ,  6-C ) :   0.1240 B(  5-H ,  9-C ) :   0.9713 B(  6-C ,  8-H ) :   0.9425 
B(  7-H , 24-O ) :   0.8400 B(  9-C , 10-H ) :   0.9751 B( 11-C , 12-C ) :   1.4508 
B( 11-C , 16-N ) :   1.3080 B( 11-C , 17-H ) :   0.9201 B( 12-C , 13-C ) :   1.3999 
B( 12-C , 18-H ) :   0.9495 B( 13-C , 14-C ) :   1.3990 B( 13-C , 21-H ) :   0.9444 
B( 14-C , 15-C ) :   1.4539 B( 14-C , 19-H ) :   0.9478 B( 15-C , 16-N ) :   1.3137 
B( 15-C , 20-H ) :   0.9329 B( 16-N , 23-H ) :   0.7858 B( 22-H , 24-O ) :   0.8640 
B( 23-H , 24-O ) :   0.1546 

-------
TIMINGS
-------

Total SCF time: 0 days 0 hours 0 min 20 sec 

Total time                  ....      20.417 sec
Sum of individual times     ....      17.930 sec  ( 87.8%)

Fock matrix formation       ....      12.693 sec  ( 62.2%)
  Split-RI-J                ....       2.265 sec  ( 17.8% of F)
  Chain of spheres X        ....       5.796 sec  ( 45.7% of F)
  XC integration            ....       1.408 sec  ( 11.1% of F)
    Basis function eval.    ....       0.140 sec  (  9.9% of XC)
    Density eval.           ....       0.351 sec  ( 24.9% of XC)
    XC-Functional eval.     ....       0.013 sec  (  0.9% of XC)
    XC-Potential eval.      ....       0.156 sec  ( 11.1% of XC)
Diagonalization             ....       0.282 sec  (  1.4%)
Density matrix formation    ....       0.140 sec  (  0.7%)
Population analysis         ....       0.375 sec  (  1.8%)
Initial guess               ....       0.346 sec  (  1.7%)
Orbital Transformation      ....       0.000 sec  (  0.0%)
Orbital Orthonormalization  ....       0.301 sec  (  1.5%)
DIIS solution               ....       0.133 sec  (  0.7%)
SOSCF solution              ....       1.744 sec  (  8.5%)
Grid generation             ....       2.218 sec  ( 10.9%)

Maximum memory used throughout the entire SCF-calculation: 98.4 MB


-------------------------------------------------------------------------------
                          DFT DISPERSION CORRECTION                            
                                                                               
                              DFTD3 V3.1  Rev 1                                
                          USING Becke-Johnson damping                          
-------------------------------------------------------------------------------
The B3LYP functional is recognized
Active option DFTDOPT                   ...         4   

molecular C6(AA) [au] = 6293.275812 


            DFT-D V3
 parameters
 s6 scaling factor         :     1.0000 
 a1 scaling factor         :     0.3981 
 s8 scaling factor         :     1.9889 
 a2 scaling factor         :     4.4211 
 ad hoc parameters k1-k3   :    16.0000     1.3333    -4.0000 

 Edisp/kcal,au: -24.486758057405  -0.039022128681 
 E6   /kcal   : -11.961180495 
 E8   /kcal   : -12.525577562 
 % E8         :  51.152453636 

-------------------------   ----------------
Dispersion correction           -0.039022129
-------------------------   ----------------


-------------------------   --------------------
FINAL SINGLE POINT ENERGY      -647.086981585485
-------------------------   --------------------

                                *** OPTIMIZATION RUN DONE ***

                            ***************************************
                            *     ORCA property calculations      *
                            ***************************************

                                    ---------------------
                                    Active property flags
                                    ---------------------
   (+) Dipole Moment


------------------------------------------------------------------------------
                       ORCA ELECTRIC PROPERTIES CALCULATION
------------------------------------------------------------------------------

Dipole Moment Calculation                       ... on
Quadrupole Moment Calculation                   ... off
Polarizability Calculation                      ... off
GBWName                                         ... /home/rudenko/mop_saddle_orca_4_serv/for_orca/CH2CHCH2NO2_pyridine/orca/orca_end/end.gbw
Electron density                                ... /home/rudenko/mop_saddle_orca_4_serv/for_orca/CH2CHCH2NO2_pyridine/orca/orca_end/end.scfp
The origin for moment calculation is the CENTER OF MASS  = ( 5.914871,  0.192038  4.196939)

-------------
DIPOLE MOMENT
-------------
                                X             Y             Z
Electronic contribution:      2.63577      -2.98819       0.89816
Nuclear contribution   :      4.52844       9.85455       2.07277
                        -----------------------------------------
Total Dipole Moment    :      7.16420       6.86636       2.97092
                        -----------------------------------------
Magnitude (a.u.)       :     10.35853
Magnitude (Debye)      :     26.32929



--------------------
Rotational spectrum 
--------------------
 
Rotational constants in cm-1:     0.047658     0.009513     0.009067 
Rotational constants in MHz :  1428.755048   285.197039   271.810010 

 Dipole components along the rotational axes: 
x,y,z [a.u.] :    10.354922     0.111829    -0.249385 
x,y,z [Debye]:    26.320120     0.284247    -0.633887 

 

Timings for individual modules:

Sum of individual times         ...     3555.810 sec (=  59.263 min)
GTO integral calculation        ...      348.529 sec (=   5.809 min)   9.8 %
SCF iterations                  ...     2505.259 sec (=  41.754 min)  70.5 %
SCF Gradient evaluation         ...      697.704 sec (=  11.628 min)  19.6 %
Geometry relaxation             ...        4.317 sec (=   0.072 min)   0.1 %
                             ****ORCA TERMINATED NORMALLY****
TOTAL RUN TIME: 0 days 1 hours 3 minutes 59 seconds 357 msec
