 *******************************************************************************
 **                                                                           **
 **                              MOPAC v22.0.6                                **
 **                                                                           **
 *******************************************************************************
 **          Digital Object Identifier (DOI): 10.5281/zenodo.6511958          **
 **    Visit the DOI location for information on how to cite this program.    **
 *******************************************************************************

                              PM7 CALCULATION RESULTS

 *******************************************************************************
 *  CALCULATION DONE:                                Tue Mar 26 11:09:57 2024  *
 *  PM7        - The PM7 Hamiltonian to be used
 *  SINGLET    - SPIN STATE DEFINED AS A SINGLET
 *
 *
 *
 *                 CHARGE ON SYSTEM = 0
 *
 *
 *
 *  EPS=78.4   - USE ANDREAS KLAMT'S COSMO IMPLICIT SOLVATION MODEL
 *  SADDLE     - TRANSITION STATE TO BE OPTIMIZED
 *  T=         - A TIME OF 14.0 DAYS REQUESTED
 *  DUMP=N     - RESTART FILE WRITTEN EVERY 30.0 MINUTES REQUESTED
 *  RELSCF     - DEFAULT SCF CRITERION MULTIPLIED BY 1.0000
 *              (DEFAULT SCF CRITERION = 0.00010)
 *  ITRY=      - DO A MAXIMUM OF 15000 ITERATIONS FOR SCF
 *  AUX        - OUTPUT AUXILIARY INFORMATION
 *  BONDS      - FINAL BOND-ORDER MATRIX TO BE PRINTED
 *******************************************************************************
SADDLE PM7 BONDS AUX DUMP=30M ITRY=15000 T=14D CHARGE=0 SINGLET eps=78.4 RELSCF=1


   ATOM   CHEMICAL          X               Y               Z
  NUMBER   SYMBOL      (ANGSTROMS)     (ANGSTROMS)     (ANGSTROMS)

     1       C          0.85914182  *   3.32399644  *   1.90650762  *
     2       C          1.36379171  *   2.02727750  *   1.83204295  *
     3       C          0.49212993  *   0.94429700  *   1.71700528  *
     4       C         -0.88761012  *   1.16181017  *   1.67697339  *
     5       C         -1.38819981  *   2.45694410  *   1.75516012  *
     6       C         -0.51639770  *   3.54024580  *   1.86996216  *
     7       H          1.54382063  *   4.16929696  *   1.98881087  *
     8       H          2.44483123  *   1.86532260  *   1.86359632  *
     9       H         -1.57362279  *   0.31759625  *   1.58214476  *
    10       H         -0.91385866  *   4.55389592  *   1.92954080  *
    11       C          1.06534547  *  -0.44571011  *   1.66229101  *
    12       C          0.50849925  *  -1.34811912  *   2.75633096  *
    13       H          0.97634869  *  -2.34360634  *   2.75321316  *
    14       H         -0.57843261  *  -1.49252128  *   2.67850014  *
    15       H          0.70344712  *  -0.91079864  *   3.74894361  *
    16       N          0.75652078  *  -1.05552100  *   0.32459067  *
    17       O          1.69306766  *  -1.40096987  *  -0.37848113  *
    18       O         -0.40445072  *  -1.18695399  *  -0.02656801  *
    19       N          5.08250120  *   1.36193590  *   4.81177956  *
    20       C          5.66533444  *  -0.00556680  *   4.80397681  *
    21       C          6.81230846  *  -0.11980879  *   5.82095000  *
    22       C          7.88798483  *   0.92575759  *   5.50851506  *
    23       C          7.25467723  *   2.31985130  *   5.56887128  *
    24       C          6.10187075  *   2.41313076  *   4.55646049  *
    25       H          5.58944340  *   3.39713244  *   4.64804013  *
    26       H          6.50689742  *   2.35907449  *   3.52249485  *
    27       H          8.00535210  *   3.10241325  *   5.35450581  *
    28       H          6.88022098  *   2.52116349  *   6.59068881  *
    29       H          7.23562921  *  -1.14088366  *   5.79618100  *
    30       H          6.42614254  *   0.03058107  *   6.84664981  *
    31       H          6.03867031  *  -0.30031801  *   3.79738117  *
    32       H          2.19760687  *  -0.40743765  *   1.75090742  *
    33       H          4.35925204  *   1.42052942  *   4.08517747  *
    34       H          4.84890376  *  -0.71511053  *   5.06821404  *
    35       H          8.72848525  *   0.84662722  *   6.22084787  *
    36       H          8.32177060  *   0.74310778  *   4.50677537  *
    37       H         -2.46553109  *   2.62663664  *   1.72920255  *
    38       H          4.73610574  *   0.11113553  *   2.38811129  *
    39       H          4.36267026  *  -0.14234485  *   0.93678563  *
    40       O          4.18116160  *   0.45069077  *   1.67952804  *



          CARTESIAN COORDINATES 

    NO.       ATOM           X           Y           Z

     1         C          0.8591      3.3240      1.9065
     2         C          1.3638      2.0273      1.8320
     3         C          0.4921      0.9443      1.7170
     4         C         -0.8876      1.1618      1.6770
     5         C         -1.3882      2.4569      1.7552
     6         C         -0.5164      3.5402      1.8700
     7         H          1.5438      4.1693      1.9888
     8         H          2.4448      1.8653      1.8636
     9         H         -1.5736      0.3176      1.5821
    10         H         -0.9139      4.5539      1.9295
    11         C          1.0653     -0.4457      1.6623
    12         C          0.5085     -1.3481      2.7563
    13         H          0.9763     -2.3436      2.7532
    14         H         -0.5784     -1.4925      2.6785
    15         H          0.7034     -0.9108      3.7489
    16         N          0.7565     -1.0555      0.3246
    17         O          1.6931     -1.4010     -0.3785
    18         O         -0.4045     -1.1870     -0.0266
    19         N          5.0825      1.3619      4.8118
    20         C          5.6653     -0.0056      4.8040
    21         C          6.8123     -0.1198      5.8209
    22         C          7.8880      0.9258      5.5085
    23         C          7.2547      2.3199      5.5689
    24         C          6.1019      2.4131      4.5565
    25         H          5.5894      3.3971      4.6480
    26         H          6.5069      2.3591      3.5225
    27         H          8.0054      3.1024      5.3545
    28         H          6.8802      2.5212      6.5907
    29         H          7.2356     -1.1409      5.7962
    30         H          6.4261      0.0306      6.8466
    31         H          6.0387     -0.3003      3.7974
    32         H          2.1976     -0.4074      1.7509
    33         H          4.3593      1.4205      4.0852
    34         H          4.8489     -0.7151      5.0682
    35         H          8.7285      0.8466      6.2208
    36         H          8.3218      0.7431      4.5068
    37         H         -2.4655      2.6266      1.7292
    38         H          4.7361      0.1111      2.3881
    39         H          4.3627     -0.1423      0.9368
    40         O          4.1812      0.4507      1.6795

 General Reference for PM7:
 "Optimization of Parameters for Semiempirical Methods VI: More Modifications to the 
 NDDO Approximations and Re-optimization of Parameters", J. J. P. Stewart, J. Mol. Mod., 1:32, 19 (2013)
 https://link.springer.com/article/10.1007/s00894-012-1667-x

           Empirical Formula: C13 H22 N2 O3  =    40 atoms



      MOLECULAR POINT GROUP   :   C1  


 SINGLET STATE CALCULATION


      RHF CALCULATION, NO. OF DOUBLY OCCUPIED LEVELS = 51



  CARTESIAN GEOMETRY OF FIRST SYSTEM


   1    C          1.95914       2.71650       2.34964
   2    C          2.04128       1.33002       2.24211
   3    C          0.90779       0.59238       1.90237
   4    C         -0.30080       1.24390       1.65237
   5    C         -0.37744       2.63075       1.75205
   6    C          0.75102       3.36776       2.10754
   7    H          2.84411       3.29112       2.62175
   8    H          2.99091       0.82377       2.42326
   9    H         -1.18447       0.66869       1.37609
  10    H          0.68818       4.45272       2.19648
  11    C          1.00565      -0.90757       1.84558
  12    C          0.14985      -1.55341       2.92758
  13    H          0.21358      -2.65124       2.90518
  14    H         -0.91268      -1.28202       2.86064
  15    H          0.48928      -1.23661       3.92708
  16    N          0.62304      -1.39984       0.48425
  17    O          0.83300      -0.68273      -0.48171
  18    O          0.15035      -2.51916       0.36694
  19    N          4.29864      -1.14989       4.75286
  20    C          4.54867      -2.51242       5.28765
  21    C          4.96399      -2.44325       6.76729
  22    C          6.21183      -1.56725       6.92395
  23    C          5.92901      -0.17369       6.35214
  24    C          5.49997      -0.28643       4.87958
  25    H          5.23267       0.71668       4.48062
  26    H          6.35077      -0.65799       4.26867
  27    H          6.82228       0.47093       6.43572
  28    H          5.13193       0.32032       6.93765
  29    H          5.15158      -3.46111       7.15363
  30    H          4.13478      -2.03015       7.37055
  31    H          5.32448      -3.05696       4.70716
  32    H          2.08700      -1.24627       1.97847
  33    H          4.03697      -1.21730       3.75978
  34    H          3.60408      -3.08966       5.18239
  35    H          6.50584      -1.49802       7.98657
  36    H          7.07048      -2.02815       6.40084
  37    H         -1.32247       3.13787       1.55331
  38    H          4.51578      -2.23471       1.53780
  39    H          4.80249      -0.74110       1.44129
  40    O          4.12634      -1.37245       1.71653


  CARTESIAN GEOMETRY OF SECOND SYSTEM


   1    C          1.76112       2.67392       2.06497
   2    C          1.82066       1.28398       1.98608
   3    C          0.68556       0.55554       1.63000
   4    C         -0.51113       1.22173       1.35301
   5    C         -0.56817       2.60878       1.43618
   6    C          0.56721       3.33748       1.79207
   7    H          2.65259       3.24113       2.33636
   8    H          2.76099       0.77000       2.20394
   9    H         -1.40098       0.65612       1.06918
  10    H          0.51765       4.42498       1.85454
  11    C          0.77420      -0.94543       1.57598
  12    C         -0.25206      -1.62160       2.47649
  13    H         -0.14278      -2.71609       2.48371
  14    H         -1.28827      -1.39391       2.18882
  15    H         -0.12739      -1.28502       3.51846
  16    N          0.55691      -1.40291       0.16170
  17    O          1.45036      -2.03382      -0.38093
  18    O         -0.48907      -1.13538      -0.40646
  19    N          4.44806      -0.61649       5.54069
  20    C          4.54356      -2.09995       5.53613
  21    C          5.36402      -2.60142       6.73539
  22    C          6.76071      -1.97184       6.70734
  23    C          6.61673      -0.44701       6.75613
  24    C          5.78315       0.03659       5.55867
  25    H          5.61130       1.13420       5.62903
  26    H          6.34599      -0.13867       4.61604
  27    H          7.60791       0.04217       6.74419
  28    H          6.13247      -0.14303       7.70373
  29    H          5.42813      -3.70492       6.71123
  30    H          4.85160      -2.34157       7.68075
  31    H          4.99336      -2.49179       4.59611
  32    H          1.81564      -1.28840       1.87448
  33    H          3.94333      -0.31205       4.69984
  34    H          3.50541      -2.49888       5.59039
  35    H          7.36999      -2.33464       7.55427
  36    H          7.30188      -2.27826       5.79178
  37    H         -1.50367       3.12876       1.22508
  38    H          4.20392      -1.65409       3.00644
  39    H          4.06544      -1.75294       1.49611
  40    O          3.94257      -1.14123       2.23571


   "DISTANCE":     5.197242


  REACTION COORDINATE VECTOR


   1    C          0.19801       0.04258       0.28466
   2    C          0.22062       0.04604       0.25603
   3    C          0.22223       0.03684       0.27237
   4    C          0.21033       0.02217       0.29936
   5    C          0.19073       0.02197       0.31587
   6    C          0.18381       0.03028       0.31547
   7    H          0.19153       0.04999       0.28539
   8    H          0.22991       0.05377       0.21932
   9    H          0.21651       0.01257       0.30691
  10    H          0.17053       0.02774       0.34194
  11    C          0.23145       0.03786       0.26960
  12    C          0.40192       0.06820       0.45109
  13    H          0.35635       0.06485       0.42147
  14    H          0.37560       0.11189       0.67182
  15    H          0.61666       0.04841       0.40862
  16    N          0.06614       0.00307       0.32255
  17    O         -0.61736       1.35109      -0.10078
  18    O          0.63942      -1.38378       0.77340
  19    N         -0.14941      -0.53340      -0.78784
  20    C          0.00510      -0.41246      -0.24848
  21    C         -0.40003       0.15817       0.03190
  22    C         -0.54888       0.40460       0.21660
  23    C         -0.68772       0.27332      -0.40399
  24    C         -0.28318      -0.32302      -0.67908
  25    H         -0.37863      -0.41751      -1.14841
  26    H          0.00478      -0.51932      -0.34737
  27    H         -0.78563       0.42877      -0.30848
  28    H         -1.00054       0.46335      -0.76608
  29    H         -0.27656       0.24380       0.44240
  30    H         -0.71681       0.31142      -0.31020
  31    H          0.33112      -0.56517       0.11106
  32    H          0.27136       0.04213       0.10399
  33    H          0.09364      -0.90525      -0.94006
  34    H          0.09866      -0.59078      -0.40800
  35    H         -0.86415       0.83662       0.43230
  36    H         -0.23141       0.25011       0.60906
  37    H          0.18120       0.00911       0.32823
  38    H          0.31186      -0.58062      -1.46864
  39    H          0.73705       1.01184      -0.05482
  40    O          0.18377      -0.23122      -0.51918
 *+*+*+*+*+*+*+*+*+*+*+*+*+*+*+*+*+*+*+*+*+*+*+*+*+*+*+*+*+*+*+*+*+*+*+*+*+*+*+*+
            BAR SHORTENED BY       0.000 PERCENT
 GRADIENT CRITERION IN FLEPO =     1.000
  SCF CRITERION =    0.1000E-03


          FOR POINT    1 SECOND STRUCTURE
 DISTANCE A - B      5.197242
 HEAT              -88.241800
 GRADIENT NORM       5.391318
 DIRECTION COSINE    0.000004
* ===============================
* Input file for Mopac
* ===============================
 PM7 BONDS AUX DUMP=30M ITRY=15000 T=14D CHARGE=0 SINGLET eps=78.4 RELSCF=1


  C     0.00000000 +0    0.0000000 +0    0.0000000 +0     0     0     0
  C     1.39300664 +1    0.0000000 +0    0.0000000 +0     1     0     0
  C     1.39464843 +1  119.8526618 +1    0.0000000 +0     2     1     0
  C     1.39568845 +1  120.0621095 +1    0.8915608 +1     3     2     1
  C     1.39203577 +1  119.9657344 +1   -0.4915682 +1     4     3     2
  C     1.39422268 +1  120.0389250 +1   -0.2664325 +1     5     4     3
  H     1.09092877 +1  119.8430530 +1  179.6149027 +1     1     2     3
  H     1.09307430 +1  119.9166918 +1  179.9866173 +1     2     1     3
  H     1.09238356 +1  120.1852076 +1  179.4001329 +1     4     3     2
  H     1.09044703 +1  120.0364807 +1 -179.3760874 +1     6     5     4
  C     1.50422299 +1  118.9382344 +1 -177.5809141 +1     3     2     1
  C     1.52329947 +1  111.0952075 +1  114.1287103 +1    11     3     2
  H     1.10015075 +1  112.1213720 +1 -179.6804397 +1    12    11     3
  H     1.09874852 +1  113.1585808 +1   58.4655062 +1    12    11     3
  H     1.10224244 +1  110.3875848 +1  -60.8051429 +1    12    11     3
  N     1.49747001 +1  110.2623284 +1 -122.0774427 +1    11     3     2
  O     1.22127878 +1  118.7391674 +1   30.0865211 +1    16    11     3
  O     1.21970788 +1  119.2782580 +1 -152.1030006 +1    16    11     3
  N     3.31996586 +1  137.2690300 +1  109.2885145 +1     8     2     1
  C     1.48405727 +1  149.8132061 +1   89.3537459 +1    19     8     2
  C     1.53843908 +1  110.5716311 +1 -163.1749146 +1    20    19     8
  C     1.53307193 +1  110.1412049 +1  -57.5679990 +1    21    20    19
  C     1.53312235 +1  109.3209756 +1   56.9736667 +1    22    21    20
  C     1.48472408 +1   91.8497137 +1 -128.8570914 +1    19     8     2
  H     1.11284240 +1  107.4634474 +1   20.7218792 +1    24    19     8
  H     1.11272328 +1  112.2965934 +1  -96.4327390 +1    24    19     8
  H     1.10633412 +1  110.7932853 +1 -178.8673609 +1    23    22    21
  H     1.10696711 +1  110.0552777 +1   64.0011666 +1    23    22    21
  H     1.10478147 +1  109.9451998 +1 -179.7298431 +1    21    20    19
  H     1.10554845 +1  109.8118031 +1   63.6187767 +1    21    20    19
  H     1.11206828 +1  112.2703046 +1   74.0904844 +1    20    19     8
  H     1.14100181 +1  110.5554066 +1   -6.7186082 +1    11     3     2
  H     1.02945753 +1   42.4804886 +1  114.5548741 +1    19     8     2
  H     1.11228309 +1  107.4384753 +1  -43.0247331 +1    20    19     8
  H     1.10483349 +1  110.5782957 +1  178.9480686 +1    22    21    20
  H     1.10673448 +1  110.2132099 +1  -64.1832447 +1    22    21    20
  H     1.09211618 +1  120.0791935 +1  179.9781990 +1     5     4     3
  H     2.49048913 +1  147.0611640 +1  148.0780668 +1    33    19     8
  H     1.52359137 +1   72.1049079 +1 -113.6845391 +1    38    33    19
  O     0.96380727 +1   52.3960548 +1 -150.6714038 +1    38    33    19

 TIME=     2.03
  REACTANTS AND PRODUCTS SWAPPED AROUND
 *+*+*+*+*+*+*+*+*+*+*+*+*+*+*+*+*+*+*+*+*+*+*+*+*+*+*+*+*+*+*+*+*+*+*+*+*+*+*+*+
            BAR SHORTENED BY       1.000 PERCENT
 GRADIENT CRITERION IN FLEPO =     2.391


          FOR POINT    2 FIRST  STRUCTURE
 DISTANCE A - B      5.145270
 HEAT              -85.216702
 GRADIENT NORM       6.196727
 DIRECTION COSINE    0.016066
* ===============================
* Input file for Mopac
* ===============================
 PM7 BONDS AUX DUMP=30M ITRY=15000 T=14D CHARGE=0 SINGLET eps=78.4 RELSCF=1


  C     0.00000000 +0    0.0000000 +0    0.0000000 +0     0     0     0
  C     1.39258986 +1    0.0000000 +0    0.0000000 +0     1     0     0
  C     1.39477678 +1  120.0639615 +1    0.0000000 +0     2     1     0
  C     1.39636429 +1  119.9755467 +1   -0.0433675 +1     3     2     1
  C     1.39283718 +1  119.8296470 +1   -0.0750338 +1     4     3     2
  C     1.39337259 +1  120.2036373 +1    0.0847986 +1     5     4     3
  H     1.09109205 +1  119.8955203 +1 -179.6321450 +1     1     2     3
  H     1.09316242 +1  119.6481562 +1 -179.9925205 +1     2     1     3
  H     1.09291512 +1  120.4308903 +1  179.6065684 +1     4     3     2
  H     1.09137646 +1  120.0638635 +1  179.9763666 +1     6     5     4
  C     1.50491820 +1  118.9009367 +1 -178.9773947 +1     3     2     1
  C     1.52391440 +1  112.3977527 +1  123.2908151 +1    11     3     2
  H     1.09985101 +1  112.2260627 +1 -176.3615390 +1    12    11     3
  H     1.09938655 +1  112.8825069 +1   61.9165997 +1    12    11     3
  H     1.10234831 +1  110.3395567 +1  -57.5619392 +1    12    11     3
  N     1.50207417 +1  109.1986063 +1 -115.7820573 +1    11     3     2
  O     1.22224042 +1  118.2487591 +1  120.0619258 +1    16    11     3
  O     1.21932573 +1  120.0919739 +1  -59.8599803 +1    16    11     3
  N     3.97519499 +1  133.9876871 +1   87.8785605 +1     8     2     1
  C     1.48684258 +1  112.2644520 +1  113.3001688 +1    19     8     2
  C     1.53703198 +1  110.9576357 +1  172.4348893 +1    20    19     8
  C     1.53196646 +1  109.8072067 +1  -57.4774055 +1    21    20    19
  C     1.53235494 +1  108.7795560 +1   58.9047340 +1    22    21    20
  C     1.48714121 +1  103.6146137 +1 -125.3197985 +1    19     8     2
  H     1.11305173 +1  107.1588840 +1   62.3474468 +1    24    19     8
  H     1.11115804 +1  112.0895281 +1  -54.6235132 +1    24    19     8
  H     1.10612525 +1  110.7314267 +1  179.7217617 +1    23    22    21
  H     1.10817419 +1  110.2104999 +1   62.3649414 +1    23    22    21
  H     1.10538112 +1  109.8715172 +1 -179.8175318 +1    21    20    19
  H     1.10632701 +1  110.0015915 +1   63.6959559 +1    21    20    19
  H     1.11389316 +1  112.3127341 +1   50.0187749 +1    20    19     8
  H     1.13641564 +1  110.2129481 +1    1.3077180 +1    11     3     2
  H     1.02790119 +1    5.2846892 +1   62.3113688 +1    19     8     2
  H     1.11384019 +1  107.3063651 +1  -67.2475403 +1    20    19     8
  H     1.10517720 +1  110.6224799 +1 -179.1530372 +1    22    21    20
  H     1.10653086 +1  110.2961559 +1  -62.1785000 +1    22    21    20
  H     1.09109435 +1  119.8012157 +1 -179.7825982 +1     5     4     3
  H     1.96879035 +1  111.6048821 +1  -46.5277946 +1    31    20    19
  H     1.51484589 +1  144.9530122 +1 -165.9474706 +1    38    31    20
  O     0.96194278 +1  170.0114373 +1   91.3108591 +1    38    31    20

 TIME=     0.75
  REACTANTS AND PRODUCTS SWAPPED AROUND
 *+*+*+*+*+*+*+*+*+*+*+*+*+*+*+*+*+*+*+*+*+*+*+*+*+*+*+*+*+*+*+*+*+*+*+*+*+*+*+*+
            BAR SHORTENED BY       1.000 PERCENT
 GRADIENT CRITERION IN FLEPO =     3.197


          FOR POINT    3 SECOND STRUCTURE
 DISTANCE A - B      5.093817
 HEAT              -88.190084
 GRADIENT NORM       8.000761
 DIRECTION COSINE   -0.147359
* ===============================
* Input file for Mopac
* ===============================
 PM7 BONDS AUX DUMP=30M ITRY=15000 T=14D CHARGE=0 SINGLET eps=78.4 RELSCF=1


  C     0.00000000 +0    0.0000000 +0    0.0000000 +0     0     0     0
  C     1.39402700 +1    0.0000000 +0    0.0000000 +0     1     0     0
  C     1.39490104 +1  119.7815277 +1    0.0000000 +0     2     1     0
  C     1.39783052 +1  120.1520487 +1    1.1362787 +1     3     2     1
  C     1.39303308 +1  119.8303150 +1   -0.6094733 +1     4     3     2
  C     1.39295895 +1  120.1188363 +1   -0.8443144 +1     1     2     3
  H     1.08992175 +1  119.7373725 +1  179.3115977 +1     1     2     3
  H     1.09276687 +1  120.0896629 +1 -179.6399085 +1     2     1     3
  H     1.09265632 +1  120.3928942 +1  179.1284767 +1     4     3     2
  H     1.08998528 +1  120.0895561 +1  179.6659565 +1     6     1     2
  C     1.50311163 +1  118.9299038 +1 -177.4533672 +1     3     2     1
  C     1.52560518 +1  111.4745663 +1  114.5451634 +1    11     3     2
  H     1.09893399 +1  112.2314832 +1 -179.8120475 +1    12    11     3
  H     1.09907589 +1  113.0641758 +1   58.3383717 +1    12    11     3
  H     1.10287885 +1  110.0707915 +1  -60.9053121 +1    12    11     3
  N     1.49507199 +1  110.1711886 +1 -121.7578816 +1    11     3     2
  O     1.22104471 +1  119.0051392 +1   30.3760129 +1    16    11     3
  O     1.21985408 +1  119.5435040 +1 -151.7073916 +1    16    11     3
  N     3.32513826 +1  137.3749534 +1  108.7527561 +1     8     2     1
  C     1.48409709 +1  149.2333504 +1   90.0992054 +1    19     8     2
  C     1.53850323 +1  110.4350030 +1 -163.7879022 +1    20    19     8
  C     1.53337321 +1  110.1352553 +1  -57.5447902 +1    21    20    19
  C     1.53330163 +1  109.3730539 +1   57.0741043 +1    22    21    20
  C     1.48466308 +1   92.0159134 +1 -128.7152173 +1    19     8     2
  H     1.11163488 +1  107.4376287 +1   21.4793595 +1    24    19     8
  H     1.11148283 +1  112.4035506 +1  -95.8115623 +1    24    19     8
  H     1.10413315 +1  110.7821710 +1 -178.9383797 +1    23    22    21
  H     1.10587658 +1  109.9887031 +1   63.7967223 +1    23    22    21
  H     1.10434411 +1  109.8875913 +1 -179.6504286 +1    21    20    19
  H     1.10429858 +1  109.8470181 +1   63.7431571 +1    21    20    19
  H     1.11247027 +1  112.1394610 +1   73.5865111 +1    20    19     8
  H     1.14052600 +1  110.6079123 +1   -6.7195698 +1    11     3     2
  H     1.03104413 +1   41.8970496 +1  114.8674851 +1    19     8     2
  H     1.11370230 +1  107.4109385 +1  -43.7844884 +1    20    19     8
  H     1.10518153 +1  110.4897829 +1  178.8120665 +1    22    21    20
  H     1.10702100 +1  110.3406937 +1  -64.2666339 +1    22    21    20
  H     1.09037899 +1  119.9150378 +1 -179.9064912 +1     5     4     3
  H     2.48954754 +1  146.6349115 +1  148.6775040 +1    33    19     8
  H     1.52170923 +1   72.4903046 +1 -114.2791281 +1    38    33    19
  O     0.96435472 +1   37.9371713 +1  -50.7877626 +1    39    38    33

 *+*+*+*+*+*+*+*+*+*+*+*+*+*+*+*+*+*+*+*+*+*+*+*+*+*+*+*+*+*+*+*+*+*+*+*+*+*+*+*+
            BAR SHORTENED BY       1.000 PERCENT
 GRADIENT CRITERION IN FLEPO =     5.001


          FOR POINT    4 SECOND STRUCTURE
 DISTANCE A - B      5.042879
 HEAT              -88.142124
 GRADIENT NORM      13.136531
 DIRECTION COSINE    0.382601
* ===============================
* Input file for Mopac
* ===============================
 PM7 BONDS AUX DUMP=30M ITRY=15000 T=14D CHARGE=0 SINGLET eps=78.4 RELSCF=1


  C     0.00000000 +0    0.0000000 +0    0.0000000 +0     0     0     0
  C     1.39185303 +1    0.0000000 +0    0.0000000 +0     1     0     0
  C     1.39610417 +1  119.6006142 +1    0.0000000 +0     2     1     0
  C     1.39650084 +1  120.4261594 +1    1.2012167 +1     3     2     1
  C     1.39063456 +1  119.5886036 +1   -0.9229401 +1     4     3     2
  C     1.39175452 +1  120.1748274 +1    0.0253371 +1     5     4     3
  H     1.09016684 +1  119.7659294 +1  179.2906353 +1     1     2     3
  H     1.09149367 +1  120.1817016 +1 -179.8726329 +1     2     1     3
  H     1.09050703 +1  120.4067736 +1  179.3757496 +1     4     3     2
  H     1.09193026 +1  119.9490251 +1 -179.4123217 +1     6     5     4
  C     1.50559891 +1  118.6510309 +1 -177.4595883 +1     3     2     1
  C     1.52362654 +1  111.4478329 +1  114.7791881 +1    11     3     2
  H     1.10199325 +1  112.0961003 +1 -179.9947774 +1    12    11     3
  H     1.09947786 +1  113.2771022 +1   58.3661733 +1    12    11     3
  H     1.10163849 +1  110.0397993 +1  -61.4070186 +1    12    11     3
  N     1.49264978 +1  109.9269529 +1 -121.6650667 +1    11     3     2
  O     1.21998480 +1  119.3124820 +1   30.8110481 +1    16    11     3
  O     1.21906366 +1  119.7102751 +1 -151.1934822 +1    16    11     3
  N     3.32846235 +1  137.2960033 +1  108.5425939 +1     8     2     1
  C     1.48608751 +1  148.8422674 +1   90.6147171 +1    19     8     2
  C     1.53827212 +1  110.4347443 +1 -164.2331732 +1    20    19     8
  C     1.53152142 +1  110.2257732 +1  -57.4538636 +1    21    20    19
  C     1.53267356 +1  109.4204345 +1   57.0919022 +1    22    21    20
  C     1.48532363 +1   92.2763248 +1 -128.3870146 +1    19     8     2
  H     1.11312855 +1  107.4637502 +1   21.9447571 +1    24    19     8
  H     1.11089536 +1  112.1336995 +1  -95.3480384 +1    24    19     8
  H     1.10617772 +1  110.7398646 +1 -178.9306649 +1    23    22    21
  H     1.10777786 +1  109.7955209 +1   64.0320239 +1    23    22    21
  H     1.10464698 +1  109.8854979 +1 -179.6500163 +1    21    20    19
  H     1.10553327 +1  109.8830295 +1   63.8589569 +1    21    20    19
  H     1.11316488 +1  111.8460214 +1   73.1261596 +1    20    19     8
  H     1.14056017 +1  110.7062363 +1   -6.9101896 +1    11     3     2
  H     1.02775816 +1   41.4675371 +1  115.0363881 +1    19     8     2
  H     1.11251165 +1  107.3605928 +1  -44.3087488 +1    20    19     8
  H     1.10521538 +1  110.5653468 +1  178.7516038 +1    22    21    20
  H     1.10790923 +1  110.4411147 +1  -64.3352341 +1    22    21    20
  H     1.09274990 +1  119.9019371 +1 -179.6653901 +1     5     4     3
  H     2.49001178 +1  146.1786805 +1  148.9900317 +1    33    19     8
  H     1.52125444 +1   72.7709467 +1 -114.6893557 +1    38    33    19
  O     0.96400845 +1   38.0301542 +1  -50.6460901 +1    39    38    33

 *+*+*+*+*+*+*+*+*+*+*+*+*+*+*+*+*+*+*+*+*+*+*+*+*+*+*+*+*+*+*+*+*+*+*+*+*+*+*+*+
            BAR SHORTENED BY       1.000 PERCENT
 GRADIENT CRITERION IN FLEPO =    10.000


          FOR POINT    5 SECOND STRUCTURE
 DISTANCE A - B      4.992450
 HEAT              -88.054879
 GRADIENT NORM      18.118104
 DIRECTION COSINE    0.198916
* ===============================
* Input file for Mopac
* ===============================
 PM7 BONDS AUX DUMP=30M ITRY=15000 T=14D CHARGE=0 SINGLET eps=78.4 RELSCF=1


  C     0.00000000 +0    0.0000000 +0    0.0000000 +0     0     0     0
  C     1.39098676 +1    0.0000000 +0    0.0000000 +0     1     0     0
  C     1.39194032 +1  120.0075374 +1    0.0000000 +0     2     1     0
  C     1.39772052 +1  120.1723548 +1    1.0689033 +1     3     2     1
  C     1.39086374 +1  119.7178588 +1   -0.9119300 +1     4     3     2
  C     1.39353499 +1  120.1120482 +1    0.1945698 +1     5     4     3
  H     1.09041343 +1  119.9723072 +1  179.1806696 +1     1     2     3
  H     1.09095672 +1  120.0604978 +1  179.7949363 +1     2     1     3
  H     1.09130355 +1  120.3864252 +1  179.3700849 +1     4     3     2
  H     1.09034284 +1  119.8360199 +1 -179.0630505 +1     6     5     4
  C     1.50305764 +1  118.9447414 +1 -177.5753789 +1     3     2     1
  C     1.52072173 +1  111.8042476 +1  114.9130459 +1    11     3     2
  H     1.09976489 +1  112.2415804 +1  179.8316229 +1    12    11     3
  H     1.09821869 +1  113.2363006 +1   58.3941860 +1    12    11     3
  H     1.10030909 +1  110.1302597 +1  -61.3754381 +1    12    11     3
  N     1.49122616 +1  109.8838360 +1 -121.5265086 +1    11     3     2
  O     1.22543863 +1  119.3078501 +1   31.0846345 +1    16    11     3
  O     1.21983922 +1  119.1956906 +1 -150.8865755 +1    16    11     3
  N     3.33284249 +1  137.1451867 +1  108.2638472 +1     8     2     1
  C     1.48849464 +1  148.2529162 +1   91.8218622 +1    19     8     2
  C     1.53833093 +1  110.4902521 +1 -164.9545410 +1    20    19     8
  C     1.53459557 +1  110.0604510 +1  -57.6590449 +1    21    20    19
  C     1.53445832 +1  109.3624912 +1   57.0595832 +1    22    21    20
  C     1.48517601 +1   92.5618372 +1 -128.1958148 +1    19     8     2
  H     1.11195923 +1  107.4092477 +1   22.6999493 +1    24    19     8
  H     1.10996064 +1  112.3413654 +1  -94.7162968 +1    24    19     8
  H     1.10518410 +1  110.5378005 +1 -178.8466346 +1    23    22    21
  H     1.10393723 +1  109.6534438 +1   64.2261203 +1    23    22    21
  H     1.10207125 +1  109.7126288 +1  179.9679723 +1    21    20    19
  H     1.10135782 +1  109.9761510 +1   63.7195509 +1    21    20    19
  H     1.11010936 +1  112.1934474 +1   72.1076941 +1    20    19     8
  H     1.14164189 +1  110.3777398 +1   -6.6815622 +1    11     3     2
  H     1.03150410 +1   41.0037457 +1  115.5586151 +1    19     8     2
  H     1.11247828 +1  107.1923483 +1  -45.1456191 +1    20    19     8
  H     1.10570433 +1  110.5381859 +1  178.6851793 +1    22    21    20
  H     1.11433109 +1  109.6644160 +1  -64.3655408 +1    22    21    20
  H     1.09125526 +1  119.8940749 +1 -179.5058400 +1     5     4     3
  H     2.49255477 +1  145.7350993 +1  149.8189960 +1    33    19     8
  H     1.52839987 +1   72.8666310 +1 -115.3559602 +1    38    33    19
  O     0.96640855 +1   38.0063442 +1  -50.2891495 +1    39    38    33

 TIME=     1.46
  REACTANTS AND PRODUCTS SWAPPED AROUND
 *+*+*+*+*+*+*+*+*+*+*+*+*+*+*+*+*+*+*+*+*+*+*+*+*+*+*+*+*+*+*+*+*+*+*+*+*+*+*+*+
            BAR SHORTENED BY       0.000 PERCENT
 GRADIENT CRITERION IN FLEPO =    10.000


          FOR POINT    6 FIRST  STRUCTURE
 DISTANCE A - B      4.992450
 HEAT              -85.216702
 GRADIENT NORM       6.196745
 DIRECTION COSINE   -0.338267
* ===============================
* Input file for Mopac
* ===============================
 PM7 BONDS AUX DUMP=30M ITRY=15000 T=14D CHARGE=0 SINGLET eps=78.4 RELSCF=1


  C     0.00000000 +0    0.0000000 +0    0.0000000 +0     0     0     0
  C     1.39258986 +1    0.0000000 +0    0.0000000 +0     1     0     0
  C     1.39477678 +1  120.0639615 +1    0.0000000 +0     2     1     0
  C     1.39636429 +1  119.9755467 +1   -0.0433675 +1     3     2     1
  C     1.39283718 +1  119.8296470 +1   -0.0750338 +1     4     3     2
  C     1.39337259 +1  120.2036373 +1    0.0847986 +1     5     4     3
  H     1.09109205 +1  119.8955203 +1 -179.6321450 +1     1     2     3
  H     1.09316242 +1  119.6481562 +1 -179.9925205 +1     2     1     3
  H     1.09291512 +1  120.4308903 +1  179.6065684 +1     4     3     2
  H     1.09137646 +1  120.0638635 +1  179.9763666 +1     6     5     4
  C     1.50491820 +1  118.9009367 +1 -178.9773947 +1     3     2     1
  C     1.52391440 +1  112.3977527 +1  123.2908151 +1    11     3     2
  H     1.09985101 +1  112.2260627 +1 -176.3615390 +1    12    11     3
  H     1.09938655 +1  112.8825069 +1   61.9165997 +1    12    11     3
  H     1.10234831 +1  110.3395567 +1  -57.5619392 +1    12    11     3
  N     1.50207417 +1  109.1986063 +1 -115.7820573 +1    11     3     2
  O     1.22224042 +1  118.2487591 +1  120.0619258 +1    16    11     3
  O     1.21932573 +1  120.0919739 +1  -59.8599803 +1    16    11     3
  N     3.97519499 +1  133.9876871 +1   87.8785605 +1     8     2     1
  C     1.48684258 +1  112.2644520 +1  113.3001688 +1    19     8     2
  C     1.53703198 +1  110.9576357 +1  172.4348893 +1    20    19     8
  C     1.53196646 +1  109.8072067 +1  -57.4774055 +1    21    20    19
  C     1.53235494 +1  108.7795560 +1   58.9047340 +1    22    21    20
  C     1.48714121 +1  103.6146137 +1 -125.3197985 +1    19     8     2
  H     1.11305173 +1  107.1588840 +1   62.3474468 +1    24    19     8
  H     1.11115804 +1  112.0895281 +1  -54.6235132 +1    24    19     8
  H     1.10612525 +1  110.7314267 +1  179.7217617 +1    23    22    21
  H     1.10817419 +1  110.2104999 +1   62.3649414 +1    23    22    21
  H     1.10538112 +1  109.8715172 +1 -179.8175318 +1    21    20    19
  H     1.10632701 +1  110.0015915 +1   63.6959559 +1    21    20    19
  H     1.11389316 +1  112.3127341 +1   50.0187749 +1    20    19     8
  H     1.13641564 +1  110.2129481 +1    1.3077180 +1    11     3     2
  H     1.02790119 +1    5.2846892 +1   62.3113688 +1    19     8     2
  H     1.11384019 +1  107.3063651 +1  -67.2475403 +1    20    19     8
  H     1.10517720 +1  110.6224799 +1 -179.1530372 +1    22    21    20
  H     1.10653086 +1  110.2961559 +1  -62.1785000 +1    22    21    20
  H     1.09109435 +1  119.8012157 +1 -179.7825982 +1     5     4     3
  H     1.96879035 +1  111.6048821 +1  -46.5277946 +1    31    20    19
  H     1.51484589 +1  144.9530122 +1 -165.9474706 +1    38    31    20
  O     0.96194278 +1  170.0114373 +1   91.3108591 +1    38    31    20

 TIME=     0.17
  REACTANTS AND PRODUCTS SWAPPED AROUND
 *+*+*+*+*+*+*+*+*+*+*+*+*+*+*+*+*+*+*+*+*+*+*+*+*+*+*+*+*+*+*+*+*+*+*+*+*+*+*+*+
            BAR SHORTENED BY       1.000 PERCENT
 GRADIENT CRITERION IN FLEPO =     3.197
           THERE HAVE BEEN 3 ATTEMPTS TO REDUCE THE GRADIENT.
           DURING THESE ATTEMPTS THE ENERGY DROPPED BY LESS THAN 0.3 KCAL/MOLE
           FURTHER CALCULATION IS NOT JUSTIFIED AT THIS TIME.
           TO CONTINUE, START AGAIN WITH THE WORD "PRECISE"


          FOR POINT    7 SECOND STRUCTURE
 DISTANCE A - B      4.942526
 HEAT              -88.149771
 GRADIENT NORM      10.006276
 DIRECTION COSINE   -0.271199
* ===============================
* Input file for Mopac
* ===============================
 PM7 BONDS AUX DUMP=30M ITRY=15000 T=14D CHARGE=0 SINGLET eps=78.4 RELSCF=1


  C     0.00000000 +0    0.0000000 +0    0.0000000 +0     0     0     0
  C     1.39215266 +1    0.0000000 +0    0.0000000 +0     1     0     0
  C     1.39365677 +1  119.7269632 +1    0.0000000 +0     2     1     0
  C     1.39618943 +1  120.4128248 +1    1.3616980 +1     3     2     1
  C     1.39162787 +1  119.6119013 +1   -0.9735999 +1     4     3     2
  C     1.39299203 +1  120.1888830 +1    0.0606494 +1     5     4     3
  H     1.09211961 +1  119.9505795 +1  179.5298574 +1     1     2     3
  H     1.09479349 +1  119.6597043 +1 -179.1570132 +1     2     1     3
  H     1.09131664 +1  120.4856693 +1  179.1500126 +1     4     3     2
  H     1.09139963 +1  120.1412083 +1 -179.4571760 +1     6     5     4
  C     1.50466686 +1  118.6924660 +1 -177.5564218 +1     3     2     1
  C     1.52250245 +1  111.7108419 +1  115.3274824 +1    11     3     2
  H     1.09941384 +1  112.1044884 +1  179.7045770 +1    12    11     3
  H     1.09824066 +1  112.6979529 +1   58.1724587 +1    12    11     3
  H     1.10205670 +1  110.3401979 +1  -61.0950045 +1    12    11     3
  N     1.49780920 +1  109.7822839 +1 -121.3039493 +1    11     3     2
  O     1.22135991 +1  119.0670573 +1   31.8674765 +1    16    11     3
  O     1.22158239 +1  118.9511860 +1 -150.1777948 +1    16    11     3
  N     3.32457702 +1  137.6737902 +1  108.6842093 +1     8     2     1
  C     1.48576820 +1  148.1111082 +1   90.4467755 +1    19     8     2
  C     1.53884751 +1  110.6510698 +1 -165.1732027 +1    20    19     8
  C     1.53301450 +1  110.1163821 +1  -57.3783220 +1    21    20    19
  C     1.53165976 +1  109.4185531 +1   56.9699650 +1    22    21    20
  C     1.48477457 +1   92.5905691 +1 -129.3010831 +1    19     8     2
  H     1.11237368 +1  107.4253382 +1   22.5996993 +1    24    19     8
  H     1.11023349 +1  112.1903235 +1  -94.4079074 +1    24    19     8
  H     1.10423745 +1  110.7503791 +1 -178.8164084 +1    23    22    21
  H     1.10572407 +1  110.0371490 +1   64.0964516 +1    23    22    21
  H     1.10126448 +1  109.6931290 +1 -179.6515638 +1    21    20    19
  H     1.10578582 +1  109.7771203 +1   63.8305276 +1    21    20    19
  H     1.10645839 +1  112.1039923 +1   71.8702881 +1    20    19     8
  H     1.14092917 +1  110.3554924 +1   -6.2553081 +1    11     3     2
  H     1.02804529 +1   40.9777676 +1  114.4747378 +1    19     8     2
  H     1.11388736 +1  107.3167745 +1  -44.9644452 +1    20    19     8
  H     1.10475050 +1  110.6034588 +1  178.9556587 +1    22    21    20
  H     1.10608818 +1  110.1023859 +1  -64.3286345 +1    22    21    20
  H     1.09237534 +1  119.8350647 +1 -179.9027532 +1     5     4     3
  H     2.48466946 +1  145.7840938 +1  150.7220502 +1    33    19     8
  H     1.52387801 +1   73.4571537 +1 -116.1437587 +1    38    33    19
  O     0.96350412 +1   52.9376107 +1 -152.1809587 +1    38    33    19

 TIME=     0.74
  REACTANTS AND PRODUCTS SWAPPED AROUND
 *+*+*+*+*+*+*+*+*+*+*+*+*+*+*+*+*+*+*+*+*+*+*+*+*+*+*+*+*+*+*+*+*+*+*+*+*+*+*+*+
            BAR SHORTENED BY       1.000 PERCENT
 GRADIENT CRITERION IN FLEPO =     7.006


          FOR POINT    8 FIRST  STRUCTURE
 DISTANCE A - B      4.893100
 HEAT              -85.135412
 GRADIENT NORM      14.050200
 DIRECTION COSINE   -0.165850
* ===============================
* Input file for Mopac
* ===============================
 PM7 BONDS AUX DUMP=30M ITRY=15000 T=14D CHARGE=0 SINGLET eps=78.4 RELSCF=1


  C     0.00000000 +0    0.0000000 +0    0.0000000 +0     0     0     0
  C     1.39310337 +1    0.0000000 +0    0.0000000 +0     1     0     0
  C     1.39424461 +1  120.0362494 +1    0.0000000 +0     2     1     0
  C     1.39844755 +1  119.9283412 +1    0.4001310 +1     3     2     1
  C     1.39167688 +1  119.7344733 +1   -0.5384178 +1     4     3     2
  C     1.39204667 +1  120.0706556 +1   -0.0572703 +1     1     2     3
  H     1.09205357 +1  119.8628750 +1 -179.8969086 +1     1     2     3
  H     1.09431593 +1  119.5763721 +1 -179.7934117 +1     2     1     3
  H     1.09114891 +1  120.1859627 +1  179.4545721 +1     4     3     2
  H     1.09029357 +1  120.1264520 +1  179.9172243 +1     6     1     2
  C     1.50501422 +1  118.8734062 +1 -179.1636608 +1     3     2     1
  C     1.52337579 +1  112.2525842 +1  123.4188423 +1    11     3     2
  H     1.09958264 +1  112.2699007 +1 -176.2936314 +1    12    11     3
  H     1.09947714 +1  112.7948047 +1   61.9925555 +1    12    11     3
  H     1.10255905 +1  110.3920194 +1  -57.3885733 +1    12    11     3
  N     1.50205420 +1  109.3711547 +1 -115.5428721 +1    11     3     2
  O     1.22394831 +1  118.5099098 +1  119.9493676 +1    16    11     3
  O     1.22134332 +1  120.1455939 +1  -59.9415763 +1    16    11     3
  N     3.96228861 +1  134.0475586 +1   88.1907950 +1     8     2     1
  C     1.48484900 +1  112.7209358 +1  112.9812525 +1    19     8     2
  C     1.53834289 +1  110.9555671 +1  172.7019871 +1    20    19     8
  C     1.53239113 +1  109.8218890 +1  -57.5249821 +1    21    20    19
  C     1.53281662 +1  108.7728816 +1   58.8741669 +1    22    21    20
  C     1.48849952 +1  103.5231885 +1 -125.4159130 +1    19     8     2
  H     1.11126861 +1  107.1883930 +1   61.8184094 +1    24    19     8
  H     1.11020656 +1  112.0271043 +1  -55.3246190 +1    24    19     8
  H     1.11104764 +1  111.3543219 +1  179.6307851 +1    23    22    21
  H     1.10780909 +1  110.1423923 +1   62.3280009 +1    23    22    21
  H     1.10612757 +1  109.9089420 +1 -179.8581249 +1    21    20    19
  H     1.10758668 +1  109.8178084 +1   63.8175969 +1    21    20    19
  H     1.11355013 +1  112.4083791 +1   50.4787165 +1    20    19     8
  H     1.13808020 +1  110.2240349 +1    1.5456640 +1    11     3     2
  H     1.02624624 +1    5.5744684 +1   65.1662232 +1    19     8     2
  H     1.11690392 +1  107.4028529 +1  -66.8032435 +1    20    19     8
  H     1.10527488 +1  110.5071482 +1 -179.2865550 +1    22    21    20
  H     1.10240733 +1  110.2948546 +1  -62.2070873 +1    22    21    20
  H     1.09318514 +1  119.4099840 +1 -179.5891193 +1     5     4     3
  H     1.97435901 +1  111.1679921 +1  -46.5484087 +1    31    20    19
  H     1.51480589 +1  145.4142324 +1 -165.9339555 +1    38    31    20
  O     0.96225912 +1  169.4878281 +1   89.6105032 +1    38    31    20

 TIME=     0.59
  REACTANTS AND PRODUCTS SWAPPED AROUND
 *+*+*+*+*+*+*+*+*+*+*+*+*+*+*+*+*+*+*+*+*+*+*+*+*+*+*+*+*+*+*+*+*+*+*+*+*+*+*+*+
            BAR SHORTENED BY       1.000 PERCENT
 GRADIENT CRITERION IN FLEPO =    10.000


          FOR POINT    9 SECOND STRUCTURE
 DISTANCE A - B      4.844169
 HEAT              -88.129059
 GRADIENT NORM      13.921989
 DIRECTION COSINE    0.070019
* ===============================
* Input file for Mopac
* ===============================
 PM7 BONDS AUX DUMP=30M ITRY=15000 T=14D CHARGE=0 SINGLET eps=78.4 RELSCF=1


  C     0.00000000 +0    0.0000000 +0    0.0000000 +0     0     0     0
  C     1.39234118 +1    0.0000000 +0    0.0000000 +0     1     0     0
  C     1.39824619 +1  119.6056863 +1    0.0000000 +0     2     1     0
  C     1.39601346 +1  120.3769758 +1    1.0844682 +1     3     2     1
  C     1.39427739 +1  119.6734441 +1   -0.7202430 +1     4     3     2
  C     1.39207310 +1  120.1282485 +1   -0.6492233 +1     1     2     3
  H     1.08970026 +1  119.6654278 +1  179.6402344 +1     1     2     3
  H     1.09239973 +1  120.1255149 +1 -179.6104577 +1     2     1     3
  H     1.09334290 +1  120.5077347 +1  179.2026376 +1     4     3     2
  H     1.08973730 +1  120.0123677 +1  179.6826743 +1     6     1     2
  C     1.50175101 +1  118.7083348 +1 -177.7443342 +1     3     2     1
  C     1.52246609 +1  111.6889576 +1  115.3633177 +1    11     3     2
  H     1.10252886 +1  112.1242440 +1  179.6904705 +1    12    11     3
  H     1.10699505 +1  112.9860779 +1   58.4428841 +1    12    11     3
  H     1.10130881 +1  110.4265060 +1  -61.2839359 +1    12    11     3
  N     1.49332304 +1  109.8566336 +1 -121.2998033 +1    11     3     2
  O     1.21900829 +1  119.2871052 +1   32.2769461 +1    16    11     3
  O     1.21984826 +1  119.3434935 +1 -149.6363718 +1    16    11     3
  N     3.32798366 +1  137.5489412 +1  108.1836209 +1     8     2     1
  C     1.48626749 +1  147.6978819 +1   91.4644304 +1    19     8     2
  C     1.53522024 +1  110.6439723 +1 -165.5979467 +1    20    19     8
  C     1.53240053 +1  110.1728006 +1  -57.5562156 +1    21    20    19
  C     1.53180803 +1  109.3031897 +1   57.1800222 +1    22    21    20
  C     1.48495582 +1   92.8238162 +1 -128.6592586 +1    19     8     2
  H     1.11241756 +1  107.3608490 +1   23.1083394 +1    24    19     8
  H     1.11418624 +1  112.2185958 +1  -93.9797195 +1    24    19     8
  H     1.10484837 +1  110.7341923 +1 -178.9216104 +1    23    22    21
  H     1.10564130 +1  109.9759360 +1   63.9480952 +1    23    22    21
  H     1.10289388 +1  109.4191405 +1 -179.4023412 +1    21    20    19
  H     1.10453588 +1  110.0150541 +1   64.0162792 +1    21    20    19
  H     1.11222161 +1  112.1277766 +1   71.5456830 +1    20    19     8
  H     1.14045536 +1  110.5400675 +1   -6.2600124 +1    11     3     2
  H     1.02990071 +1   40.6079303 +1  115.3137752 +1    19     8     2
  H     1.11223621 +1  107.3190575 +1  -45.3972765 +1    20    19     8
  H     1.10466774 +1  110.6507830 +1  178.9228292 +1    22    21    20
  H     1.10653635 +1  110.3321012 +1  -64.2109856 +1    22    21    20
  H     1.09024902 +1  119.7735711 +1 -179.7931921 +1     5     4     3
  H     2.48048671 +1  145.5580334 +1  151.1910173 +1    33    19     8
  H     1.51960946 +1   73.8491455 +1 -116.5710194 +1    38    33    19
  O     0.96278087 +1   37.9294899 +1  -49.8690742 +1    39    38    33

 *+*+*+*+*+*+*+*+*+*+*+*+*+*+*+*+*+*+*+*+*+*+*+*+*+*+*+*+*+*+*+*+*+*+*+*+*+*+*+*+
            BAR SHORTENED BY       1.000 PERCENT
 GRADIENT CRITERION IN FLEPO =    10.000


          FOR POINT   10 SECOND STRUCTURE
 DISTANCE A - B      4.795728
 HEAT              -87.981224
 GRADIENT NORM      23.206867
 DIRECTION COSINE    0.508623
* ===============================
* Input file for Mopac
* ===============================
 PM7 BONDS AUX DUMP=30M ITRY=15000 T=14D CHARGE=0 SINGLET eps=78.4 RELSCF=1


  C     0.00000000 +0    0.0000000 +0    0.0000000 +0     0     0     0
  C     1.39216035 +1    0.0000000 +0    0.0000000 +0     1     0     0
  C     1.39307691 +1  119.6992665 +1    0.0000000 +0     2     1     0
  C     1.39925306 +1  120.4987370 +1    0.8943387 +1     3     2     1
  C     1.39054571 +1  119.6690906 +1   -0.6560376 +1     4     3     2
  C     1.39503738 +1  119.9086750 +1   -0.4130158 +1     1     2     3
  H     1.08692438 +1  119.9165330 +1  179.6115546 +1     1     2     3
  H     1.09378716 +1  120.1352812 +1 -179.7601611 +1     2     1     3
  H     1.09509918 +1  120.4110753 +1  179.3095255 +1     4     3     2
  H     1.08963225 +1  119.9549793 +1  179.6158724 +1     6     1     2
  C     1.50516529 +1  118.7594218 +1 -177.6202116 +1     3     2     1
  C     1.52020338 +1  111.9750678 +1  115.3650009 +1    11     3     2
  H     1.10211449 +1  112.1818119 +1  179.7271604 +1    12    11     3
  H     1.10256285 +1  112.9714504 +1   58.3628973 +1    12    11     3
  H     1.10090429 +1  110.3151023 +1  -61.2985857 +1    12    11     3
  N     1.49106585 +1  109.6345342 +1 -121.1994490 +1    11     3     2
  O     1.21530850 +1  119.7348870 +1   32.4508636 +1    16    11     3
  O     1.21807154 +1  119.5456528 +1 -149.3373721 +1    16    11     3
  N     3.32809001 +1  137.5732656 +1  107.7450376 +1     8     2     1
  C     1.48540636 +1  147.2841346 +1   92.0613084 +1    19     8     2
  C     1.53546795 +1  110.7909394 +1 -165.9785132 +1    20    19     8
  C     1.53389613 +1  110.1765604 +1  -57.4594136 +1    21    20    19
  C     1.53047683 +1  109.2359824 +1   57.1700345 +1    22    21    20
  C     1.48563281 +1   93.1596954 +1 -128.4016586 +1    19     8     2
  H     1.11432690 +1  107.1315081 +1   23.8674451 +1    24    19     8
  H     1.10733001 +1  112.4957150 +1  -93.5098899 +1    24    19     8
  H     1.10495508 +1  110.6962881 +1 -178.9677554 +1    23    22    21
  H     1.10485304 +1  110.0921042 +1   63.8238831 +1    23    22    21
  H     1.10277508 +1  109.5778119 +1 -179.3844066 +1    21    20    19
  H     1.10580020 +1  109.9966412 +1   64.1102085 +1    21    20    19
  H     1.11127871 +1  112.0743761 +1   71.3496733 +1    20    19     8
  H     1.13991612 +1  110.4335636 +1   -6.6307590 +1    11     3     2
  H     1.02624630 +1   40.1293745 +1  115.4959702 +1    19     8     2
  H     1.11184580 +1  107.4311262 +1  -45.8461177 +1    20    19     8
  H     1.10316819 +1  110.5425266 +1  178.6483552 +1    22    21    20
  H     1.10437650 +1  110.3556827 +1  -64.3438900 +1    22    21    20
  H     1.08925021 +1  119.8732458 +1 -179.8446196 +1     5     4     3
  H     2.48012978 +1  145.0736759 +1  151.0795467 +1    33    19     8
  H     1.51448205 +1   74.2470989 +1 -116.6466346 +1    38    33    19
  O     0.96053955 +1   53.3567947 +1 -152.5392689 +1    38    33    19

 *+*+*+*+*+*+*+*+*+*+*+*+*+*+*+*+*+*+*+*+*+*+*+*+*+*+*+*+*+*+*+*+*+*+*+*+*+*+*+*+
            BAR SHORTENED BY       1.000 PERCENT
 GRADIENT CRITERION IN FLEPO =    10.000


          FOR POINT   11 SECOND STRUCTURE
 DISTANCE A - B      4.747770
 HEAT              -87.877919
 GRADIENT NORM      21.679151
 DIRECTION COSINE    0.562488
* ===============================
* Input file for Mopac
* ===============================
 PM7 BONDS AUX DUMP=30M ITRY=15000 T=14D CHARGE=0 SINGLET eps=78.4 RELSCF=1


  C     0.00000000 +0    0.0000000 +0    0.0000000 +0     0     0     0
  C     1.39267800 +1    0.0000000 +0    0.0000000 +0     1     0     0
  C     1.39673694 +1  119.4738113 +1    0.0000000 +0     2     1     0
  C     1.39306538 +1  120.6147780 +1    0.9949672 +1     3     2     1
  C     1.39283379 +1  119.6186049 +1   -0.6252875 +1     4     3     2
  C     1.39248731 +1  120.0819407 +1   -0.4107456 +1     1     2     3
  H     1.09005630 +1  119.7717960 +1  179.5576604 +1     1     2     3
  H     1.09210552 +1  120.2348943 +1 -179.7839795 +1     2     1     3
  H     1.09169214 +1  120.5065182 +1  179.1669164 +1     4     3     2
  H     1.08964967 +1  120.1014951 +1  179.6247910 +1     6     1     2
  C     1.50226512 +1  118.4332903 +1 -177.7116012 +1     3     2     1
  C     1.52350721 +1  111.9349651 +1  115.7081179 +1    11     3     2
  H     1.10207078 +1  112.1106065 +1  179.6335879 +1    12    11     3
  H     1.09800923 +1  112.9766040 +1   58.1780603 +1    12    11     3
  H     1.10050877 +1  110.1092457 +1  -61.6032676 +1    12    11     3
  N     1.48866957 +1  109.7026023 +1 -121.1930134 +1    11     3     2
  O     1.21780461 +1  119.5894678 +1   33.1901335 +1    16    11     3
  O     1.21837870 +1  119.9606161 +1 -148.6839022 +1    16    11     3
  N     3.33508455 +1  137.5351369 +1  107.4681375 +1     8     2     1
  C     1.48535777 +1  146.7417471 +1   92.3454850 +1    19     8     2
  C     1.53818142 +1  111.0534294 +1 -166.2034352 +1    20    19     8
  C     1.53513788 +1  109.8294514 +1  -56.9033356 +1    21    20    19
  C     1.53286171 +1  109.7277598 +1   56.6212460 +1    22    21    20
  C     1.48380803 +1   93.3044740 +1 -128.1543251 +1    19     8     2
  H     1.11037314 +1  107.3348235 +1   24.0955233 +1    24    19     8
  H     1.11210341 +1  112.3488730 +1  -93.1966633 +1    24    19     8
  H     1.10410795 +1  110.6164307 +1 -178.9733601 +1    23    22    21
  H     1.09795908 +1  109.7681672 +1   64.3240344 +1    23    22    21
  H     1.10251659 +1  109.7748762 +1 -179.4007349 +1    21    20    19
  H     1.10742319 +1  109.8483972 +1   63.7178989 +1    21    20    19
  H     1.11897610 +1  111.4060924 +1   70.6627414 +1    20    19     8
  H     1.13947810 +1  110.8235138 +1   -6.1114837 +1    11     3     2
  H     1.02911998 +1   39.4394944 +1  115.7026853 +1    19     8     2
  H     1.11286230 +1  107.4152477 +1  -46.2722175 +1    20    19     8
  H     1.10587082 +1  110.5558318 +1  178.2964200 +1    22    21    20
  H     1.10612847 +1  110.3387545 +1  -64.8606578 +1    22    21    20
  H     1.09241048 +1  119.9247080 +1 -179.5895983 +1     5     4     3
  H     2.47692706 +1  144.4111096 +1  151.7969958 +1    33    19     8
  H     1.51424943 +1   74.5685410 +1 -117.3208168 +1    38    33    19
  O     0.96152095 +1   38.1382556 +1  -49.5794998 +1    39    38    33

 TIME=     1.23
  REACTANTS AND PRODUCTS SWAPPED AROUND
 *+*+*+*+*+*+*+*+*+*+*+*+*+*+*+*+*+*+*+*+*+*+*+*+*+*+*+*+*+*+*+*+*+*+*+*+*+*+*+*+
            BAR SHORTENED BY       0.000 PERCENT
 GRADIENT CRITERION IN FLEPO =    10.000


          FOR POINT   12 FIRST  STRUCTURE
 DISTANCE A - B      4.747770
 HEAT              -85.191437
 GRADIENT NORM       6.163982
 DIRECTION COSINE   -0.063238
* ===============================
* Input file for Mopac
* ===============================
 PM7 BONDS AUX DUMP=30M ITRY=15000 T=14D CHARGE=0 SINGLET eps=78.4 RELSCF=1


  C     0.00000000 +0    0.0000000 +0    0.0000000 +0     0     0     0
  C     1.39273879 +1    0.0000000 +0    0.0000000 +0     1     0     0
  C     1.39664693 +1  119.9449839 +1    0.0000000 +0     2     1     0
  C     1.39538075 +1  120.0021025 +1    0.0120637 +1     3     2     1
  C     1.39325434 +1  119.8398508 +1   -0.1745101 +1     4     3     2
  C     1.39302560 +1  120.1153600 +1    0.1982678 +1     1     2     3
  H     1.09063558 +1  119.8342816 +1 -179.7139945 +1     1     2     3
  H     1.09273545 +1  119.6921317 +1  179.7785091 +1     2     1     3
  H     1.09207084 +1  120.3170875 +1  179.5402070 +1     4     3     2
  H     1.09005300 +1  120.1586275 +1  179.8480658 +1     6     1     2
  C     1.50567148 +1  118.7628163 +1 -179.2192527 +1     3     2     1
  C     1.52351841 +1  112.2471982 +1  123.3045631 +1    11     3     2
  H     1.10034663 +1  112.2889009 +1 -176.3662508 +1    12    11     3
  H     1.09923239 +1  112.8760814 +1   61.9024103 +1    12    11     3
  H     1.10227260 +1  110.3908857 +1  -57.5096779 +1    12    11     3
  N     1.50297485 +1  109.3179430 +1 -115.7699466 +1    11     3     2
  O     1.22107548 +1  118.3797461 +1  119.9190811 +1    16    11     3
  O     1.21955203 +1  119.9965235 +1  -59.8206120 +1    16    11     3
  N     3.96327159 +1  133.9019573 +1   88.2725627 +1     8     2     1
  C     1.48667340 +1  112.6744595 +1  113.0760090 +1    19     8     2
  C     1.53740652 +1  110.8734825 +1  172.7536678 +1    20    19     8
  C     1.53330635 +1  109.8245724 +1  -57.4445464 +1    21    20    19
  C     1.53243396 +1  108.9341630 +1   58.8208208 +1    22    21    20
  C     1.48671153 +1  103.5552550 +1 -125.3301417 +1    19     8     2
  H     1.11326472 +1  107.1802268 +1   61.7664639 +1    24    19     8
  H     1.11173281 +1  112.1091901 +1  -55.2190083 +1    24    19     8
  H     1.10591487 +1  111.2990316 +1  179.6755693 +1    23    22    21
  H     1.10637966 +1  109.9202828 +1   62.3399105 +1    23    22    21
  H     1.10564293 +1  109.8542907 +1 -179.7329191 +1    21    20    19
  H     1.10587113 +1  109.9468633 +1   63.8022704 +1    21    20    19
  H     1.11090100 +1  112.2554459 +1   50.3034699 +1    20    19     8
  H     1.13650624 +1  110.2663956 +1    1.3041253 +1    11     3     2
  H     1.02715835 +1    5.4805249 +1   65.7898906 +1    19     8     2
  H     1.11420361 +1  107.3303347 +1  -67.0676636 +1    20    19     8
  H     1.10504368 +1  110.5611715 +1 -179.0676351 +1    22    21    20
  H     1.10694311 +1  110.1893393 +1  -62.3222163 +1    22    21    20
  H     1.09037324 +1  119.7397346 +1 -179.6598050 +1     5     4     3
  H     1.97432985 +1  111.4007492 +1  -46.5154349 +1    31    20    19
  H     1.51474840 +1  145.2418583 +1 -166.3505041 +1    38    31    20
  O     0.95945179 +1  169.4815571 +1   91.0428590 +1    38    31    20

 TIME=     0.35
  REACTANTS AND PRODUCTS SWAPPED AROUND
 *+*+*+*+*+*+*+*+*+*+*+*+*+*+*+*+*+*+*+*+*+*+*+*+*+*+*+*+*+*+*+*+*+*+*+*+*+*+*+*+
            BAR SHORTENED BY       1.000 PERCENT
 GRADIENT CRITERION IN FLEPO =     3.164
           THERE HAVE BEEN 3 ATTEMPTS TO REDUCE THE GRADIENT.
           DURING THESE ATTEMPTS THE ENERGY DROPPED BY LESS THAN 0.3 KCAL/MOLE
           FURTHER CALCULATION IS NOT JUSTIFIED AT THIS TIME.
           TO CONTINUE, START AGAIN WITH THE WORD "PRECISE"


          FOR POINT   13 SECOND STRUCTURE
 DISTANCE A - B      4.700293
 HEAT              -88.094816
 GRADIENT NORM       7.491683
 DIRECTION COSINE   -0.039626
* ===============================
* Input file for Mopac
* ===============================
 PM7 BONDS AUX DUMP=30M ITRY=15000 T=14D CHARGE=0 SINGLET eps=78.4 RELSCF=1


  C     0.00000000 +0    0.0000000 +0    0.0000000 +0     0     0     0
  C     1.39215712 +1    0.0000000 +0    0.0000000 +0     1     0     0
  C     1.39497398 +1  119.5896838 +1    0.0000000 +0     2     1     0
  C     1.39587257 +1  120.4372748 +1    1.1777852 +1     3     2     1
  C     1.39231457 +1  119.7002474 +1   -0.9280246 +1     4     3     2
  C     1.39305499 +1  119.9993531 +1   -0.0078087 +1     5     4     3
  H     1.09039162 +1  119.7728155 +1  179.5312974 +1     1     2     3
  H     1.09258326 +1  120.2304847 +1 -179.9213690 +1     2     1     3
  H     1.09131455 +1  120.4687040 +1  179.0685335 +1     4     3     2
  H     1.09004839 +1  119.8478731 +1 -179.3275724 +1     6     5     4
  C     1.50297835 +1  118.6807492 +1 -177.7842675 +1     3     2     1
  C     1.52246348 +1  112.0210481 +1  115.9252774 +1    11     3     2
  H     1.10132470 +1  112.0640950 +1  179.5918093 +1    12    11     3
  H     1.09933342 +1  112.8672029 +1   58.3951417 +1    12    11     3
  H     1.10014385 +1  110.2226004 +1  -61.4242357 +1    12    11     3
  N     1.49308233 +1  109.7172130 +1 -121.0400462 +1    11     3     2
  O     1.22265184 +1  119.1335353 +1   33.7397321 +1    16    11     3
  O     1.22023192 +1  119.1466719 +1 -148.2877071 +1    16    11     3
  N     3.34207279 +1  137.2848168 +1  107.2932093 +1     8     2     1
  C     1.48517852 +1  146.0863335 +1   93.2342397 +1    19     8     2
  C     1.53822030 +1  110.6783905 +1 -167.0693583 +1    20    19     8
  C     1.53338037 +1  110.2078735 +1  -57.1822250 +1    21    20    19
  C     1.53237599 +1  109.4525361 +1   56.8165191 +1    22    21    20
  C     1.48467142 +1   93.4896543 +1 -128.1357298 +1    19     8     2
  H     1.11219270 +1  107.2771607 +1   24.7182474 +1    24    19     8
  H     1.10979711 +1  112.3497702 +1  -92.4401541 +1    24    19     8
  H     1.10512953 +1  110.6219648 +1 -178.6497651 +1    23    22    21
  H     1.10609947 +1  110.0414632 +1   64.0299083 +1    23    22    21
  H     1.10588680 +1  109.7565298 +1 -179.2141469 +1    21    20    19
  H     1.10595785 +1  109.9671767 +1   64.1291243 +1    21    20    19
  H     1.11044874 +1  111.9953980 +1   70.2313819 +1    20    19     8
  H     1.14080687 +1  110.2887108 +1   -5.9250037 +1    11     3     2
  H     1.03225212 +1   38.9274229 +1  115.5680670 +1    19     8     2
  H     1.11351077 +1  107.3008212 +1  -46.9974522 +1    20    19     8
  H     1.10499911 +1  110.5901363 +1  178.6253583 +1    22    21    20
  H     1.10588982 +1  110.1035528 +1  -64.4916051 +1    22    21    20
  H     1.09153003 +1  119.9207000 +1 -179.7973032 +1     5     4     3
  H     2.47687154 +1  143.8577433 +1  151.9727473 +1    33    19     8
  H     1.52324002 +1   74.9056278 +1 -117.5874228 +1    38    33    19
  O     0.96403603 +1   53.6036959 +1 -152.8404415 +1    38    33    19

 TIME=     0.87
  REACTANTS AND PRODUCTS SWAPPED AROUND
 *+*+*+*+*+*+*+*+*+*+*+*+*+*+*+*+*+*+*+*+*+*+*+*+*+*+*+*+*+*+*+*+*+*+*+*+*+*+*+*+
            BAR SHORTENED BY       1.000 PERCENT
 GRADIENT CRITERION IN FLEPO =     4.492


          FOR POINT   14 FIRST  STRUCTURE
 DISTANCE A - B      4.653290
 HEAT              -85.201199
 GRADIENT NORM      11.339047
 DIRECTION COSINE   -0.118092
* ===============================
* Input file for Mopac
* ===============================
 PM7 BONDS AUX DUMP=30M ITRY=15000 T=14D CHARGE=0 SINGLET eps=78.4 RELSCF=1


  C     0.00000000 +0    0.0000000 +0    0.0000000 +0     0     0     0
  C     1.39320441 +1    0.0000000 +0    0.0000000 +0     1     0     0
  C     1.39720596 +1  119.9240953 +1    0.0000000 +0     2     1     0
  C     1.39464062 +1  119.9838599 +1   -0.0235351 +1     3     2     1
  C     1.39426263 +1  119.9538129 +1   -0.0554353 +1     4     3     2
  C     1.39223487 +1  120.1273390 +1    0.0700883 +1     1     2     3
  H     1.09169096 +1  119.7798026 +1 -179.6596296 +1     1     2     3
  H     1.09299190 +1  119.7083449 +1  179.9571603 +1     2     1     3
  H     1.09143721 +1  120.3529715 +1  179.6134537 +1     4     3     2
  H     1.09046009 +1  120.1037776 +1  179.9647714 +1     6     1     2
  C     1.50582851 +1  118.7882538 +1 -179.0268334 +1     3     2     1
  C     1.52383710 +1  112.2682537 +1  123.1369974 +1    11     3     2
  H     1.09992583 +1  112.2518986 +1 -176.4152592 +1    12    11     3
  H     1.09925361 +1  112.8382850 +1   61.8790319 +1    12    11     3
  H     1.10233748 +1  110.4250717 +1  -57.5280662 +1    12    11     3
  N     1.50242889 +1  109.2255691 +1 -115.9233867 +1    11     3     2
  O     1.22335626 +1  118.4730223 +1  119.7295580 +1    16    11     3
  O     1.22043396 +1  120.0462072 +1  -59.9928374 +1    16    11     3
  N     3.94995701 +1  134.0023528 +1   88.3649146 +1     8     2     1
  C     1.48585116 +1  113.1968824 +1  112.9881353 +1    19     8     2
  C     1.53632464 +1  111.0099774 +1  172.8624170 +1    20    19     8
  C     1.53330835 +1  109.8854167 +1  -57.5067264 +1    21    20    19
  C     1.53409355 +1  108.7007435 +1   58.6962176 +1    22    21    20
  C     1.48830497 +1  103.4270220 +1 -125.3903431 +1    19     8     2
  H     1.11103169 +1  107.2988551 +1   61.0914939 +1    24    19     8
  H     1.11338136 +1  112.0077649 +1  -55.9779177 +1    24    19     8
  H     1.10412882 +1  110.7813615 +1  179.6533794 +1    23    22    21
  H     1.10836524 +1  110.1390022 +1   62.4155449 +1    23    22    21
  H     1.10546353 +1  109.9672085 +1 -179.6993574 +1    21    20    19
  H     1.10678441 +1  110.0019994 +1   63.7601761 +1    21    20    19
  H     1.11226712 +1  112.2715555 +1   50.2961314 +1    20    19     8
  H     1.13655136 +1  110.2876820 +1    1.1317604 +1    11     3     2
  H     1.02621883 +1    5.5645687 +1   71.4616796 +1    19     8     2
  H     1.10913322 +1  106.7826451 +1  -66.9028688 +1    20    19     8
  H     1.10536581 +1  110.6039209 +1 -179.2850565 +1    22    21    20
  H     1.10665373 +1  110.2710449 +1  -62.2537691 +1    22    21    20
  H     1.08987791 +1  120.0319756 +1 -179.9000931 +1     5     4     3
  H     1.97662718 +1  111.2346769 +1  -46.2910730 +1    31    20    19
  H     1.51516284 +1  145.5830674 +1 -167.1844273 +1    38    31    20
  O     0.96336459 +1  169.1357460 +1   88.2169116 +1    38    31    20

 TIME=     0.61
  REACTANTS AND PRODUCTS SWAPPED AROUND
 *+*+*+*+*+*+*+*+*+*+*+*+*+*+*+*+*+*+*+*+*+*+*+*+*+*+*+*+*+*+*+*+*+*+*+*+*+*+*+*+
            BAR SHORTENED BY       1.000 PERCENT
 GRADIENT CRITERION IN FLEPO =     8.339


          FOR POINT   15 SECOND STRUCTURE
 DISTANCE A - B      4.606757
 HEAT              -88.025606
 GRADIENT NORM      14.130596
 DIRECTION COSINE   -0.089642
* ===============================
* Input file for Mopac
* ===============================
 PM7 BONDS AUX DUMP=30M ITRY=15000 T=14D CHARGE=0 SINGLET eps=78.4 RELSCF=1


  C     0.00000000 +0    0.0000000 +0    0.0000000 +0     0     0     0
  C     1.39459848 +1    0.0000000 +0    0.0000000 +0     1     0     0
  C     1.39093087 +1  119.8834963 +1    0.0000000 +0     2     1     0
  C     1.39737641 +1  120.3580879 +1    1.0976966 +1     3     2     1
  C     1.39208927 +1  119.6000417 +1   -0.9329206 +1     4     3     2
  C     1.39188410 +1  119.9717573 +1   -0.4805056 +1     1     2     3
  H     1.08932703 +1  119.8285484 +1  179.3846630 +1     1     2     3
  H     1.09531608 +1  119.7934503 +1  179.9779903 +1     2     1     3
  H     1.09227357 +1  120.4047995 +1  179.0273506 +1     4     3     2
  H     1.09038034 +1  120.2177109 +1  179.3893105 +1     6     1     2
  C     1.50015997 +1  118.7765733 +1 -177.8997967 +1     3     2     1
  C     1.52343508 +1  112.1113304 +1  116.0691156 +1    11     3     2
  H     1.10206895 +1  112.1400908 +1  179.5795831 +1    12    11     3
  H     1.09836011 +1  112.9266773 +1   58.4763051 +1    12    11     3
  H     1.09898661 +1  110.3306788 +1  -61.6189793 +1    12    11     3
  N     1.48943221 +1  109.7534413 +1 -120.8809832 +1    11     3     2
  O     1.21981607 +1  119.3868160 +1   34.1105760 +1    16    11     3
  O     1.21911975 +1  119.4742940 +1 -147.7489303 +1    16    11     3
  N     3.34612356 +1  137.1641594 +1  107.4773314 +1     8     2     1
  C     1.48579109 +1  145.9027701 +1   93.0187908 +1    19     8     2
  C     1.53823453 +1  110.9025430 +1 -167.3318939 +1    20    19     8
  C     1.52936410 +1  110.1199840 +1  -57.0404539 +1    21    20    19
  C     1.53226920 +1  109.6573356 +1   56.7996848 +1    22    21    20
  C     1.48497717 +1   93.6793853 +1 -128.3422032 +1    19     8     2
  H     1.11275557 +1  107.2961905 +1   25.0465076 +1    24    19     8
  H     1.11426295 +1  112.2199483 +1  -92.1470365 +1    24    19     8
  H     1.10569972 +1  110.6393362 +1 -178.9901175 +1    23    22    21
  H     1.10629213 +1  109.9409528 +1   63.9214842 +1    23    22    21
  H     1.10560225 +1  109.6630799 +1 -179.2662678 +1    21    20    19
  H     1.10558354 +1  109.8852412 +1   64.2408617 +1    21    20    19
  H     1.11172819 +1  111.9268119 +1   69.8677755 +1    20    19     8
  H     1.14105208 +1  110.4737981 +1   -5.8499336 +1    11     3     2
  H     1.02833645 +1   38.5861097 +1  115.2320425 +1    19     8     2
  H     1.11159513 +1  107.2949259 +1  -47.2808521 +1    20    19     8
  H     1.10503256 +1  110.6666721 +1  178.5223690 +1    22    21    20
  H     1.10695771 +1  110.3559314 +1  -64.6389735 +1    22    21    20
  H     1.09115724 +1  119.8048514 +1 -179.8099354 +1     5     4     3
  H     2.47545260 +1  143.5425978 +1  152.1877165 +1    33    19     8
  H     1.51926384 +1   75.3086715 +1 -117.8860485 +1    38    33    19
  O     0.96348786 +1   37.9703675 +1  -49.0561638 +1    39    38    33

 TIME=     0.41
  REACTANTS AND PRODUCTS SWAPPED AROUND
 *+*+*+*+*+*+*+*+*+*+*+*+*+*+*+*+*+*+*+*+*+*+*+*+*+*+*+*+*+*+*+*+*+*+*+*+*+*+*+*+
            BAR SHORTENED BY       1.000 PERCENT
 GRADIENT CRITERION IN FLEPO =    10.000


          FOR POINT   16 FIRST  STRUCTURE
 DISTANCE A - B      4.560689
 HEAT              -84.993356
 GRADIENT NORM      14.056618
 DIRECTION COSINE   -0.165765
* ===============================
* Input file for Mopac
* ===============================
 PM7 BONDS AUX DUMP=30M ITRY=15000 T=14D CHARGE=0 SINGLET eps=78.4 RELSCF=1


  C     0.00000000 +0    0.0000000 +0    0.0000000 +0     0     0     0
  C     1.39264475 +1    0.0000000 +0    0.0000000 +0     1     0     0
  C     1.39413672 +1  120.0270352 +1    0.0000000 +0     2     1     0
  C     1.39707763 +1  119.9622908 +1   -0.0088298 +1     3     2     1
  C     1.39298918 +1  119.8216220 +1   -0.1059687 +1     4     3     2
  C     1.39225312 +1  120.1187157 +1    0.4910381 +1     1     2     3
  H     1.09180754 +1  119.8809408 +1 -179.6618869 +1     1     2     3
  H     1.09478926 +1  119.5567405 +1  179.9660048 +1     2     1     3
  H     1.09118399 +1  120.3504244 +1  179.6350486 +1     4     3     2
  H     1.09134830 +1  120.1300665 +1 -179.4618671 +1     6     1     2
  C     1.50484964 +1  118.8905063 +1 -179.0131697 +1     3     2     1
  C     1.52406673 +1  112.2792317 +1  123.0581138 +1    11     3     2
  H     1.09973889 +1  112.2644611 +1 -176.3936666 +1    12    11     3
  H     1.09932581 +1  112.8409945 +1   61.8838499 +1    12    11     3
  H     1.10251438 +1  110.4250252 +1  -57.5007309 +1    12    11     3
  N     1.50235911 +1  109.2567671 +1 -115.9729606 +1    11     3     2
  O     1.22152351 +1  118.7053977 +1  119.4122528 +1    16    11     3
  O     1.21983670 +1  120.2018527 +1  -60.3363620 +1    16    11     3
  N     3.93909765 +1  134.0595135 +1   88.5988873 +1     8     2     1
  C     1.48633311 +1  113.5606070 +1  112.6392639 +1    19     8     2
  C     1.53658735 +1  111.0168497 +1  173.0744300 +1    20    19     8
  C     1.53179244 +1  109.8341057 +1  -57.4405784 +1    21    20    19
  C     1.53104306 +1  108.7716326 +1   58.7668661 +1    22    21    20
  C     1.48546553 +1  103.3517185 +1 -125.6175120 +1    19     8     2
  H     1.11284568 +1  107.1937199 +1   60.7676490 +1    24    19     8
  H     1.11009276 +1  112.0251507 +1  -56.4095613 +1    24    19     8
  H     1.10519258 +1  110.9337064 +1  179.7141256 +1    23    22    21
  H     1.10824724 +1  110.2698101 +1   62.1564078 +1    23    22    21
  H     1.10599751 +1  109.8202190 +1 -179.7272927 +1    21    20    19
  H     1.10580688 +1  109.9616587 +1   63.9285109 +1    21    20    19
  H     1.11422733 +1  112.2618278 +1   50.4938475 +1    20    19     8
  H     1.13603544 +1  110.2558309 +1    1.0808026 +1    11     3     2
  H     1.03529617 +1    6.6163254 +1   68.1060020 +1    19     8     2
  H     1.11286177 +1  106.9588963 +1  -66.5345388 +1    20    19     8
  H     1.10490205 +1  110.4960040 +1 -179.3349721 +1    22    21    20
  H     1.10362829 +1  110.3325124 +1  -62.4577880 +1    22    21    20
  H     1.08598920 +1  119.1949162 +1 -179.9065050 +1     5     4     3
  H     1.98113350 +1  111.2170104 +1  -46.1476501 +1    31    20    19
  H     1.50902133 +1  146.3268532 +1 -167.3161574 +1    38    31    20
  O     0.96266442 +1  168.7303819 +1   83.9982087 +1    38    31    20

 TIME=     0.43
  REACTANTS AND PRODUCTS SWAPPED AROUND
 *+*+*+*+*+*+*+*+*+*+*+*+*+*+*+*+*+*+*+*+*+*+*+*+*+*+*+*+*+*+*+*+*+*+*+*+*+*+*+*+
            BAR SHORTENED BY       1.000 PERCENT
 GRADIENT CRITERION IN FLEPO =    10.000


          FOR POINT   17 SECOND STRUCTURE
 DISTANCE A - B      4.515082
 HEAT              -88.038220
 GRADIENT NORM      13.086706
 DIRECTION COSINE   -0.213521
* ===============================
* Input file for Mopac
* ===============================
 PM7 BONDS AUX DUMP=30M ITRY=15000 T=14D CHARGE=0 SINGLET eps=78.4 RELSCF=1


  C     0.00000000 +0    0.0000000 +0    0.0000000 +0     0     0     0
  C     1.39416660 +1    0.0000000 +0    0.0000000 +0     1     0     0
  C     1.39303686 +1  119.5727254 +1    0.0000000 +0     2     1     0
  C     1.39552633 +1  120.4747330 +1    1.2981499 +1     3     2     1
  C     1.39269574 +1  119.6979628 +1   -1.0285254 +1     4     3     2
  C     1.39317329 +1  120.0051174 +1    0.0203437 +1     5     4     3
  H     1.09082376 +1  119.6291636 +1  179.6491798 +1     1     2     3
  H     1.09300887 +1  120.0854336 +1  179.9792676 +1     2     1     3
  H     1.08980431 +1  120.6136785 +1  178.9173404 +1     4     3     2
  H     1.09027969 +1  119.8460226 +1 -179.5683962 +1     6     5     4
  C     1.50394331 +1  118.6569222 +1 -177.8597921 +1     3     2     1
  C     1.52374102 +1  112.2171747 +1  116.4097940 +1    11     3     2
  H     1.10194948 +1  112.0408401 +1  179.3438030 +1    12    11     3
  H     1.09932249 +1  112.8499690 +1   58.4032952 +1    12    11     3
  H     1.10065938 +1  110.3060318 +1  -61.5644011 +1    12    11     3
  N     1.49113592 +1  109.5583987 +1 -120.6982603 +1    11     3     2
  O     1.22435007 +1  119.3274593 +1   34.5090478 +1    16    11     3
  O     1.22011750 +1  119.3769520 +1 -147.3480297 +1    16    11     3
  N     3.35082624 +1  137.0816852 +1  107.1736825 +1     8     2     1
  C     1.48384741 +1  145.3824622 +1   93.3518807 +1    19     8     2
  C     1.53844633 +1  110.9173194 +1 -167.6870867 +1    20    19     8
  C     1.53359188 +1  110.1769428 +1  -56.9008320 +1    21    20    19
  C     1.53250688 +1  109.4695318 +1   56.6532978 +1    22    21    20
  C     1.48513797 +1   93.7833141 +1 -128.2277713 +1    19     8     2
  H     1.11208892 +1  107.4990877 +1   25.5454465 +1    24    19     8
  H     1.11325602 +1  112.2403251 +1  -91.7693991 +1    24    19     8
  H     1.10355854 +1  110.5535517 +1 -178.8927792 +1    23    22    21
  H     1.10654178 +1  109.8051747 +1   64.1239759 +1    23    22    21
  H     1.10485161 +1  109.6816297 +1 -179.0093318 +1    21    20    19
  H     1.10542221 +1  109.9092406 +1   64.4188302 +1    21    20    19
  H     1.11288856 +1  111.9242625 +1   69.6416795 +1    20    19     8
  H     1.14194370 +1  110.5676639 +1   -5.8091424 +1    11     3     2
  H     1.03054648 +1   37.8918901 +1  115.5103834 +1    19     8     2
  H     1.11136271 +1  107.3578693 +1  -47.4757576 +1    20    19     8
  H     1.10529514 +1  110.5044269 +1  178.5195050 +1    22    21    20
  H     1.10684491 +1  110.1159515 +1  -64.6983148 +1    22    21    20
  H     1.09420832 +1  119.8987570 +1 -179.5891395 +1     5     4     3
  H     2.47889039 +1  142.8016353 +1  153.1367664 +1    33    19     8
  H     1.52565261 +1   75.3625206 +1 -118.7840914 +1    38    33    19
  O     0.96558606 +1   37.8900773 +1  -48.7042957 +1    39    38    33

 TIME=     0.77
  REACTANTS AND PRODUCTS SWAPPED AROUND
 *+*+*+*+*+*+*+*+*+*+*+*+*+*+*+*+*+*+*+*+*+*+*+*+*+*+*+*+*+*+*+*+*+*+*+*+*+*+*+*+
            BAR SHORTENED BY       1.000 PERCENT
 GRADIENT CRITERION IN FLEPO =    10.000


          FOR POINT   18 FIRST  STRUCTURE
 DISTANCE A - B      4.469932
 HEAT              -84.904572
 GRADIENT NORM      16.290421
 DIRECTION COSINE   -0.305833
* ===============================
* Input file for Mopac
* ===============================
 PM7 BONDS AUX DUMP=30M ITRY=15000 T=14D CHARGE=0 SINGLET eps=78.4 RELSCF=1


  C     0.00000000 +0    0.0000000 +0    0.0000000 +0     0     0     0
  C     1.39820452 +1    0.0000000 +0    0.0000000 +0     1     0     0
  C     1.39674817 +1  120.0002644 +1    0.0000000 +0     2     1     0
  C     1.39514766 +1  119.9383242 +1    0.2107462 +1     3     2     1
  C     1.39151140 +1  119.8764383 +1   -0.3529561 +1     4     3     2
  C     1.39156736 +1  119.8438977 +1    0.1953632 +1     1     2     3
  H     1.08867778 +1  119.5727229 +1 -179.7871246 +1     1     2     3
  H     1.09400294 +1  119.5997640 +1 -179.9424051 +1     2     1     3
  H     1.09132986 +1  120.3423534 +1  179.5376138 +1     4     3     2
  H     1.09111803 +1  119.6753484 +1 -179.7441783 +1     6     1     2
  C     1.50521971 +1  118.8009445 +1 -179.1080756 +1     3     2     1
  C     1.52362859 +1  112.1020019 +1  123.1439140 +1    11     3     2
  H     1.09982879 +1  112.2185125 +1 -176.4435647 +1    12    11     3
  H     1.09913191 +1  112.8444883 +1   61.8509942 +1    12    11     3
  H     1.10244714 +1  110.4504539 +1  -57.5609557 +1    12    11     3
  N     1.50193426 +1  109.2491615 +1 -115.9297574 +1    11     3     2
  O     1.22108784 +1  118.9077380 +1  119.2802987 +1    16    11     3
  O     1.21913297 +1  120.3793918 +1  -60.4918149 +1    16    11     3
  N     3.92906686 +1  134.0538017 +1   88.8001756 +1     8     2     1
  C     1.48667578 +1  113.8640443 +1  112.5083041 +1    19     8     2
  C     1.53721959 +1  111.0067693 +1  173.2248435 +1    20    19     8
  C     1.53374578 +1  109.7850561 +1  -57.4312168 +1    21    20    19
  C     1.53273051 +1  108.7151655 +1   58.6544743 +1    22    21    20
  C     1.48608308 +1  103.1365312 +1 -125.7764979 +1    19     8     2
  H     1.11306763 +1  107.2202408 +1   60.5664350 +1    24    19     8
  H     1.10996510 +1  112.3578711 +1  -56.9354291 +1    24    19     8
  H     1.10734587 +1  110.7748336 +1  179.7987352 +1    23    22    21
  H     1.10375954 +1  110.2210709 +1   62.3796720 +1    23    22    21
  H     1.10461562 +1  109.9897192 +1 -179.6535845 +1    21    20    19
  H     1.10616318 +1  110.0145477 +1   63.7644345 +1    21    20    19
  H     1.11566461 +1  112.3783986 +1   50.9651919 +1    20    19     8
  H     1.13571726 +1  110.4222720 +1    1.1938100 +1    11     3     2
  H     1.02713007 +1    6.6110052 +1   72.1800550 +1    19     8     2
  H     1.11268417 +1  107.2027792 +1  -66.3509797 +1    20    19     8
  H     1.10432528 +1  110.5510154 +1 -179.5186877 +1    22    21    20
  H     1.10757079 +1  110.3668923 +1  -62.5178386 +1    22    21    20
  H     1.09023363 +1  119.3488107 +1 -179.7712825 +1     5     4     3
  H     1.98842894 +1  110.7475710 +1  -46.3479175 +1    31    20    19
  H     1.50635208 +1  146.6495369 +1 -168.0133193 +1    38    31    20
  O     0.96286002 +1  168.5436558 +1   81.1419202 +1    38    31    20

 TIME=     0.51
  REACTANTS AND PRODUCTS SWAPPED AROUND
 *+*+*+*+*+*+*+*+*+*+*+*+*+*+*+*+*+*+*+*+*+*+*+*+*+*+*+*+*+*+*+*+*+*+*+*+*+*+*+*+
            BAR SHORTENED BY       1.000 PERCENT
 GRADIENT CRITERION IN FLEPO =    10.000


          FOR POINT   19 SECOND STRUCTURE
 DISTANCE A - B      4.425232
 HEAT              -87.959073
 GRADIENT NORM      12.552007
 DIRECTION COSINE   -0.171707
* ===============================
* Input file for Mopac
* ===============================
 PM7 BONDS AUX DUMP=30M ITRY=15000 T=14D CHARGE=0 SINGLET eps=78.4 RELSCF=1


  C     0.00000000 +0    0.0000000 +0    0.0000000 +0     0     0     0
  C     1.39280490 +1    0.0000000 +0    0.0000000 +0     1     0     0
  C     1.39452800 +1  119.5958214 +1    0.0000000 +0     2     1     0
  C     1.39628310 +1  120.3970332 +1    1.1977120 +1     3     2     1
  C     1.39200715 +1  119.7438684 +1   -1.0472619 +1     4     3     2
  C     1.39333937 +1  120.0037869 +1    0.2632764 +1     5     4     3
  H     1.09106599 +1  119.7925285 +1  179.6549829 +1     1     2     3
  H     1.09232235 +1  120.1380616 +1  179.8054805 +1     2     1     3
  H     1.09248909 +1  120.5196022 +1  178.8909685 +1     4     3     2
  H     1.09025727 +1  119.8094884 +1 -179.4998559 +1     6     5     4
  C     1.50309956 +1  118.6802455 +1 -177.9672567 +1     3     2     1
  C     1.52409618 +1  112.1956197 +1  116.5898778 +1    11     3     2
  H     1.10170750 +1  111.9091047 +1  179.3409284 +1    12    11     3
  H     1.09874991 +1  112.8884276 +1   58.4704144 +1    12    11     3
  H     1.09966144 +1  110.3261869 +1  -61.6557097 +1    12    11     3
  N     1.49064304 +1  109.4969587 +1 -120.5915204 +1    11     3     2
  O     1.22192284 +1  119.4980430 +1   34.9506456 +1    16    11     3
  O     1.21936606 +1  119.5287407 +1 -146.8185330 +1    16    11     3
  N     3.35415230 +1  137.0214233 +1  107.0561649 +1     8     2     1
  C     1.48534730 +1  145.0442211 +1   93.7939404 +1    19     8     2
  C     1.53842372 +1  110.8635320 +1 -168.0388811 +1    20    19     8
  C     1.52917927 +1  110.2347712 +1  -57.0503113 +1    21    20    19
  C     1.53448831 +1  109.3865718 +1   56.8686167 +1    22    21    20
  C     1.48460367 +1   93.9776285 +1 -128.1383353 +1    19     8     2
  H     1.11135447 +1  107.4298691 +1   26.0815902 +1    24    19     8
  H     1.11093855 +1  112.3491315 +1  -91.2239486 +1    24    19     8
  H     1.10490304 +1  110.5851497 +1 -178.7924446 +1    23    22    21
  H     1.10646049 +1  109.9128142 +1   64.0710750 +1    23    22    21
  H     1.10665492 +1  109.6153756 +1 -179.0257772 +1    21    20    19
  H     1.10361519 +1  110.0041801 +1   64.5381413 +1    21    20    19
  H     1.11271944 +1  111.8742795 +1   69.2231804 +1    20    19     8
  H     1.13982826 +1  110.6295434 +1   -5.5744493 +1    11     3     2
  H     1.02946538 +1   37.5502559 +1  115.5456891 +1    19     8     2
  H     1.11231325 +1  107.2696338 +1  -47.9340772 +1    20    19     8
  H     1.10550056 +1  110.7367184 +1  178.4978328 +1    22    21    20
  H     1.10880666 +1  110.5271965 +1  -64.4953577 +1    22    21    20
  H     1.09169795 +1  119.8633467 +1 -179.8002981 +1     5     4     3
  H     2.47758854 +1  142.4146824 +1  153.3069970 +1    33    19     8
  H     1.52435122 +1   75.6804943 +1 -119.1106803 +1    38    33    19
  O     0.96430500 +1   37.9561681 +1  -48.5647412 +1    39    38    33

 TIME=     0.28
  REACTANTS AND PRODUCTS SWAPPED AROUND
[...]
     49         17  O    CARTESIAN X     1.541559     -1.850537  KCAL/ANGSTROM
     50         17  O    CARTESIAN Y    -1.601630     -0.120936  KCAL/ANGSTROM
     51         17  O    CARTESIAN Z    -0.448116      0.052907  KCAL/ANGSTROM
     52         18  O    CARTESIAN X    -0.560722     -0.380053  KCAL/ANGSTROM
     53         18  O    CARTESIAN Y    -1.419230     -0.119026  KCAL/ANGSTROM
     54         18  O    CARTESIAN Z    -0.116146     -0.323796  KCAL/ANGSTROM
     55         19  N    CARTESIAN X     4.368267     -1.075591  KCAL/ANGSTROM
     56         19  N    CARTESIAN Y    -0.749763     -0.685635  KCAL/ANGSTROM
     57         19  N    CARTESIAN Z     5.278558     -0.466227  KCAL/ANGSTROM
     58         20  C    CARTESIAN X     4.528660     -0.292671  KCAL/ANGSTROM
     59         20  C    CARTESIAN Y    -2.218746     -0.422802  KCAL/ANGSTROM
     60         20  C    CARTESIAN Z     5.443245     -0.556354  KCAL/ANGSTROM
     61         21  C    CARTESIAN X     5.230215     -0.274152  KCAL/ANGSTROM
     62         21  C    CARTESIAN Y    -2.544218     -0.396556  KCAL/ANGSTROM
     63         21  C    CARTESIAN Z     6.772785     -0.301521  KCAL/ANGSTROM
     64         22  C    CARTESIAN X     6.593814     -0.552433  KCAL/ANGSTROM
     65         22  C    CARTESIAN Y    -1.847570     -0.405132  KCAL/ANGSTROM
     66         22  C    CARTESIAN Z     6.831856     -0.284645  KCAL/ANGSTROM
     67         23  C    CARTESIAN X     6.396822     -0.422561  KCAL/ANGSTROM
     68         23  C    CARTESIAN Y    -0.337502     -0.566994  KCAL/ANGSTROM
     69         23  C    CARTESIAN Z     6.660377     -0.783131  KCAL/ANGSTROM
     70         24  C    CARTESIAN X     5.677092      0.040656  KCAL/ANGSTROM
     71         24  C    CARTESIAN Y    -0.045952     -0.249189  KCAL/ANGSTROM
     72         24  C    CARTESIAN Z     5.333933     -0.414206  KCAL/ANGSTROM
     73         25  H    CARTESIAN X     5.471486     -0.494883  KCAL/ANGSTROM
     74         25  H    CARTESIAN Y     1.043399     -0.448163  KCAL/ANGSTROM
     75         25  H    CARTESIAN Z     5.239962     -0.487364  KCAL/ANGSTROM
     76         26  H    CARTESIAN X     6.335660     -0.472953  KCAL/ANGSTROM
     77         26  H    CARTESIAN Y    -0.322803     -0.338802  KCAL/ANGSTROM
     78         26  H    CARTESIAN Z     4.482256     -0.357836  KCAL/ANGSTROM
     79         27  H    CARTESIAN X     7.368900     -0.357881  KCAL/ANGSTROM
     80         27  H    CARTESIAN Y     0.188481     -0.402115  KCAL/ANGSTROM
     81         27  H    CARTESIAN Z     6.683077     -0.397070  KCAL/ANGSTROM
     82         28  H    CARTESIAN X     5.807069     -0.433551  KCAL/ANGSTROM
     83         28  H    CARTESIAN Y     0.063735     -0.485547  KCAL/ANGSTROM
     84         28  H    CARTESIAN Z     7.506027     -0.408043  KCAL/ANGSTROM
     85         29  H    CARTESIAN X     5.345553     -0.406115  KCAL/ANGSTROM
     86         29  H    CARTESIAN Y    -3.638880     -0.598936  KCAL/ANGSTROM
     87         29  H    CARTESIAN Z     6.877492     -0.393009  KCAL/ANGSTROM
     88         30  H    CARTESIAN X     4.601640     -0.382566  KCAL/ANGSTROM
     89         30  H    CARTESIAN Y    -2.216954     -0.474406  KCAL/ANGSTROM
     90         30  H    CARTESIAN Z     7.621702     -0.449899  KCAL/ANGSTROM
     91         31  H    CARTESIAN X     5.097114     -0.417178  KCAL/ANGSTROM
     92         31  H    CARTESIAN Y    -2.677285     -0.615197  KCAL/ANGSTROM
     93         31  H    CARTESIAN Z     4.604321     -0.466959  KCAL/ANGSTROM
     94         32  H    CARTESIAN X     1.922561     -0.533418  KCAL/ANGSTROM
     95         32  H    CARTESIAN Y    -1.258905     -0.556869  KCAL/ANGSTROM
     96         32  H    CARTESIAN Z     1.934248     -0.571106  KCAL/ANGSTROM
     97         33  H    CARTESIAN X     3.930922     -0.800071  KCAL/ANGSTROM
     98         33  H    CARTESIAN Y    -0.560699     -0.179743  KCAL/ANGSTROM
     99         33  H    CARTESIAN Z     4.367379     -0.316683  KCAL/ANGSTROM
    100         34  H    CARTESIAN X     3.510809     -0.462738  KCAL/ANGSTROM
    101         34  H    CARTESIAN Y    -2.668438     -0.465597  KCAL/ANGSTROM
    102         34  H    CARTESIAN Z     5.428593     -0.420425  KCAL/ANGSTROM
    103         35  H    CARTESIAN X     7.099953     -0.409538  KCAL/ANGSTROM
    104         35  H    CARTESIAN Y    -2.067071     -0.510822  KCAL/ANGSTROM
    105         35  H    CARTESIAN Z     7.789445     -0.556242  KCAL/ANGSTROM
    106         36  H    CARTESIAN X     7.259547     -0.384093  KCAL/ANGSTROM
    107         36  H    CARTESIAN Y    -2.239973     -0.435582  KCAL/ANGSTROM
    108         36  H    CARTESIAN Z     6.039702     -0.594444  KCAL/ANGSTROM
    109         37  H    CARTESIAN X    -1.421217     -0.483902  KCAL/ANGSTROM
    110         37  H    CARTESIAN Y     3.150561     -0.533971  KCAL/ANGSTROM
    111         37  H    CARTESIAN Z     1.326359     -0.428308  KCAL/ANGSTROM
    112         38  H    CARTESIAN X     4.359438     -0.851743  KCAL/ANGSTROM
    113         38  H    CARTESIAN Y    -1.961979      0.788019  KCAL/ANGSTROM
    114         38  H    CARTESIAN Z     2.633041      0.932603  KCAL/ANGSTROM
    115         39  H    CARTESIAN X     4.168200     -0.809072  KCAL/ANGSTROM
    116         39  H    CARTESIAN Y    -1.399513      0.900245  KCAL/ANGSTROM
    117         39  H    CARTESIAN Z     1.224405      1.149932  KCAL/ANGSTROM
    118         40  O    CARTESIAN X     4.078209      1.547161  KCAL/ANGSTROM
    119         40  O    CARTESIAN Y    -1.177116     -1.734455  KCAL/ANGSTROM
    120         40  O    CARTESIAN Z     2.156280     -1.675712  KCAL/ANGSTROM




   ATOM   CHEMICAL          X               Y               Z
  NUMBER   SYMBOL      (ANGSTROMS)     (ANGSTROMS)     (ANGSTROMS)

     1       C          1.84650886  *   2.71005035  *   2.16939497  *
     2       C          1.91454888  *   1.32098432  *   2.08994562  *
     3       C          0.77903864  *   0.58927140  *   1.73963478  *
     4       C         -0.42101722  *   1.24756939  *   1.46459120  *
     5       C         -0.48360965  *   2.63631226  *   1.54162622  *
     6       C          0.64909687  *   3.36807293  *   1.89484064  *
     7       H          2.73344959  *   3.28186430  *   2.44492595  *
     8       H          2.85727863  *   0.80982899  *   2.30185017  *
     9       H         -1.31050762  *   0.67717875  *   1.18719724  *
    10       H          0.59776597  *   4.45616527  *   1.95435936  *
    11       C          0.86895557  *  -0.91304389  *   1.68685282  *
    12       C         -0.11657618  *  -1.58199930  *   2.63297636  *
    13       H         -0.01190817  *  -2.67725833  *   2.63597702  *
    14       H         -1.16447758  *  -1.35333778  *   2.39322593  *
    15       H          0.05308960  *  -1.24431312  *   3.67017162  *
    16       N          0.59264058  *  -1.34731530  *   0.27567294  *
    17       O          1.54155891  *  -1.60162954  *  -0.44811625  *
    18       O         -0.56072241  *  -1.41922955  *  -0.11614641  *
    19       N          4.36826742  *  -0.74976260  *   5.27855804  *
    20       C          4.52866046  *  -2.21874596  *   5.44324493  *
    21       C          5.23021515  *  -2.54421842  *   6.77278480  *
    22       C          6.59381427  *  -1.84756962  *   6.83185591  *
    23       C          6.39682178  *  -0.33750247  *   6.66037689  *
    24       C          5.67709216  *  -0.04595159  *   5.33393288  *
    25       H          5.47148598  *   1.04339924  *   5.23996228  *
    26       H          6.33566038  *  -0.32280270  *   4.48225564  *
    27       H          7.36890025  *   0.18848087  *   6.68307658  *
    28       H          5.80706864  *   0.06373504  *   7.50602735  *
    29       H          5.34555297  *  -3.63888027  *   6.87749151  *
    30       H          4.60164010  *  -2.21695400  *   7.62170165  *
    31       H          5.09711398  *  -2.67728460  *   4.60432090  *
    32       H          1.92256135  *  -1.25890456  *   1.93424815  *
    33       H          3.93092247  *  -0.56069940  *   4.36737912  *
    34       H          3.51080918  *  -2.66843803  *   5.42859333  *
    35       H          7.09995313  *  -2.06707080  *   7.78944540  *
    36       H          7.25954734  *  -2.23997345  *   6.03970220  *
    37       H         -1.42121711  *   3.15056126  *   1.32635885  *
    38       H          4.35943757  *  -1.96197911  *   2.63304076  *
    39       H          4.16820004  *  -1.39951323  *   1.22440525  *
    40       O          4.07820895  *  -1.17711623  *   2.15627987  *

                             CARTESIAN COORDINATES

   1    C        1.846508863     2.710050351     2.169394965
   2    C        1.914548879     1.320984320     2.089945624
   3    C        0.779038638     0.589271404     1.739634778
   4    C       -0.421017219     1.247569386     1.464591205
   5    C       -0.483609648     2.636312262     1.541626219
   6    C        0.649096872     3.368072932     1.894840643
   7    H        2.733449593     3.281864296     2.444925945
   8    H        2.857278626     0.809828991     2.301850166
   9    H       -1.310507619     0.677178747     1.187197237
  10    H        0.597765969     4.456165268     1.954359362
  11    C        0.868955568    -0.913043886     1.686852819
  12    C       -0.116576185    -1.581999295     2.632976365
  13    H       -0.011908171    -2.677258334     2.635977018
  14    H       -1.164477584    -1.353337784     2.393225932
  15    H        0.053089599    -1.244313121     3.670171618
  16    N        0.592640579    -1.347315297     0.275672942
  17    O        1.541558906    -1.601629545    -0.448116252
  18    O       -0.560722407    -1.419229547    -0.116146406
  19    N        4.368267424    -0.749762595     5.278558044
  20    C        4.528660459    -2.218745958     5.443244934
  21    C        5.230215148    -2.544218424     6.772784802
  22    C        6.593814270    -1.847569622     6.831855907
  23    C        6.396821780    -0.337502472     6.660376895
  24    C        5.677092157    -0.045951588     5.333932880
  25    H        5.471485981     1.043399243     5.239962283
  26    H        6.335660381    -0.322802700     4.482255635
  27    H        7.368900251     0.188480872     6.683076585
  28    H        5.807068638     0.063735044     7.506027349
  29    H        5.345552967    -3.638880268     6.877491509
  30    H        4.601640098    -2.216954002     7.621701650
  31    H        5.097113977    -2.677284603     4.604320895
  32    H        1.922561349    -1.258904563     1.934248146
  33    H        3.930922469    -0.560699400     4.367379123
  34    H        3.510809181    -2.668438028     5.428593325
  35    H        7.099953129    -2.067070800     7.789445399
  36    H        7.259547345    -2.239973446     6.039702202
  37    H       -1.421217115     3.150561256     1.326358851
  38    H        4.359437575    -1.961979112     2.633040759
  39    H        4.168200038    -1.399513230     1.224405247
  40    O        4.078208949    -1.177116233     2.156279875


           Empirical Formula: C13 H22 N2 O3  =    40 atoms



      MOLECULAR POINT GROUP   :   C1  


                  EIGENVALUES  
 -37.32312 -35.26522 -31.05489 -30.78539 -29.32033 -28.97101 -28.40898 -26.19107
 -26.12190 -25.66639 -24.93099 -22.26836 -22.17338 -21.37280 -21.20755 -20.38437
 -19.19956 -18.50235 -18.42011 -17.92911 -17.65922 -17.33358 -16.92659 -15.94636
 -15.53744 -15.35338 -15.20752 -14.86653 -14.67152 -14.56249 -14.22739 -14.14083
 -14.01385 -13.92219 -13.89068 -13.43102 -13.07464 -12.98735 -12.37208 -12.24552
 -12.12716 -12.00240 -11.88951 -11.76961 -11.59356 -11.43165 -11.30924 -11.25131
 -10.15738 -10.09233  -9.40142  -0.52595  -0.26663  -0.07565   0.60727   2.19702
   3.04702   3.09291   3.30095   3.75961   3.93365   3.95946   4.09135   4.25723
   4.28584   4.39983   4.52712   4.68671   4.74895   4.81134   4.85556   4.96317
   5.12249   5.41595   5.44694   5.54968   5.55632   5.57731   5.68554   5.71705
   5.84685   5.96667   6.01649   6.02405   6.04328   6.12386   6.13177   6.20686
   6.44516   6.59943   6.60101   6.61239   6.67983   6.73897


              NET ATOMIC CHARGES AND DIPOLE CONTRIBUTIONS

  ATOM NO.   TYPE          CHARGE      No. of ELECS.   s-Pop       p-Pop       
    1          C          -0.159635        4.1596     1.08667     3.07296
    2          C          -0.139781        4.1398     1.09118     3.04860
    3          C          -0.070420        4.0704     1.06694     3.00348
    4          C          -0.142773        4.1428     1.08896     3.05381
    5          C          -0.161860        4.1619     1.08655     3.07531
    6          C          -0.137797        4.1378     1.08968     3.04812
    7          H           0.167275        0.8327     0.83273
    8          H           0.176657        0.8233     0.82334
    9          H           0.172924        0.8271     0.82708
   10          H           0.163961        0.8360     0.83604
   11          C          -0.045553        4.0456     1.09705     2.94850
   12          C          -0.465424        4.4654     1.05748     3.40794
   13          H           0.177405        0.8226     0.82259
   14          H           0.175677        0.8243     0.82432
   15          H           0.182924        0.8171     0.81708
   16          N           0.625538        4.3745     1.48012     2.89434
   17          O          -0.452087        6.4521     1.93948     4.51261
   18          O          -0.452682        6.4527     1.93913     4.51355
   19          N          -0.582956        5.5830     1.68057     3.90239
   20          C          -0.115963        4.1160     1.06818     3.04778
   21          C          -0.281616        4.2816     1.06139     3.22023
   22          C          -0.267431        4.2674     1.05765     3.20978
   23          C          -0.282232        4.2822     1.06132     3.22091
   24          C          -0.113938        4.1139     1.06787     3.04607
   25          H           0.140373        0.8596     0.85963
   26          H           0.124001        0.8760     0.87600
   27          H           0.140764        0.8592     0.85924
   28          H           0.145386        0.8546     0.85461
   29          H           0.140984        0.8590     0.85902
   30          H           0.144697        0.8553     0.85530
   31          H           0.122047        0.8780     0.87795
   32          H           0.215259        0.7847     0.78474
   33          H           0.266507        0.7335     0.73349
   34          H           0.141415        0.8586     0.85858
   35          H           0.138826        0.8612     0.86117
   36          H           0.140222        0.8598     0.85978
   37          H           0.167414        0.8326     0.83259
   38          H           0.366006        0.6340     0.63399
   39          H           0.373918        0.6261     0.62608
   40          O          -0.738035        6.7380     1.81088     4.92716
 DIPOLE           X         Y         Z       TOTAL
 POINT-CHG.     2.858    -0.401     4.329     5.203
 HYBRID         0.166    -0.653    -1.451     1.600
 SUM            3.024    -1.055     2.879     4.306


          ATOMIC ORBITAL ELECTRON POPULATIONS

     Atom    s        px        py        pz   
    1  C   1.08667   1.05647   1.01101   1.00548
    2  C   1.09118   1.05448   1.01042   0.98370
    3  C   1.06694   1.00157   0.94362   1.05829
    4  C   1.08896   1.04645   1.01723   0.99013
    5  C   1.08655   1.06571   1.00523   1.00437
    6  C   1.08968   0.98460   1.08881   0.97471
    7  H   0.83273
    8  H   0.82334
    9  H   0.82708
   10  H   0.83604
   11  C   1.09705   1.13293   0.99823   0.81734
   12  C   1.05748   1.12039   1.16547   1.12208
   13  H   0.82259
   14  H   0.82432
   15  H   0.81708
   16  N   1.48012   0.95337   0.91353   1.02744
   17  O   1.93948   1.35174   1.55415   1.60672
   18  O   1.93913   1.10411   1.59020   1.81925
   19  N   1.68057   1.28133   1.15825   1.46281
   20  C   1.06818   1.11892   0.87571   1.05315
   21  C   1.06139   1.04113   1.11748   1.06162
   22  C   1.05765   1.04097   1.00907   1.15973
   23  C   1.06132   1.12452   1.03163   1.06476
   24  C   1.06787   0.92650   1.06785   1.05171
   25  H   0.85963
   26  H   0.87600
   27  H   0.85924
   28  H   0.85461
   29  H   0.85902
   30  H   0.85530
   31  H   0.87795
   32  H   0.78474
   33  H   0.73349
   34  H   0.85858
   35  H   0.86117
   36  H   0.85978
   37  H   0.83259
   38  H   0.63399
   39  H   0.62608
   40  O   1.81088   1.93907   1.56754   1.42055

          BONDING CONTRIBUTION OF EACH M.O.

  1.3133  1.3454  1.8550  1.0395  1.2316  1.6482  1.9278  1.9246  1.9688  1.5911
  1.3490  1.9028  1.6963  1.9055  1.9758  1.6586  1.8735  1.7925  1.1785  1.7779
  1.6128  1.8658  1.7532  1.9323  1.9622  1.9083  1.9223  1.9419  1.7260  1.6308
  1.1304  1.9320  1.9951  1.8893  1.7630  1.9664  2.0010  1.7153  1.0484  1.6916
  1.9465  1.2252  0.8930  0.4738  1.8893  0.9164  2.0063  2.0098  2.0192  1.9260
  0.9406 -2.2141 -2.1928 -1.9817 -2.0529 -1.9958 -1.9624 -1.9618 -1.9651 -1.9435
 -1.9679 -1.9831 -1.9521 -1.8825 -1.9692 -1.9381 -1.9607 -1.9651 -1.9699 -1.9202
 -2.0057 -1.9912 -1.9320 -1.9547 -1.9559 -1.9658 -1.9633 -1.9731 -1.9808 -1.9664
 -1.9737 -1.9596 -1.9740 -1.9729 -1.9708 -1.9812 -1.9648 -1.9805 -1.9251 -1.9377
 -1.9425 -1.8942 -1.7415 -1.9038





            (VALENCIES)   BOND ORDERS

     1  C     (3.971)     2  C 1.444     6  C 1.441     7  H 0.960     4  C 0.111

     2  C     (3.967)     1  C 1.444     3  C 1.424     8  H 0.953     5  C 0.111

     3  C     (3.989)     2  C 1.424     4  C 1.420    11  C 0.987     6  C 0.113

     4  C     (3.969)     5  C 1.449     3  C 1.420     9  H 0.956     1  C 0.111

     5  C     (3.971)     4  C 1.449     6  C 1.437    37  H 0.960     2  C 0.111

     6  C     (3.972)     1  C 1.441     5  C 1.437    10  H 0.961     3  C 0.113

     7  H     (0.972)     1  C 0.960

     8  H     (0.969)     2  C 0.953

     9  H     (0.970)     4  C 0.956

    10  H     (0.973)     6  C 0.961

    11  C     (3.898)    12  C 0.997     3  C 0.987    32  H 0.929    16  N 0.819    18  O 0.068    17  O 0.066

    12  C     (3.898)    11  C 0.997    13  H 0.959    14  H 0.959    15  H 0.951

    13  H     (0.969)    12  C 0.959

    14  H     (0.969)    12  C 0.959

    15  H     (0.967)    12  C 0.951

    16  N     (3.741)    18  O 1.444    17  O 1.443    11  C 0.819

    17  O     (1.834)    16  N 1.443    18  O 0.301    11  C 0.066

    18  O     (1.836)    16  N 1.444    17  O 0.301    11  C 0.068

    19  N     (2.878)    20  C 0.969    24  C 0.968    33  H 0.901

    20  C     (3.938)    21  C 1.001    19  N 0.969    31  H 0.969    34  H 0.965

    21  C     (3.960)    22  C 1.003    20  C 1.001    30  H 0.969    29  H 0.968

    22  C     (3.961)    21  C 1.003    23  C 1.003    36  H 0.970    35  H 0.970

    23  C     (3.960)    22  C 1.003    24  C 1.001    28  H 0.969    27  H 0.968

    24  C     (3.937)    23  C 1.001    26  H 0.970    19  N 0.968    25  H 0.965

    25  H     (0.980)    24  C 0.965

    26  H     (0.985)    24  C 0.970

    27  H     (0.980)    23  C 0.968

    28  H     (0.979)    23  C 0.969

    29  H     (0.980)    21  C 0.968

    30  H     (0.979)    21  C 0.969

    31  H     (0.985)    20  C 0.969

    32  H     (0.954)    11  C 0.929

    33  H     (0.929)    19  N 0.901

    34  H     (0.980)    20  C 0.965

    35  H     (0.981)    22  C 0.970

    36  H     (0.980)    22  C 0.970

    37  H     (0.972)     5  C 0.960

    38  H     (0.866)    40  O 0.860

    39  H     (0.860)    40  O 0.857

    40  O     (1.733)    38  H 0.860    39  H 0.857


 **********************
 *                    *
 * JOB ENDED NORMALLY *
 *                    *
 **********************



 TOTAL JOB TIME:           215.33 SECONDS

 == MOPAC DONE ==
