 *******************************************************************************
 **                                                                           **
 **                              MOPAC v22.1.0                                **
 **                                                                           **
 *******************************************************************************
 **          Digital Object Identifier (DOI): 10.5281/zenodo.6511958          **
 **    Visit the DOI location for information on how to cite this program.    **
 *******************************************************************************

                              PM7 CALCULATION RESULTS

 *******************************************************************************
 *  CALCULATION DONE:                                Sun Mar 24 12:03:22 2024  *
 *  PM7        - The PM7 Hamiltonian to be used
 *  SINGLET    - SPIN STATE DEFINED AS A SINGLET
 *
 *
 *
 *                 CHARGE ON SYSTEM = -1
 *
 *
 *
 *  EPS=78.4   - USE ANDREAS KLAMT'S COSMO IMPLICIT SOLVATION MODEL
 *  THREADS    - USE A MAXIMUM OF 40 THREADS
 *  T=         - A TIME OF 14.0 DAYS REQUESTED
 *  DUMP=N     - RESTART FILE WRITTEN EVERY 30.0 MINUTES REQUESTED
 *  ITRY=      - DO A MAXIMUM OF 15000 ITERATIONS FOR SCF
 *  AUX        - OUTPUT AUXILIARY INFORMATION
 *  PL         - MONITOR CONVERGENCE IN DENSITY MATRIX
 *******************************************************************************
PM7 CHARGE=-1 SINGLET AUX DUMP=30M ITRY=15000 eps=78.4 T=14D PL THREADS=40

 Mopac file generated by Gabedit
   ATOM   CHEMICAL          X               Y               Z
  NUMBER   SYMBOL      (ANGSTROMS)     (ANGSTROMS)     (ANGSTROMS)

     1       C         -0.77517000  *   1.16031000  *  -0.03137000  *
     2       C          0.57956000  *   1.17857000  *   0.32052000  *
     3       C          1.31788000  *  -0.00973000  *   0.30685000  *
     4       C          0.69063000  *  -1.20392000  *  -0.04713000  *
     5       C         -0.67193000  *  -1.20086000  *  -0.38467000  *
     6       C         -1.42431000  *  -0.02474000  *  -0.38542000  *
     7       H          1.04922000  *   2.13462000  *   0.60759000  *
     8       H          1.24539000  *  -2.15540000  *  -0.06427000  *
     9       H         -2.49389000  *  -0.02633000  *  -0.65337000  *
    10       N         -1.31180000  *  -2.45086000  *  -0.73384000  *
    11       O         -2.49505000  *  -2.44760000  *  -1.04197000  *
    12       O         -0.64686000  *  -3.47708000  *  -0.71724000  *
    13       C          2.77065000  *   0.04113000  *   0.71022000  *
    14       H          2.84627000  *   0.52342000  *   1.73879000  *
    15       C          3.49664000  *  -1.29711000  *   0.74624000  *
    16       H          4.55460000  *  -1.18530000  *   1.04610000  *
    17       H          3.50591000  *  -1.80584000  *  -0.22784000  *
    18       H          3.04858000  *  -1.99151000  *   1.47313000  *
    19       N          3.54422000  *   0.92998000  *  -0.23073000  *
    20       O          4.73974000  *   1.07099000  *  -0.03010000  *
    21       O          2.96204000  *   1.48068000  *  -1.14772000  *
    22       O          2.92769100  *   3.08195900  *   6.49887600  *
    23       H          3.23300100  *   2.27940900  *   6.74663600  *
    24       N         -1.52490000  *   2.39971000  *  -0.02954000  *
    25       O         -2.70130000  *   2.37690000  *  -0.35857000  *
    26       O         -0.95549000  *   3.43097000  *   0.29556000  *
    27       H          2.75767000  *   1.36521000  *   3.30105400  *
    28       H          3.25286900  *   1.96868500  *   4.66917900  *
    29       O          3.53711900  *   1.43196700  *   3.77424800  *



          CARTESIAN COORDINATES 

    NO.       ATOM           X           Y           Z

     1         C         -0.7752      1.1603     -0.0314
     2         C          0.5796      1.1786      0.3205
     3         C          1.3179     -0.0097      0.3069
     4         C          0.6906     -1.2039     -0.0471
     5         C         -0.6719     -1.2009     -0.3847
     6         C         -1.4243     -0.0247     -0.3854
     7         H          1.0492      2.1346      0.6076
     8         H          1.2454     -2.1554     -0.0643
     9         H         -2.4939     -0.0263     -0.6534
    10         N         -1.3118     -2.4509     -0.7338
    11         O         -2.4950     -2.4476     -1.0420
    12         O         -0.6469     -3.4771     -0.7172
    13         C          2.7706      0.0411      0.7102
    14         H          2.8463      0.5234      1.7388
    15         C          3.4966     -1.2971      0.7462
    16         H          4.5546     -1.1853      1.0461
    17         H          3.5059     -1.8058     -0.2278
    18         H          3.0486     -1.9915      1.4731
    19         N          3.5442      0.9300     -0.2307
    20         O          4.7397      1.0710     -0.0301
    21         O          2.9620      1.4807     -1.1477
    22         O          2.9277      3.0820      6.4989
    23         H          3.2330      2.2794      6.7466
    24         N         -1.5249      2.3997     -0.0295
    25         O         -2.7013      2.3769     -0.3586
    26         O         -0.9555      3.4310      0.2956
    27         H          2.7577      1.3652      3.3011
    28         H          3.2529      1.9687      4.6692
    29         O          3.5371      1.4320      3.7742

 General Reference for PM7:
 "Optimization of Parameters for Semiempirical Methods VI: More Modifications to the 
 NDDO Approximations and Re-optimization of Parameters", J. J. P. Stewart, J. Mol. Mod., 1:32, 19 (2013)
 https://link.springer.com/article/10.1007/s00894-012-1667-x

           Empirical Formula: C8 H10 N3 O8  =    29 atoms



      MOLECULAR POINT GROUP   :   C1  


 SINGLET STATE CALCULATION


      RHF CALCULATION, NO. OF DOUBLY OCCUPIED LEVELS = 53


          Geometry optimization using EF
 ITERATION   1 PLS= 0.100E+01 0.000E+00 ENERGY    14806.332191 DELTAE    0.0000000
 ITERATION   2 PLS= 0.121E+01 0.000E+00 ENERGY      451.917087 DELTAE    0.0000000
 ITERATION   3 PLS= 0.129E+00 0.000E+00 ENERGY      116.029143 DELTAE -335.8879436
 ITERATION   4 PLS= 0.799E-01 0.000E+00 ENERGY     -289.037366 DELTAE -405.0665087
 ITERATION   5 PLS= 0.305E-01 0.000E+00 ENERGY      -87.792174 DELTAE  201.2451918
 ITERATION   6 PLS= 0.182E-01 0.000E+00 ENERGY      -95.476588 DELTAE   -7.6844145
 ITERATION   7 PLS= 0.365E-01 0.000E+00 ENERGY     -144.727101 DELTAE  -49.2505124
 ITERATION   8 PLS= 0.247E-01 0.000E+00 ENERGY     -107.157467 DELTAE   37.5696340
 ITERATION   9 PLS= 0.821E-02 0.000E+00 ENERGY     -107.941999 DELTAE   -0.7845321
 ITERATION  10 PLS= 0.375E-02 0.000E+00 ENERGY     -108.339232 DELTAE   -0.3972334
 ITERATION  11 PLS= 0.101E-02 0.000E+00 ENERGY     -108.139030 DELTAE    0.2002028
 ITERATION  12 PLS= 0.430E-03 0.000E+00 ENERGY     -108.140024 DELTAE   -0.0009941
 ITERATION  13 PLS= 0.285E-03 0.000E+00 ENERGY     -108.140707 DELTAE   -0.0006831
 ITERATION  14 PLS= 0.119E-03 0.000E+00 ENERGY     -108.140354 DELTAE    0.0003527
 ITERATION   1 PLS= 0.852E-04 0.000E+00 ENERGY     -206.434549 DELTAE -306.4345488
 ITERATION   2 PLS= 0.356E-01 0.000E+00 ENERGY     -210.404009 DELTAE   -3.9694601
 ITERATION   3 PLS= 0.134E-01 0.000E+00 ENERGY     -211.047530 DELTAE   -0.6435208
 ITERATION   4 PLS= 0.639E-02 0.000E+00 ENERGY     -211.533453 DELTAE   -0.4859229
 ITERATION   5 PLS= 0.247E-02 0.000E+00 ENERGY     -211.297465 DELTAE    0.2359874
 ITERATION   6 PLS= 0.191E-02 0.000E+00 ENERGY     -211.302120 DELTAE   -0.0046548
 ITERATION   7 PLS= 0.146E-02 0.000E+00 ENERGY     -211.324376 DELTAE   -0.0222560
 ITERATION   8 PLS= 0.213E-03 0.000E+00 ENERGY     -211.307801 DELTAE    0.0165751

          DIAGONAL MATRIX USED AS START HESSIAN

 CYCLE:     1 TIME:   0.121 TIME LEFT:  2.00W  GRAD.:    91.452 HEAT: -211.3078
 ITERATION   1 PLS= 0.948E-04 0.000E+00 ENERGY     -191.913976 DELTAE -291.9139757
 ITERATION   2 PLS= 0.531E-01 0.000E+00 ENERGY     -206.128718 DELTAE  -14.2147424
 ITERATION   3 PLS= 0.137E-01 0.000E+00 ENERGY     -207.328231 DELTAE   -1.1995127
 ITERATION   4 PLS= 0.828E-02 0.000E+00 ENERGY     -207.666793 DELTAE   -0.3385623
 ITERATION   5 PLS= 0.257E-02 0.000E+00 ENERGY     -207.536147 DELTAE    0.1306456
 ITERATION   6 PLS= 0.150E-02 0.000E+00 ENERGY     -207.537904 DELTAE   -0.0017570
 ITERATION   1 PLS= 0.887E-03 0.000E+00 ENERGY     -210.813169 DELTAE -310.8131693
 ITERATION   2 PLS= 0.275E-01 0.000E+00 ENERGY     -214.581981 DELTAE   -3.7688117
 ITERATION   3 PLS= 0.986E-02 0.000E+00 ENERGY     -214.951446 DELTAE   -0.3694647
 ITERATION   4 PLS= 0.607E-02 0.000E+00 ENERGY     -215.122552 DELTAE   -0.1711066
 ITERATION   5 PLS= 0.150E-02 0.000E+00 ENERGY     -215.035074 DELTAE    0.0874785
 CYCLE:     2 TIME:   0.105 TIME LEFT:  2.00W  GRAD.:    25.019 HEAT: -215.0356
 ITERATION   1 PLS= 0.638E-03 0.000E+00 ENERGY     -214.898016 DELTAE -314.8980164
 ITERATION   2 PLS= 0.671E-02 0.000E+00 ENERGY     -215.275333 DELTAE   -0.3773164
 ITERATION   3 PLS= 0.228E-02 0.000E+00 ENERGY     -215.320013 DELTAE   -0.0446798
 ITERATION   4 PLS= 0.112E-02 0.000E+00 ENERGY     -215.336572 DELTAE   -0.0165595
 CYCLE:     3 TIME:   0.051 TIME LEFT:  2.00W  GRAD.:    23.814 HEAT: -215.3300
 ITERATION   1 PLS= 0.182E-03 0.000E+00 ENERGY     -212.793156 DELTAE -312.7931558
 ITERATION   2 PLS= 0.915E-02 0.000E+00 ENERGY     -214.050524 DELTAE   -1.2573686
 ITERATION   3 PLS= 0.410E-02 0.000E+00 ENERGY     -214.209974 DELTAE   -0.1594493
 ITERATION   4 PLS= 0.221E-02 0.000E+00 ENERGY     -214.290084 DELTAE   -0.0801105
 ITERATION   5 PLS= 0.324E-03 0.000E+00 ENERGY     -214.251874 DELTAE    0.0382101
 ITERATION   1 PLS= 0.193E-03 0.000E+00 ENERGY     -214.803076 DELTAE -314.8030763
 ITERATION   2 PLS= 0.517E-02 0.000E+00 ENERGY     -215.101008 DELTAE   -0.2979316
 ITERATION   3 PLS= 0.242E-02 0.000E+00 ENERGY     -215.142241 DELTAE   -0.0412330
 ITERATION   4 PLS= 0.115E-02 0.000E+00 ENERGY     -215.163052 DELTAE   -0.0208110
 ITERATION   1 PLS= 0.146E-03 0.000E+00 ENERGY     -215.195070 DELTAE -315.1950697
 ITERATION   2 PLS= 0.310E-02 0.000E+00 ENERGY     -215.289803 DELTAE   -0.0947338
 ITERATION   3 PLS= 0.121E-02 0.000E+00 ENERGY     -215.301463 DELTAE   -0.0116594
 ITERATION   4 PLS= 0.663E-03 0.000E+00 ENERGY     -215.307109 DELTAE   -0.0056458
 ITERATION   1 PLS= 0.953E-04 0.000E+00 ENERGY     -215.454258 DELTAE -315.4542580
 ITERATION   2 PLS= 0.141E-02 0.000E+00 ENERGY     -215.480907 DELTAE   -0.0266490
 ITERATION   3 PLS= 0.802E-03 0.000E+00 ENERGY     -215.484401 DELTAE   -0.0034942
 ITERATION   4 PLS= 0.437E-03 0.000E+00 ENERGY     -215.486588 DELTAE   -0.0021873
 CYCLE:     4 TIME:   0.191 TIME LEFT:  2.00W  GRAD.:    14.257 HEAT: -215.4855
 ITERATION   1 PLS= 0.114E-03 0.000E+00 ENERGY     -215.220679 DELTAE -315.2206789
 ITERATION   2 PLS= 0.280E-02 0.000E+00 ENERGY     -215.291163 DELTAE   -0.0704842
 ITERATION   3 PLS= 0.989E-03 0.000E+00 ENERGY     -215.299655 DELTAE   -0.0084917
 ITERATION   4 PLS= 0.655E-03 0.000E+00 ENERGY     -215.304320 DELTAE   -0.0046654
 ITERATION   1 PLS= 0.206E-03 0.000E+00 ENERGY     -215.504660 DELTAE -315.5046600
 ITERATION   2 PLS= 0.175E-02 0.000E+00 ENERGY     -215.525846 DELTAE   -0.0211863
 ITERATION   3 PLS= 0.870E-03 0.000E+00 ENERGY     -215.528578 DELTAE   -0.0027321
 ITERATION   4 PLS= 0.449E-03 0.000E+00 ENERGY     -215.530157 DELTAE   -0.0015788
 CYCLE:     5 TIME:   0.098 TIME LEFT:  2.00W  GRAD.:    10.013 HEAT: -215.5294
 ITERATION   1 PLS= 0.136E-03 0.000E+00 ENERGY     -215.520674 DELTAE -315.5206743
 ITERATION   2 PLS= 0.124E-02 0.000E+00 ENERGY     -215.535815 DELTAE   -0.0151410
 ITERATION   3 PLS= 0.513E-03 0.000E+00 ENERGY     -215.537832 DELTAE   -0.0020161
 ITERATION   4 PLS= 0.245E-03 0.000E+00 ENERGY     -215.538838 DELTAE   -0.0010069
 CYCLE:     6 TIME:   0.047 TIME LEFT:  2.00W  GRAD.:     8.095 HEAT: -215.5384
 ITERATION   1 PLS= 0.488E-04 0.000E+00 ENERGY     -215.324408 DELTAE -315.3244080
 ITERATION   2 PLS= 0.254E-02 0.000E+00 ENERGY     -215.337621 DELTAE   -0.0132129
 ITERATION   3 PLS= 0.108E-02 0.000E+00 ENERGY     -215.339998 DELTAE   -0.0023774
 ITERATION   4 PLS= 0.497E-03 0.000E+00 ENERGY     -215.341423 DELTAE   -0.0014248
 ITERATION   1 PLS= 0.121E-03 0.000E+00 ENERGY     -215.298030 DELTAE -315.2980301
 ITERATION   2 PLS= 0.670E-03 0.000E+00 ENERGY     -215.300309 DELTAE   -0.0022789
 ITERATION   3 PLS= 0.317E-03 0.000E+00 ENERGY     -215.300710 DELTAE   -0.0004007
 ITERATION   4 PLS= 0.151E-03 0.000E+00 ENERGY     -215.300926 DELTAE   -0.0002162
 ITERATION   1 PLS= 0.102E-04 0.000E+00 ENERGY     -215.520973 DELTAE -315.5209732
 ITERATION   2 PLS= 0.258E-02 0.000E+00 ENERGY     -215.524933 DELTAE   -0.0039602
 ITERATION   3 PLS= 0.108E-02 0.000E+00 ENERGY     -215.525699 DELTAE   -0.0007658
 ITERATION   4 PLS= 0.491E-03 0.000E+00 ENERGY     -215.526183 DELTAE   -0.0004840
 ITERATION   1 PLS= 0.109E-03 0.000E+00 ENERGY     -215.526468 DELTAE -315.5264676
 ITERATION   2 PLS= 0.153E-03 0.000E+00 ENERGY     -215.526644 DELTAE   -0.0001765
 ITERATION   3 PLS= 0.724E-04 0.000E+00 ENERGY     -215.526672 DELTAE   -0.0000278
 ITERATION   4 PLS= 0.345E-04 0.000E+00 ENERGY     -215.526689 DELTAE   -0.0000169
 ITERATION   1 PLS= 0.787E-05 0.000E+00 ENERGY     -215.525645 DELTAE -315.5256454
 ITERATION   2 PLS= 0.740E-04 0.000E+00 ENERGY     -215.525697 DELTAE   -0.0000517
 ITERATION   3 PLS= 0.350E-04 0.000E+00 ENERGY     -215.525704 DELTAE   -0.0000070
 ITERATION   4 PLS= 0.167E-04 0.000E+00 ENERGY     -215.525708 DELTAE   -0.0000040
 ITERATION   1 PLS= 0.427E-05 0.000E+00 ENERGY     -215.539104 DELTAE -315.5391038
 ITERATION   2 PLS= 0.110E-03 0.000E+00 ENERGY     -215.539129 DELTAE   -0.0000257
 ITERATION   3 PLS= 0.461E-04 0.000E+00 ENERGY     -215.539134 DELTAE   -0.0000040
 ITERATION   4 PLS= 0.207E-04 0.000E+00 ENERGY     -215.539136 DELTAE   -0.0000023
 CYCLE:     7 TIME:   0.293 TIME LEFT:  2.00W  GRAD.:     7.948 HEAT: -215.5391
 ITERATION   1 PLS= 0.441E-05 0.000E+00 ENERGY     -215.525866 DELTAE -315.5258658
 ITERATION   2 PLS= 0.107E-03 0.000E+00 ENERGY     -215.525913 DELTAE   -0.0000468
 ITERATION   3 PLS= 0.442E-04 0.000E+00 ENERGY     -215.525919 DELTAE   -0.0000064
 ITERATION   4 PLS= 0.196E-04 0.000E+00 ENERGY     -215.525922 DELTAE   -0.0000032
 ITERATION   1 PLS= 0.384E-05 0.000E+00 ENERGY     -215.525553 DELTAE -315.5255529
 ITERATION   2 PLS= 0.336E-04 0.000E+00 ENERGY     -215.525561 DELTAE   -0.0000084
 ITERATION   3 PLS= 0.127E-04 0.000E+00 ENERGY     -215.525562 DELTAE   -0.0000010
 ITERATION   4 PLS= 0.606E-05 0.000E+00 ENERGY     -215.525563 DELTAE   -0.0000005

     TRUST RADIUS NOW LESS THAN  0.00010 OPTIMIZATION TERMINATING
      THE GEOMETRY MAY NOT BE COMPLETELY OPTIMIZED
      (TO CONTINUE, ADD 'LET DDMIN=0.0' TO THE KEYWORD LINE)
 ITERATION   1 PLS= 0.774E-06 0.000E+00 ENERGY     -215.539112 DELTAE -315.5391116
 ITERATION   2 PLS= 0.113E-03 0.000E+00 ENERGY     -215.539131 DELTAE   -0.0000192
 ITERATION   3 PLS= 0.467E-04 0.000E+00 ENERGY     -215.539134 DELTAE   -0.0000031
 ITERATION   4 PLS= 0.208E-04 0.000E+00 ENERGY     -215.539136 DELTAE   -0.0000017

 -------------------------------------------------------------------------------
 PM7 CHARGE=-1 SINGLET AUX DUMP=30M ITRY=15000 eps=78.4 T=14D PL THREADS=40

 Mopac file generated by Gabedit


     GEOMETRY OPTIMISED USING EIGENVECTOR FOLLOWING (EF).     
     SCF FIELD WAS ACHIEVED                                   


                              PM7 CALCULATION
                                                       MOPAC v22.1.0 Linux
                                                       Sun Mar 24 12:03:23 2024




          FINAL HEAT OF FORMATION =       -215.53913 KCAL/MOL =    -901.81574 KJ/MOL
          VAN DER WAALS AREA      =        295.40 SQUARE ANGSTROMS



          DIELECTRIC ENERGY       =         -4.80735 EV
          COSMO AREA              =        295.40 SQUARE ANGSTROMS
          COSMO VOLUME            =        299.51 CUBIC ANGSTROMS

          GRADIENT NORM           =          7.94751          =       1.47582 PER ATOM
          IONIZATION POTENTIAL    =         10.269905 EV
          HOMO LUMO ENERGIES (EV) =        -10.270 -1.939
          NO. OF FILLED LEVELS    =         53
          MOLECULAR WEIGHT        =        276.1823         POINT GROUP:  C1  

          MOLECULAR DIMENSIONS (Angstroms)

            Atom       Atom       Distance
            O    22    O    11    10.77391
            O    25    H    16     7.70653
            O    21    H    23     5.08245


          SCF CALCULATIONS        =         21

          WALL-CLOCK TIME         =      1.059 SECONDS
          COMPUTATION TIME        =          1 MINUTE AND 31.072 SECONDS



       FINAL  POINT  AND  DERIVATIVES

   PARAMETER     ATOM    TYPE            VALUE        GRADIENT
      1          1  C    CARTESIAN X    -0.774632     -0.269937  KCAL/ANGSTROM
      2          1  C    CARTESIAN Y     1.159812     -0.021120  KCAL/ANGSTROM
      3          1  C    CARTESIAN Z    -0.031810     -0.173960  KCAL/ANGSTROM
      4          2  C    CARTESIAN X     0.579603     -0.086376  KCAL/ANGSTROM
      5          2  C    CARTESIAN Y     1.178337     -0.131232  KCAL/ANGSTROM
      6          2  C    CARTESIAN Z     0.321388      0.145773  KCAL/ANGSTROM
      7          3  C    CARTESIAN X     1.317503     -0.163607  KCAL/ANGSTROM
      8          3  C    CARTESIAN Y    -0.010225      0.474486  KCAL/ANGSTROM
      9          3  C    CARTESIAN Z     0.306301      0.156183  KCAL/ANGSTROM
     10          4  C    CARTESIAN X     0.691498     -0.196347  KCAL/ANGSTROM
     11          4  C    CARTESIAN Y    -1.204092     -0.170203  KCAL/ANGSTROM
     12          4  C    CARTESIAN Z    -0.048629      0.058078  KCAL/ANGSTROM
     13          5  C    CARTESIAN X    -0.671066     -0.626241  KCAL/ANGSTROM
     14          5  C    CARTESIAN Y    -1.201071      0.090762  KCAL/ANGSTROM
     15          5  C    CARTESIAN Z    -0.383718     -0.127371  KCAL/ANGSTROM
     16          6  C    CARTESIAN X    -1.423891     -0.109841  KCAL/ANGSTROM
     17          6  C    CARTESIAN Y    -0.025371      0.042959  KCAL/ANGSTROM
     18          6  C    CARTESIAN Z    -0.387276      0.069741  KCAL/ANGSTROM
     19          7  H    CARTESIAN X     1.051976     -0.652509  KCAL/ANGSTROM
     20          7  H    CARTESIAN Y     2.132500      0.224375  KCAL/ANGSTROM
     21          7  H    CARTESIAN Z     0.607621     -0.132355  KCAL/ANGSTROM
     22          8  H    CARTESIAN X     1.246616     -0.481101  KCAL/ANGSTROM
     23          8  H    CARTESIAN Y    -2.155078     -0.026602  KCAL/ANGSTROM
     24          8  H    CARTESIAN Z    -0.065667      0.065192  KCAL/ANGSTROM
     25          9  H    CARTESIAN X    -2.494006     -0.302982  KCAL/ANGSTROM
     26          9  H    CARTESIAN Y    -0.029962      0.490440  KCAL/ANGSTROM
     27          9  H    CARTESIAN Z    -0.655830      0.137081  KCAL/ANGSTROM
     28         10  N    CARTESIAN X    -1.311227      0.495959  KCAL/ANGSTROM
     29         10  N    CARTESIAN Y    -2.450233      0.097179  KCAL/ANGSTROM
     30         10  N    CARTESIAN Z    -0.736450      0.346664  KCAL/ANGSTROM
     31         11  O    CARTESIAN X    -2.494818     -1.086963  KCAL/ANGSTROM
     32         11  O    CARTESIAN Y    -2.445171     -0.421740  KCAL/ANGSTROM
     33         11  O    CARTESIAN Z    -1.042238     -0.368306  KCAL/ANGSTROM
     34         12  O    CARTESIAN X    -0.647872     -0.036860  KCAL/ANGSTROM
     35         12  O    CARTESIAN Y    -3.477224     -0.089600  KCAL/ANGSTROM
     36         12  O    CARTESIAN Z    -0.718434     -0.062358  KCAL/ANGSTROM
     37         13  C    CARTESIAN X     2.770235     -0.155049  KCAL/ANGSTROM
     38         13  C    CARTESIAN Y     0.040188     -0.052022  KCAL/ANGSTROM
     39         13  C    CARTESIAN Z     0.707764      0.436886  KCAL/ANGSTROM
     40         14  H    CARTESIAN X     2.847629     -0.507257  KCAL/ANGSTROM
     41         14  H    CARTESIAN Y     0.522525     -0.065858  KCAL/ANGSTROM
     42         14  H    CARTESIAN Z     1.731993     -0.424102  KCAL/ANGSTROM
     43         15  C    CARTESIAN X     3.494269      0.482968  KCAL/ANGSTROM
     44         15  C    CARTESIAN Y    -1.298255      0.152196  KCAL/ANGSTROM
     45         15  C    CARTESIAN Z     0.744795      0.977289  KCAL/ANGSTROM
     46         16  H    CARTESIAN X     4.551450      0.889939  KCAL/ANGSTROM
     47         16  H    CARTESIAN Y    -1.187300      0.381867  KCAL/ANGSTROM
     48         16  H    CARTESIAN Z     1.045843     -0.190450  KCAL/ANGSTROM
     49         17  H    CARTESIAN X     3.504593      0.365168  KCAL/ANGSTROM
     50         17  H    CARTESIAN Y    -1.808248      0.486900  KCAL/ANGSTROM
     51         17  H    CARTESIAN Z    -0.230398     -0.471317  KCAL/ANGSTROM
     52         18  H    CARTESIAN X     3.044414      1.015924  KCAL/ANGSTROM
     53         18  H    CARTESIAN Y    -1.991087     -0.240413  KCAL/ANGSTROM
     54         18  H    CARTESIAN Z     1.473319     -0.133686  KCAL/ANGSTROM
     55         19  N    CARTESIAN X     3.542544     -0.959318  KCAL/ANGSTROM
     56         19  N    CARTESIAN Y     0.930878      0.662359  KCAL/ANGSTROM
     57         19  N    CARTESIAN Z    -0.235785     -0.989645  KCAL/ANGSTROM
     58         20  O    CARTESIAN X     4.737385      0.995289  KCAL/ANGSTROM
     59         20  O    CARTESIAN Y     1.072198     -0.542394  KCAL/ANGSTROM
     60         20  O    CARTESIAN Z    -0.032531      0.527322  KCAL/ANGSTROM
     61         21  O    CARTESIAN X     2.959017      1.454981  KCAL/ANGSTROM
     62         21  O    CARTESIAN Y     1.479567     -0.821288  KCAL/ANGSTROM
     63         21  O    CARTESIAN Z    -1.151418      1.314606  KCAL/ANGSTROM
     64         22  O    CARTESIAN X     2.931957     -1.361631  KCAL/ANGSTROM
     65         22  O    CARTESIAN Y     3.066321      2.804169  KCAL/ANGSTROM
     66         22  O    CARTESIAN Z     6.457814      4.259559  KCAL/ANGSTROM
     67         23  H    CARTESIAN X     3.232788     -0.101076  KCAL/ANGSTROM
     68         23  H    CARTESIAN Y     2.276598      0.743389  KCAL/ANGSTROM
     69         23  H    CARTESIAN Z     6.751128     -0.437775  KCAL/ANGSTROM
     70         24  N    CARTESIAN X    -1.524291     -0.347019  KCAL/ANGSTROM
     71         24  N    CARTESIAN Y     2.398806     -0.426719  KCAL/ANGSTROM
     72         24  N    CARTESIAN Z    -0.029551     -0.283012  KCAL/ANGSTROM
     73         25  O    CARTESIAN X    -2.701084     -0.196616  KCAL/ANGSTROM
     74         25  O    CARTESIAN Y     2.376406      0.100989  KCAL/ANGSTROM
     75         25  O    CARTESIAN Z    -0.356769     -0.188514  KCAL/ANGSTROM
     76         26  O    CARTESIAN X    -0.955152     -0.066454  KCAL/ANGSTROM
     77         26  O    CARTESIAN Y     3.429869      0.613197  KCAL/ANGSTROM
     78         26  O    CARTESIAN Z     0.296701      0.065347  KCAL/ANGSTROM
     79         27  H    CARTESIAN X     2.742122      0.549375  KCAL/ANGSTROM
     80         27  H    CARTESIAN Y     1.374921     -1.624478  KCAL/ANGSTROM
     81         27  H    CARTESIAN Z     3.317229     -0.980763  KCAL/ANGSTROM
     82         28  H    CARTESIAN X     3.255590      0.634506  KCAL/ANGSTROM
     83         28  H    CARTESIAN Y     1.957903     -2.231955  KCAL/ANGSTROM
     84         28  H    CARTESIAN Z     4.625281     -2.074233  KCAL/ANGSTROM
     85         29  O    CARTESIAN X     3.543421      0.823130  KCAL/ANGSTROM
     86         29  O    CARTESIAN Y     1.453552     -0.499569  KCAL/ANGSTROM
     87         29  O    CARTESIAN Z     3.841864     -1.521810  KCAL/ANGSTROM




   ATOM   CHEMICAL          X               Y               Z
  NUMBER   SYMBOL      (ANGSTROMS)     (ANGSTROMS)     (ANGSTROMS)

     1       C         -0.77463226  *   1.15981160  *  -0.03181025  *
     2       C          0.57960284  *   1.17833687  *   0.32138806  *
     3       C          1.31750324  *  -0.01022470  *   0.30630121  *
     4       C          0.69149775  *  -1.20409247  *  -0.04862851  *
     5       C         -0.67106578  *  -1.20107129  *  -0.38371842  *
     6       C         -1.42389056  *  -0.02537107  *  -0.38727556  *
     7       H          1.05197646  *   2.13249982  *   0.60762099  *
     8       H          1.24661570  *  -2.15507795  *  -0.06566691  *
     9       H         -2.49400586  *  -0.02996222  *  -0.65583044  *
    10       N         -1.31122666  *  -2.45023314  *  -0.73645048  *
    11       O         -2.49481817  *  -2.44517146  *  -1.04223755  *
    12       O         -0.64787207  *  -3.47722420  *  -0.71843386  *
    13       C          2.77023518  *   0.04018837  *   0.70776365  *
    14       H          2.84762887  *   0.52252479  *   1.73199250  *
    15       C          3.49426877  *  -1.29825511  *   0.74479542  *
    16       H          4.55145008  *  -1.18729984  *   1.04584304  *
    17       H          3.50459339  *  -1.80824824  *  -0.23039817  *
    18       H          3.04441381  *  -1.99108720  *   1.47331874  *
    19       N          3.54254360  *   0.93087755  *  -0.23578489  *
    20       O          4.73738458  *   1.07219788  *  -0.03253112  *
    21       O          2.95901744  *   1.47956721  *  -1.15141827  *
    22       O          2.93195683  *   3.06632077  *   6.45781444  *
    23       H          3.23278834  *   2.27659776  *   6.75112826  *
    24       N         -1.52429138  *   2.39880580  *  -0.02955071  *
    25       O         -2.70108360  *   2.37640638  *  -0.35676897  *
    26       O         -0.95515200  *   3.42986897  *   0.29670068  *
    27       H          2.74212205  *   1.37492097  *   3.31722899  *
    28       H          3.25558993  *   1.95790314  *   4.62528090  *
    29       O          3.54342099  *   1.45355220  *   3.84186358  *

                             CARTESIAN COORDINATES

   1    C       -0.774632264     1.159811600    -0.031810254
   2    C        0.579602836     1.178336874     0.321388058
   3    C        1.317503241    -0.010224697     0.306301211
   4    C        0.691497747    -1.204092474    -0.048628514
   5    C       -0.671065780    -1.201071290    -0.383718416
   6    C       -1.423890565    -0.025371074    -0.387275558
   7    H        1.051976465     2.132499825     0.607620990
   8    H        1.246615701    -2.155077952    -0.065666910
   9    H       -2.494005862    -0.029962222    -0.655830439
  10    N       -1.311226662    -2.450233139    -0.736450481
  11    O       -2.494818166    -2.445171457    -1.042237554
  12    O       -0.647872071    -3.477224200    -0.718433861
  13    C        2.770235178     0.040188375     0.707763651
  14    H        2.847628873     0.522524795     1.731992503
  15    C        3.494268771    -1.298255110     0.744795422
  16    H        4.551450079    -1.187299836     1.045843039
  17    H        3.504593393    -1.808248245    -0.230398169
  18    H        3.044413814    -1.991087204     1.473318740
  19    N        3.542543600     0.930877551    -0.235784888
  20    O        4.737384578     1.072197875    -0.032531119
  21    O        2.959017444     1.479567213    -1.151418273
  22    O        2.931956830     3.066320770     6.457814437
  23    H        3.232788340     2.276597764     6.751128257
  24    N       -1.524291375     2.398805802    -0.029550713
  25    O       -2.701083603     2.376406384    -0.356768974
  26    O       -0.955151996     3.429868974     0.296700685
  27    H        2.742122051     1.374920975     3.317228988
  28    H        3.255589930     1.957903139     4.625280898
  29    O        3.543420992     1.453552199     3.841863580


           Empirical Formula: C8 H10 N3 O8  =    29 atoms



      MOLECULAR POINT GROUP   :   C1  


                  EIGENVALUES  
 -37.75031 -37.68871 -37.64570 -32.25918 -31.17566 -31.13931 -31.06622 -29.78494
 -29.20065 -28.49911 -27.17265 -25.68897 -25.56914 -24.71922 -24.60573 -22.97311
 -21.81204 -21.05479 -19.96823 -18.94597 -18.83504 -18.40971 -18.11936 -17.94449
 -17.85750 -17.68591 -17.63743 -17.54712 -17.35524 -16.45291 -15.85750 -14.66466
 -14.47583 -14.36333 -14.14581 -13.90618 -13.64289 -13.16998 -13.06766 -12.39185
 -12.09538 -12.06920 -12.06353 -12.05866 -12.00512 -11.99654 -11.94510 -11.79732
 -11.72649 -11.30966 -11.05739 -10.28675 -10.26991  -1.93916  -1.65099  -0.61006
  -0.54763   0.09601   0.12359   0.20853   0.27949   1.28847   2.00210   2.63216
   2.86023   2.93934   3.09733   3.33974   3.44597   3.51719   3.68747   3.81545
   3.96829   3.99269   4.33296   4.39704   4.42613   4.72440   4.85386   4.96137
   5.03048   5.21049   5.26308   6.45494   6.52338   8.17837


              NET ATOMIC CHARGES AND DIPOLE CONTRIBUTIONS

  ATOM NO.   TYPE          CHARGE      No. of ELECS.   s-Pop       p-Pop       
    1          C          -0.098720        4.0987     1.06645     3.03227
    2          C           0.010782        3.9892     1.10546     2.88376
    3          C          -0.093621        4.0936     1.06268     3.03095
    4          C           0.014252        3.9857     1.10532     2.88043
    5          C          -0.102692        4.1027     1.06787     3.03482
    6          C           0.018750        3.9812     1.10462     2.87663
    7          H           0.216708        0.7833     0.78329
    8          H           0.208160        0.7918     0.79184
    9          H           0.222162        0.7778     0.77784
   10          N           0.676416        4.3236     1.44405     2.87953
   11          O          -0.439906        6.4399     1.94091     4.49900
   12          O          -0.448026        6.4480     1.94086     4.50717
   13          C          -0.013737        4.0137     1.09127     2.92247
   14          H           0.203679        0.7963     0.79632
   15          C          -0.486365        4.4864     1.05876     3.42760
   16          H           0.190365        0.8096     0.80963
   17          H           0.180599        0.8194     0.81940
   18          H           0.194955        0.8050     0.80504
   19          N           0.614779        4.3852     1.47881     2.90641
   20          O          -0.437214        6.4372     1.93997     4.49725
   21          O          -0.431738        6.4317     1.93911     4.49263
   22          O          -1.321462        7.3215     1.87345     5.44802
   23          H           0.329601        0.6704     0.67040
   24          N           0.683177        4.3168     1.44207     2.87475
   25          O          -0.444095        6.4441     1.94067     4.50342
   26          O          -0.437844        6.4378     1.94062     4.49722
   27          H           0.356032        0.6440     0.64397
   28          H           0.385378        0.6146     0.61462
   29          O          -0.750374        6.7504     1.81902     4.93135
 DIPOLE           X         Y         Z       TOTAL
 POINT-CHG.    -7.893   -16.451   -22.434    28.918
 HYBRID        -0.610    -0.007    -0.509     0.795
 SUM           -8.503   -16.459   -22.943    29.489


          ATOMIC ORBITAL ELECTRON POPULATIONS

     Atom    s        px        py        pz   
    1  C   1.06645   0.97979   0.89799   1.15448
    2  C   1.10546   0.95998   1.06840   0.85539
    3  C   1.06268   0.97839   0.98054   1.07201
    4  C   1.10532   0.97160   1.07552   0.83330
    5  C   1.06787   0.99106   0.89592   1.14784
    6  C   1.10462   1.09277   0.94014   0.84373
    7  H   0.78329
    8  H   0.79184
    9  H   0.77784
   10  N   1.44405   0.96411   0.99610   0.91933
   11  O   1.94091   1.03815   1.92205   1.53880
   12  O   1.94086   1.62043   1.28752   1.59922
   13  C   1.09127   0.92554   0.98509   1.01183
   14  H   0.79632
   15  C   1.05876   1.16817   1.03665   1.22278
   16  H   0.80963
   17  H   0.81940
   18  H   0.80504
   19  N   1.47881   0.97850   0.95454   0.97337
   20  O   1.93997   1.03734   1.68972   1.77019
   21  O   1.93911   1.68318   1.52025   1.28920
   22  O   1.87345   1.93819   1.57263   1.93719
   23  H   0.67040
   24  N   1.44207   0.96608   0.99238   0.91629
   25  O   1.94067   1.05034   1.91906   1.53402
   26  O   1.94062   1.68921   1.27389   1.53412
   27  H   0.64397
   28  H   0.61462
   29  O   1.81902   1.52338   1.85929   1.54868

 **********************
 *                    *
 * JOB ENDED NORMALLY *
 *                    *
 **********************



 TOTAL JOB TIME:             1.07 SECONDS

 == MOPAC DONE ==
