17
	Energy:    -305.9729800
C          0.36076       -0.93769        0.64315
H          0.68268       -1.48063       -0.27218
H          0.90596        0.03442        0.68503
H          0.69560       -1.53497        1.51588
N         -1.07643       -0.70051        0.64912
O         -1.71312       -0.77736        1.68284
O         -1.62015       -0.38379       -0.40985
C          0.25666        3.96049       -3.18438
O          1.10139        3.85806       -4.09683
O          0.49996        4.40304       -2.05311
C         -1.14879        3.49010       -3.54303
Cl        -2.33565        4.13556       -2.39154
H         -1.21387        2.38605       -3.49633
H         -1.45996        3.82894       -4.54532
H         -0.54014        0.42817       -1.48340
O          0.06133        0.84516       -2.10780
H          0.46025        1.57240       -1.61555
