23
	Energy:    -309.0297000
C          0.78615       -0.72800        0.06421
H          1.90845       -0.87424        0.11243
N          0.19976       -1.38625        1.28212
O          0.94573       -2.00572        2.02647
O         -0.99858       -1.29890        1.49836
C          6.41874       -2.51612        0.96451
O          5.73762       -1.99401        1.87324
O          5.89607       -3.02358       -0.05138
C          7.91763       -2.56401        1.11232
H          8.41393       -2.81652        0.16866
H          8.18405       -3.32802        1.85494
H          8.34146       -1.61535        1.46296
C          0.44612        0.75537        0.10484
H          0.85044        1.25959        0.99396
H         -0.63630        0.94147        0.09015
H          0.86071        1.27269       -0.77471
C          0.20419       -1.41783       -1.16280
H         -0.88603       -1.29784       -1.23293
H          0.41569       -2.49639       -1.18698
H          0.62056       -0.98908       -2.08746
H          4.30399       -1.65729        0.45323
O          4.08553       -0.73282        0.22917
H          4.82569       -0.27261        0.64781
