 *******************************************************************************
 **                                                                           **
 **                              MOPAC v22.0.6                                **
 **                                                                           **
 *******************************************************************************
 **          Digital Object Identifier (DOI): 10.5281/zenodo.6511958          **
 **    Visit the DOI location for information on how to cite this program.    **
 *******************************************************************************

                              PM7 CALCULATION RESULTS

 *******************************************************************************
 *  CALCULATION DONE:                                Tue Mar 26 12:50:59 2024  *
 *  PM7        - The PM7 Hamiltonian to be used
 *  SINGLET    - SPIN STATE DEFINED AS A SINGLET
 *
 *
 *
 *                 CHARGE ON SYSTEM = 0
 *
 *
 *
 *  EPS=32.66  - USE ANDREAS KLAMT'S COSMO IMPLICIT SOLVATION MODEL
 *  T=         - A TIME OF 14.0 DAYS REQUESTED
 *  DUMP=N     - RESTART FILE WRITTEN EVERY 30.0 MINUTES REQUESTED
 *  RELSCF     - DEFAULT SCF CRITERION MULTIPLIED BY 1.0000
 *              (DEFAULT SCF CRITERION = 0.00010)
 *  ITRY=      - DO A MAXIMUM OF 15000 ITERATIONS FOR SCF
 *  AUX        - OUTPUT AUXILIARY INFORMATION
 *  BONDS      - FINAL BOND-ORDER MATRIX TO BE PRINTED
 *******************************************************************************
PM7 BONDS AUX DUMP=30M ITRY=15000 T=14D CHARGE=0 SINGLET eps=32.66 RELSCF=1
 Title: ASE calculation

   ATOM   CHEMICAL          X               Y               Z
  NUMBER   SYMBOL      (ANGSTROMS)     (ANGSTROMS)     (ANGSTROMS)

     1       C         -2.68378379  *  -2.63280417  *   0.60952196  *
     2       C         -2.06773221  *  -1.44803975  *   1.06389486  *
     3       C         -0.67207499  *  -1.43344115  *   1.37239946  *
     4       C          0.11129375  *  -2.59401786  *   1.26184106  *
     5       C         -0.48858510  *  -3.74135870  *   0.77453889  *
     6       N          0.07203445  *  -4.97475562  *   0.52044748  *
     7       C         -0.95762637  *  -5.77442246  *   0.06034090  *
     8       C         -2.17747621  *  -5.10161696  *   0.00440382  *
     9       C         -1.92299874  *  -3.76530203  *   0.45155068  *
    10       H         -3.11777027  *  -5.48414051  *  -0.30985556  *
    11       H         -0.75486243  *  -6.79879243  *  -0.20613989  *
    12       H          1.14984169  *  -2.59021305  *   1.56094916  *
    13       H         -3.75060070  *  -2.63580393  *   0.38477966  *
    14       N         -0.03868362  *  -0.26784985  *   1.78023156  *
    15       C         -0.74977117  *   0.83458937  *   1.91649612  *
    16       C         -2.15288659  *   0.89534636  *   1.65668111  *
    17       H         -2.67548025  *   1.83740084  *   1.79818845  *
    18       H         -0.21274932  *   1.73729551  *   2.24104533  *
    19       C         -2.79487928  *  -0.23441833  *   1.22953188  *
    20       H         -3.86586255  *  -0.22950659  *   1.00857304  *
    21       H          2.02572971  *  -5.05301918  *   0.14255956  *
    22       C          2.48310947  *  -1.09438020  *  -0.65963078  *
    23       H          1.63629750  *  -1.77165918  *  -0.82180654  *
    24       H          2.28449378  *  -0.11165929  *  -1.10386435  *
    25       H          3.41209838  *  -1.51820319  *  -1.05863017  *
    26       H          1.89593400  *  -0.59432027  *   1.18847843  *
    27       O          2.72526273  *  -0.92863033  *   0.73294862  *
    28       C          2.49829744  *  -6.26536686  *   1.71166481  *
    29       H          3.41507329  *  -6.39018543  *   2.29867098  *
    30       H          1.65379346  *  -5.91713169  *   2.31958995  *
    31       H          2.24628738  *  -7.17735591  *   1.15666691  *
    32       H          3.04204973  *  -4.24452210  *   1.23943280  *
    33       O          2.84491413  *  -5.26631438  *   0.70428234  *
    34       C          4.79938154  *  -3.14847640  *   2.08563586  *
    35       H          5.29272098  *  -3.12389675  *   1.10866884  *
    36       H          5.05386043  *  -2.26386189  *   2.68186944  *
    37       H          5.03638452  *  -4.06991614  *   2.63163046  *
    38       H          3.07559404  *  -2.30301141  *   1.40192801  *
    39       O          3.37534503  *  -3.16371721  *   1.92111502  *



          CARTESIAN COORDINATES 

    NO.       ATOM           X           Y           Z

     1         C         -2.6838     -2.6328      0.6095
     2         C         -2.0677     -1.4480      1.0639
     3         C         -0.6721     -1.4334      1.3724
     4         C          0.1113     -2.5940      1.2618
     5         C         -0.4886     -3.7414      0.7745
     6         N          0.0720     -4.9748      0.5204
     7         C         -0.9576     -5.7744      0.0603
     8         C         -2.1775     -5.1016      0.0044
     9         C         -1.9230     -3.7653      0.4516
    10         H         -3.1178     -5.4841     -0.3099
    11         H         -0.7549     -6.7988     -0.2061
    12         H          1.1498     -2.5902      1.5609
    13         H         -3.7506     -2.6358      0.3848
    14         N         -0.0387     -0.2678      1.7802
    15         C         -0.7498      0.8346      1.9165
    16         C         -2.1529      0.8953      1.6567
    17         H         -2.6755      1.8374      1.7982
    18         H         -0.2127      1.7373      2.2410
    19         C         -2.7949     -0.2344      1.2295
    20         H         -3.8659     -0.2295      1.0086
    21         H          2.0257     -5.0530      0.1426
    22         C          2.4831     -1.0944     -0.6596
    23         H          1.6363     -1.7717     -0.8218
    24         H          2.2845     -0.1117     -1.1039
    25         H          3.4121     -1.5182     -1.0586
    26         H          1.8959     -0.5943      1.1885
    27         O          2.7253     -0.9286      0.7329
    28         C          2.4983     -6.2654      1.7117
    29         H          3.4151     -6.3902      2.2987
    30         H          1.6538     -5.9171      2.3196
    31         H          2.2463     -7.1774      1.1567
    32         H          3.0420     -4.2445      1.2394
    33         O          2.8449     -5.2663      0.7043
    34         C          4.7994     -3.1485      2.0856
    35         H          5.2927     -3.1239      1.1087
    36         H          5.0539     -2.2639      2.6819
    37         H          5.0364     -4.0699      2.6316
    38         H          3.0756     -2.3030      1.4019
    39         O          3.3753     -3.1637      1.9211

 General Reference for PM7:
 "Optimization of Parameters for Semiempirical Methods VI: More Modifications to the 
 NDDO Approximations and Re-optimization of Parameters", J. J. P. Stewart, J. Mol. Mod., 1:32, 19 (2013)
 https://link.springer.com/article/10.1007/s00894-012-1667-x

           Empirical Formula: C14 H20 N2 O3  =    39 atoms



      MOLECULAR POINT GROUP   :   C1  


 SINGLET STATE CALCULATION


      RHF CALCULATION, NO. OF DOUBLY OCCUPIED LEVELS = 52


          Geometry optimization using L-BFGS
  SCF CRITERION =    0.1000E-03
 CYCLE:     1 TIME:   5.664 TIME LEFT:  2.00W  GRAD.:    25.465 HEAT: -87.79868
 CYCLE:     2 TIME:   1.805 TIME LEFT:  2.00W  GRAD.:    25.276 HEAT: -87.80519
 CYCLE:     3 TIME:   0.918 TIME LEFT:  2.00W  GRAD.:    21.165 HEAT: -88.44527
 CYCLE:     4 TIME:   0.859 TIME LEFT:  2.00W  GRAD.:    25.348 HEAT: -87.80437
 CYCLE:     5 TIME:   2.074 TIME LEFT:  2.00W  GRAD.:    22.408 HEAT: -88.43255
 CYCLE:     6 TIME:   1.207 TIME LEFT:  2.00W  GRAD.:    26.803 HEAT: -88.63577
 CYCLE:     7 TIME:   0.945 TIME LEFT:  2.00W  GRAD.:    25.406 HEAT: -88.92351
 CYCLE:     8 TIME:   0.164 TIME LEFT:  2.00W  GRAD.:    32.267 HEAT: -90.89476
 CYCLE:     9 TIME:   0.102 TIME LEFT:  2.00W  GRAD.:   140.277 HEAT: -86.93589
 CYCLE:    10 TIME:   0.164 TIME LEFT:  2.00W  GRAD.:   297.758 HEAT: -39.36326
 CYCLE:    11 TIME:   2.602 TIME LEFT:  2.00W  GRAD.:   256.263 HEAT: -57.07785
 CYCLE:    12 TIME:   2.984 TIME LEFT:  2.00W  GRAD.:   895.110 HEAT:  11.86688
 CYCLE:    13 TIME:   2.371 TIME LEFT:  2.00W  GRAD.:   171.107 HEAT: -77.68140
 CYCLE:    14 TIME:   0.262 TIME LEFT:  2.00W  GRAD.:   133.305 HEAT: -88.18197
 CYCLE:    15 TIME:   0.094 TIME LEFT:  2.00W  GRAD.:   107.582 HEAT: -104.7481
 CYCLE:    16 TIME:   0.105 TIME LEFT:  2.00W  GRAD.:    80.931 HEAT: -109.7830
 CYCLE:    17 TIME:   0.094 TIME LEFT:  2.00W  GRAD.:   100.536 HEAT: -108.6870
 CYCLE:    18 TIME:   0.082 TIME LEFT:  2.00W  GRAD.:   157.182 HEAT: -109.0858
 CYCLE:    19 TIME:   0.086 TIME LEFT:  2.00W  GRAD.:    58.086 HEAT: -114.2970
 CYCLE:    20 TIME:   0.074 TIME LEFT:  2.00W  GRAD.:    24.408 HEAT: -115.5667
 CYCLE:    21 TIME:   0.078 TIME LEFT:  2.00W  GRAD.:    24.092 HEAT: -116.1729
 CYCLE:    22 TIME:   0.078 TIME LEFT:  2.00W  GRAD.:    39.487 HEAT: -116.8573
 CYCLE:    23 TIME:   0.074 TIME LEFT:  2.00W  GRAD.:    36.640 HEAT: -117.0732
 CYCLE:    24 TIME:   0.070 TIME LEFT:  2.00W  GRAD.:    13.460 HEAT: -117.2950
 CYCLE:    25 TIME:   0.078 TIME LEFT:  2.00W  GRAD.:    11.721 HEAT: -117.4041
 CYCLE:    26 TIME:   0.082 TIME LEFT:  2.00W  GRAD.:    18.191 HEAT: -117.6210
 CYCLE:    27 TIME:   0.070 TIME LEFT:  2.00W  GRAD.:    22.256 HEAT: -117.9007
 CYCLE:    28 TIME:   0.098 TIME LEFT:  2.00W  GRAD.:    44.866 HEAT: -117.8503
 CYCLE:    29 TIME:   0.078 TIME LEFT:  2.00W  GRAD.:    12.796 HEAT: -118.3110
 CYCLE:    30 TIME:   0.070 TIME LEFT:  2.00W  GRAD.:     8.681 HEAT: -118.4081
 CYCLE:    31 TIME:   0.070 TIME LEFT:  2.00W  GRAD.:    12.679 HEAT: -118.5526
 CYCLE:    32 TIME:   0.105 TIME LEFT:  2.00W  GRAD.:    13.367 HEAT: -118.7156
 CYCLE:    33 TIME:   0.078 TIME LEFT:  2.00W  GRAD.:    13.393 HEAT: -118.8877
 CYCLE:    34 TIME:   0.094 TIME LEFT:  2.00W  GRAD.:    13.196 HEAT: -119.0171
 CYCLE:    35 TIME:   0.070 TIME LEFT:  2.00W  GRAD.:    13.530 HEAT: -119.2179
 CYCLE:    36 TIME:   0.070 TIME LEFT:  2.00W  GRAD.:    18.809 HEAT: -119.4259
 CYCLE:    37 TIME:   0.070 TIME LEFT:  2.00W  GRAD.:    14.373 HEAT: -119.7081
 CYCLE:    38 TIME:   0.117 TIME LEFT:  2.00W  GRAD.:    10.113 HEAT: -119.8183
 CYCLE:    39 TIME:   0.086 TIME LEFT:  2.00W  GRAD.:    10.176 HEAT: -119.8955
 CYCLE:    40 TIME:   0.086 TIME LEFT:  2.00W  GRAD.:    12.095 HEAT: -119.9611
 CYCLE:    41 TIME:   0.074 TIME LEFT:  2.00W  GRAD.:     7.894 HEAT: -120.0174
 CYCLE:    42 TIME:   0.066 TIME LEFT:  2.00W  GRAD.:     6.712 HEAT: -119.9703
 CYCLE:    43 TIME:   0.074 TIME LEFT:  2.00W  GRAD.:    10.043 HEAT: -120.0002
 CYCLE:    44 TIME:   0.090 TIME LEFT:  2.00W  GRAD.:     7.571 HEAT: -120.1041
 CYCLE:    45 TIME:   0.098 TIME LEFT:  2.00W  GRAD.:     6.467 HEAT: -120.1451
 CYCLE:    46 TIME:   0.074 TIME LEFT:  2.00W  GRAD.:     9.275 HEAT: -120.2051
 CYCLE:    47 TIME:   0.078 TIME LEFT:  2.00W  GRAD.:     6.439 HEAT: -120.1790
 CYCLE:    48 TIME:   0.109 TIME LEFT:  2.00W  GRAD.:     6.898 HEAT: -120.2219
 CYCLE:    49 TIME:   0.344 TIME LEFT:  2.00W  GRAD.:     6.290 HEAT: -120.2767
 CYCLE:    50 TIME:   0.746 TIME LEFT:  2.00W  GRAD.:     5.208 HEAT: -120.3007
 CYCLE:    51 TIME:   1.586 TIME LEFT:  2.00W  GRAD.:     7.975 HEAT: -120.3487
 CYCLE:    52 TIME:   2.379 TIME LEFT:  2.00W  GRAD.:     5.210 HEAT: -120.3729
 CYCLE:    53 TIME:   2.492 TIME LEFT:  2.00W  GRAD.:     4.396 HEAT: -120.4016
 CYCLE:    54 TIME:   0.902 TIME LEFT:  2.00W  GRAD.:     6.089 HEAT: -120.4436
 CYCLE:    55 TIME:   0.578 TIME LEFT:  2.00W  GRAD.:     5.558 HEAT: -120.4707
 CYCLE:    56 TIME:   0.066 TIME LEFT:  2.00W  GRAD.:     3.676 HEAT: -120.4785
 CYCLE:    57 TIME:   0.074 TIME LEFT:  2.00W  GRAD.:     3.005 HEAT: -120.4894
 CYCLE:    58 TIME:   0.059 TIME LEFT:  2.00W  GRAD.:     5.359 HEAT: -120.5004
 CYCLE:    59 TIME:   0.066 TIME LEFT:  2.00W  GRAD.:     3.936 HEAT: -120.5090
 CYCLE:    60 TIME:   0.070 TIME LEFT:  2.00W  GRAD.:     3.981 HEAT: -120.5260
 CYCLE:    61 TIME:   0.062 TIME LEFT:  2.00W  GRAD.:     4.110 HEAT: -120.5485
 CYCLE:    62 TIME:   0.066 TIME LEFT:  2.00W  GRAD.:     4.251 HEAT: -120.5531
 CYCLE:    63 TIME:   0.082 TIME LEFT:  2.00W  GRAD.:     5.274 HEAT: -120.5550
 CYCLE:    64 TIME:   0.074 TIME LEFT:  2.00W  GRAD.:     5.638 HEAT: -120.6151
 CYCLE:    65 TIME:   0.566 TIME LEFT:  2.00W  GRAD.:     3.730 HEAT: -120.6283
 CYCLE:    66 TIME:   0.926 TIME LEFT:  2.00W  GRAD.:     3.347 HEAT: -120.6889
 CYCLE:    67 TIME:   1.508 TIME LEFT:  2.00W  GRAD.:     4.466 HEAT: -120.6885
 CYCLE:    68 TIME:   1.688 TIME LEFT:  2.00W  GRAD.:     3.075 HEAT: -120.7244
 CYCLE:    69 TIME:   2.258 TIME LEFT:  2.00W  GRAD.:     3.237 HEAT: -120.7192
 CYCLE:    70 TIME:   1.148 TIME LEFT:  2.00W  GRAD.:     2.202 HEAT: -120.7100
 CYCLE:    71 TIME:   0.570 TIME LEFT:  2.00W  GRAD.:     1.897 HEAT: -120.7172
 CYCLE:    72 TIME:   0.418 TIME LEFT:  2.00W  GRAD.:     2.406 HEAT: -120.7588
 CYCLE:    73 TIME:   0.668 TIME LEFT:  2.00W  GRAD.:     2.485 HEAT: -120.6630
 CYCLE:    74 TIME:   0.781 TIME LEFT:  2.00W  GRAD.:     2.504 HEAT: -120.6575
 CYCLE:    75 TIME:   0.168 TIME LEFT:  2.00W  GRAD.:     4.930 HEAT: -120.6677
 CYCLE:    76 TIME:   0.148 TIME LEFT:  2.00W  GRAD.:     2.865 HEAT: -120.6901
 CYCLE:    77 TIME:   0.133 TIME LEFT:  2.00W  GRAD.:     2.328 HEAT: -120.7078
 CYCLE:    78 TIME:   0.145 TIME LEFT:  2.00W  GRAD.:     2.636 HEAT: -120.7426
 CYCLE:    79 TIME:   0.137 TIME LEFT:  2.00W  GRAD.:     3.215 HEAT: -120.7529
 CYCLE:    80 TIME:   0.141 TIME LEFT:  2.00W  GRAD.:     2.176 HEAT: -120.7502
 CYCLE:    81 TIME:   0.133 TIME LEFT:  2.00W  GRAD.:     2.135 HEAT: -120.7447
 CYCLE:    82 TIME:   0.176 TIME LEFT:  2.00W  GRAD.:     3.503 HEAT: -120.6981
 CYCLE:    83 TIME:   0.145 TIME LEFT:  2.00W  GRAD.:     2.372 HEAT: -120.6967
 CYCLE:    84 TIME:   0.152 TIME LEFT:  2.00W  GRAD.:     2.002 HEAT: -120.6963
 CYCLE:    85 TIME:   0.156 TIME LEFT:  2.00W  GRAD.:     2.777 HEAT: -120.7100
 CYCLE:    86 TIME:   0.152 TIME LEFT:  2.00W  GRAD.:     2.584 HEAT: -120.7059
 CYCLE:    87 TIME:   0.125 TIME LEFT:  2.00W  GRAD.:     1.926 HEAT: -120.7117
 CYCLE:    88 TIME:   0.078 TIME LEFT:  2.00W  GRAD.:     2.594 HEAT: -120.7236
 CYCLE:    89 TIME:   0.102 TIME LEFT:  2.00W  GRAD.:     2.773 HEAT: -120.7287
 CYCLE:    90 TIME:   0.172 TIME LEFT:  2.00W  GRAD.:     2.718 HEAT: -120.7422
 CYCLE:    91 TIME:   0.070 TIME LEFT:  2.00W  GRAD.:     5.971 HEAT: -120.7485
 CYCLE:    92 TIME:   0.105 TIME LEFT:  2.00W  GRAD.:     2.308 HEAT: -120.7382
 CYCLE:    93 TIME:   0.094 TIME LEFT:  2.00W  GRAD.:     2.126 HEAT: -120.7504
 CYCLE:    94 TIME:   0.652 TIME LEFT:  2.00W  GRAD.:     2.344 HEAT: -120.7564
 CYCLE:    95 TIME:   1.180 TIME LEFT:  2.00W  GRAD.:     4.061 HEAT: -120.7405
 CYCLE:    96 TIME:   0.859 TIME LEFT:  2.00W  GRAD.:     1.990 HEAT: -120.7611
 CYCLE:    97 TIME:   1.289 TIME LEFT:  2.00W  GRAD.:     1.675 HEAT: -120.7623
 CYCLE:    98 TIME:   1.074 TIME LEFT:  2.00W  GRAD.:     1.781 HEAT: -120.7688
 CYCLE:    99 TIME:   2.152 TIME LEFT:  2.00W  GRAD.:     3.771 HEAT: -120.7733
 CYCLE:   100 TIME:   0.504 TIME LEFT:  2.00W  GRAD.:     1.823 HEAT: -120.7816
 CYCLE:   101 TIME:   0.512 TIME LEFT:  2.00W  GRAD.:     1.561 HEAT: -120.7716
 CYCLE:   102 TIME:   0.617 TIME LEFT:  2.00W  GRAD.:     1.353 HEAT: -120.7626
 CYCLE:   103 TIME:   0.605 TIME LEFT:  2.00W  GRAD.:     2.068 HEAT: -120.7715
 CYCLE:   104 TIME:   0.773 TIME LEFT:  2.00W  GRAD.:     1.247 HEAT: -120.7766
 CYCLE:   105 TIME:   0.629 TIME LEFT:  2.00W  GRAD.:     0.903 HEAT: -120.7723


          CURRENT BEST VALUE OF HEAT OF FORMATION =   -120.781576

 PM7 BONDS AUX DUMP=30M ITRY=15000 T=14D CHARGE=0 SINGLET eps=32.66 RELSCF=1
 Title: ASE calculation

  C    -2.71761849 +1  -2.62139530 +1   0.52976168 +1
  C    -2.09142076 +1  -1.45803862 +1   1.01922579 +1
  C    -0.69430933 +1  -1.45680186 +1   1.32059025 +1
  C     0.08619784 +1  -2.61743595 +1   1.16269359 +1
  C    -0.54831464 +1  -3.74100920 +1   0.67276630 +1
  N    -0.03514811 +1  -5.00600574 +1   0.40694692 +1
  C    -1.07203981 +1  -5.80695462 +1  -0.08503286 +1
  C    -2.24962359 +1  -5.08948119 +1  -0.12801683 +1
  C    -1.96505409 +1  -3.75828587 +1   0.34693807 +1
  H    -3.21120600 +1  -5.43062678 +1  -0.44827125 +1
  H    -0.88064160 +1  -6.83354896 +1  -0.35924338 +1
  H     1.14159878 +1  -2.61847978 +1   1.42189312 +1
  H    -3.78536109 +1  -2.61053165 +1   0.30199612 +1
  N    -0.05773944 +1  -0.30814888 +1   1.76724172 +1
  C    -0.76283830 +1   0.79098295 +1   1.94329794 +1
  C    -2.16992598 +1   0.86467010 +1   1.69174542 +1
  H    -2.68933309 +1   1.80403663 +1   1.86952180 +1
  H    -0.22225749 +1   1.68136447 +1   2.29932623 +1
  C    -2.81676874 +1  -0.24621842 +1   1.23147254 +1
  H    -3.88986146 +1  -0.23495532 +1   1.02005865 +1
  H     0.94071851 +1  -5.26388392 +1   0.50058283 +1
  C     2.62058152 +1  -0.96362861 +1  -0.66244450 +1
  H     1.83019916 +1  -1.69563295 +1  -0.86158402 +1
  H     2.39281038 +1  -0.00828927 +1  -1.14835372 +1
  H     3.59512380 +1  -1.34488989 +1  -0.99099934 +1
  H     1.89673142 +1  -0.49370467 +1   1.13715894 +1
  O     2.76722946 +1  -0.75705743 +1   0.73411718 +1
  C     2.88860663 +1  -6.35943909 +1   1.81717926 +1
  H     3.92742225 +1  -6.42328118 +1   2.15794273 +1
  H     2.21987510 +1  -6.14243586 +1   2.65762324 +1
  H     2.59042292 +1  -7.28765318 +1   1.31657250 +1
  H     3.04072906 +1  -4.46932062 +1   1.19516071 +1
  O     2.76455768 +1  -5.35620543 +1   0.82707660 +1
  C     4.93141805 +1  -3.06179858 +1   2.06464040 +1
  H     5.40084413 +1  -3.06815971 +1   1.07534351 +1
  H     5.26645519 +1  -2.19556514 +1   2.64607908 +1
  H     5.14415724 +1  -3.99291984 +1   2.60349133 +1
  H     3.23017488 +1  -2.20169124 +1   1.46081982 +1
  O     3.52185216 +1  -3.03322996 +1   1.93391304 +1



 -------------------------------------------------------------------------------
 PM7 BONDS AUX DUMP=30M ITRY=15000 T=14D CHARGE=0 SINGLET eps=32.66 RELSCF=1
 Title: ASE calculation



     HERBERTS TEST WAS SATISFIED IN BFGS                      
     SCF FIELD WAS ACHIEVED                                   


                              PM7 CALCULATION
                                                       MOPAC v22.0.6 Linux
                                                       Tue Mar 26 12:51:59 2024




          FINAL HEAT OF FORMATION =       -120.78158 KCAL/MOL =    -505.35011 KJ/MOL
          VAN DER WAALS AREA      =        305.58 SQUARE ANGSTROMS



          DIELECTRIC ENERGY       =         -0.57787 EV
          COSMO AREA              =        305.58 SQUARE ANGSTROMS
          COSMO VOLUME            =        348.58 CUBIC ANGSTROMS

          GRADIENT NORM           =          1.82309          =       0.29193 PER ATOM
          IONIZATION POTENTIAL    =          8.566868 EV
          HOMO LUMO ENERGIES (EV) =         -8.567 -1.186
          NO. OF FILLED LEVELS    =         52
          MOLECULAR WEIGHT        =        264.3236         POINT GROUP:  C1  

          MOLECULAR DIMENSIONS (Angstroms)

            Atom       Atom       Distance
            H    29    H    17    10.56188
            H    36    H    10     9.14563
            H    24    H    30     4.78377


          SCF CALCULATIONS        =        107

          WALL-CLOCK TIME         =     59.691 SECONDS
          COMPUTATION TIME        =         42 MINUTES AND 32.972 SECONDS




   ATOM   CHEMICAL          X               Y               Z
  NUMBER   SYMBOL      (ANGSTROMS)     (ANGSTROMS)     (ANGSTROMS)

     1       C         -2.71761849  *  -2.62139530  *   0.52976168  *
     2       C         -2.09142076  *  -1.45803862  *   1.01922579  *
     3       C         -0.69430933  *  -1.45680186  *   1.32059025  *
     4       C          0.08619784  *  -2.61743595  *   1.16269359  *
     5       C         -0.54831464  *  -3.74100920  *   0.67276630  *
     6       N         -0.03514811  *  -5.00600574  *   0.40694692  *
     7       C         -1.07203981  *  -5.80695462  *  -0.08503286  *
     8       C         -2.24962359  *  -5.08948119  *  -0.12801683  *
     9       C         -1.96505409  *  -3.75828587  *   0.34693807  *
    10       H         -3.21120600  *  -5.43062678  *  -0.44827125  *
    11       H         -0.88064160  *  -6.83354896  *  -0.35924338  *
    12       H          1.14159878  *  -2.61847978  *   1.42189312  *
    13       H         -3.78536109  *  -2.61053165  *   0.30199612  *
    14       N         -0.05773944  *  -0.30814888  *   1.76724172  *
    15       C         -0.76283830  *   0.79098295  *   1.94329794  *
    16       C         -2.16992598  *   0.86467010  *   1.69174542  *
    17       H         -2.68933309  *   1.80403663  *   1.86952180  *
    18       H         -0.22225749  *   1.68136447  *   2.29932623  *
    19       C         -2.81676874  *  -0.24621842  *   1.23147254  *
    20       H         -3.88986146  *  -0.23495532  *   1.02005865  *
    21       H          0.94071851  *  -5.26388392  *   0.50058283  *
    22       C          2.62058152  *  -0.96362861  *  -0.66244450  *
    23       H          1.83019916  *  -1.69563295  *  -0.86158402  *
    24       H          2.39281038  *  -0.00828927  *  -1.14835372  *
    25       H          3.59512380  *  -1.34488989  *  -0.99099934  *
    26       H          1.89673142  *  -0.49370467  *   1.13715894  *
    27       O          2.76722946  *  -0.75705743  *   0.73411718  *
    28       C          2.88860663  *  -6.35943909  *   1.81717926  *
    29       H          3.92742225  *  -6.42328118  *   2.15794273  *
    30       H          2.21987510  *  -6.14243586  *   2.65762324  *
    31       H          2.59042292  *  -7.28765318  *   1.31657250  *
    32       H          3.04072906  *  -4.46932062  *   1.19516071  *
    33       O          2.76455768  *  -5.35620543  *   0.82707660  *
    34       C          4.93141805  *  -3.06179858  *   2.06464040  *
    35       H          5.40084413  *  -3.06815971  *   1.07534351  *
    36       H          5.26645519  *  -2.19556514  *   2.64607908  *
    37       H          5.14415724  *  -3.99291984  *   2.60349133  *
    38       H          3.23017488  *  -2.20169124  *   1.46081982  *
    39       O          3.52185216  *  -3.03322996  *   1.93391304  *

                             CARTESIAN COORDINATES

   1    C       -2.717618489    -2.621395302     0.529761684
   2    C       -2.091420763    -1.458038616     1.019225787
   3    C       -0.694309329    -1.456801855     1.320590250
   4    C        0.086197842    -2.617435955     1.162693589
   5    C       -0.548314643    -3.741009198     0.672766305
   6    N       -0.035148113    -5.006005741     0.406946920
   7    C       -1.072039813    -5.806954618    -0.085032855
   8    C       -2.249623591    -5.089481190    -0.128016833
   9    C       -1.965054088    -3.758285874     0.346938069
  10    H       -3.211205997    -5.430626780    -0.448271252
  11    H       -0.880641599    -6.833548956    -0.359243378
  12    H        1.141598777    -2.618479781     1.421893124
  13    H       -3.785361090    -2.610531650     0.301996119
  14    N       -0.057739438    -0.308148882     1.767241719
  15    C       -0.762838304     0.790982951     1.943297940
  16    C       -2.169925979     0.864670098     1.691745417
  17    H       -2.689333087     1.804036626     1.869521801
  18    H       -0.222257488     1.681364468     2.299326233
  19    C       -2.816768736    -0.246218419     1.231472537
  20    H       -3.889861464    -0.234955322     1.020058654
  21    H        0.940718505    -5.263883925     0.500582830
  22    C        2.620581525    -0.963628614    -0.662444498
  23    H        1.830199157    -1.695632948    -0.861584019
  24    H        2.392810384    -0.008289269    -1.148353718
  25    H        3.595123798    -1.344889893    -0.990999340
  26    H        1.896731423    -0.493704666     1.137158935
  27    O        2.767229465    -0.757057433     0.734117182
  28    C        2.888606631    -6.359439086     1.817179259
  29    H        3.927422254    -6.423281183     2.157942726
  30    H        2.219875102    -6.142435859     2.657623239
  31    H        2.590422918    -7.287653182     1.316572500
  32    H        3.040729059    -4.469320616     1.195160710
  33    O        2.764557685    -5.356205426     0.827076597
  34    C        4.931418052    -3.061798576     2.064640397
  35    H        5.400844129    -3.068159714     1.075343507
  36    H        5.266455192    -2.195565140     2.646079084
  37    H        5.144157243    -3.992919843     2.603491330
  38    H        3.230174882    -2.201691238     1.460819820
  39    O        3.521852155    -3.033229960     1.933913036


           Empirical Formula: C14 H20 N2 O3  =    39 atoms



      MOLECULAR POINT GROUP   :   C1  


                  EIGENVALUES  
 -37.67168 -36.09065 -30.40283 -29.74367 -29.22858 -28.72267 -28.40509 -27.73560
 -25.61935 -25.17594 -24.02449 -23.94820 -23.81233 -22.67360 -21.78962 -21.41824
 -20.17912 -18.67023 -18.00526 -17.90775 -17.55056 -17.39952 -17.16755 -16.17490
 -15.47965 -15.45941 -15.21500 -15.12100 -15.07513 -14.96313 -14.86322 -14.82182
 -14.77365 -14.70123 -14.37357 -14.27733 -13.93931 -13.69222 -12.71746 -12.68235
 -12.49473 -12.42876 -12.21327 -12.09927 -11.52318 -11.04112 -10.98735 -10.96733
 -10.63159 -10.58919  -9.31462  -8.56687  -1.18589  -0.39585   0.27437   1.16022
   1.50881   2.01277   2.29340   2.51033   2.78707   3.13754   3.21458   3.53023
   3.62096   3.95117   4.05645   4.18072   4.36405   4.78693   4.81274   4.91684
   4.99855   5.12030   5.31509   5.45523   5.51335   5.55334   5.57101   5.63362
   5.64830   5.66208   5.68000   5.73953   5.79680   5.86005   5.90961   6.05621
   6.07319   6.16862   6.23937   6.31430   6.33300   6.38338   6.64020   6.83476


              NET ATOMIC CHARGES AND DIPOLE CONTRIBUTIONS

  ATOM NO.   TYPE          CHARGE      No. of ELECS.   s-Pop       p-Pop       
    1          C          -0.106857        4.1069     1.08628     3.02057
    2          C          -0.141331        4.1413     1.06070     3.08063
    3          C           0.181598        3.8184     1.06024     2.75816
    4          C          -0.292500        4.2925     1.06993     3.22257
    5          C           0.148314        3.8517     1.06160     2.79008
    6          N          -0.401598        5.4016     1.52767     3.87393
    7          C           0.042041        3.9580     1.09776     2.86020
    8          C          -0.307386        4.3074     1.07461     3.23278
    9          C          -0.067721        4.0677     1.06119     3.00653
   10          H           0.177107        0.8229     0.82289
   11          H           0.182945        0.8171     0.81706
   12          H           0.184935        0.8151     0.81507
   13          H           0.178752        0.8212     0.82125
   14          N          -0.475677        5.4757     1.73890     3.73678
   15          C           0.116186        3.8838     1.10474     2.77907
   16          C          -0.275190        4.2752     1.08834     3.18685
   17          H           0.181031        0.8190     0.81897
   18          H           0.185751        0.8142     0.81425
   19          C          -0.048336        4.0483     1.09673     2.95160
   20          H           0.175307        0.8247     0.82469
   21          H           0.360434        0.6396     0.63957
   22          C          -0.141175        4.1412     1.08264     3.05854
   23          H           0.130239        0.8698     0.86976
   24          H           0.136998        0.8630     0.86300
   25          H           0.147673        0.8523     0.85233
   26          H           0.371086        0.6289     0.62891
   27          O          -0.625269        6.6253     1.84406     4.78121
   28          C          -0.139924        4.1399     1.07976     3.06016
   29          H           0.128667        0.8713     0.87133
   30          H           0.132424        0.8676     0.86758
   31          H           0.141741        0.8583     0.85826
   32          H           0.376760        0.6232     0.62324
   33          O          -0.654197        6.6542     1.84710     4.80709
   34          C          -0.137371        4.1374     1.08058     3.05679
   35          H           0.128413        0.8716     0.87159
   36          H           0.131882        0.8681     0.86812
   37          H           0.141753        0.8582     0.85825
   38          H           0.374919        0.6251     0.62508
   39          O          -0.642426        6.6424     1.84362     4.79881
 DIPOLE           X         Y         Z       TOTAL
 POINT-CHG.    -0.282    -0.458    -0.990     1.127
 HYBRID        -0.403     0.523     0.075     0.664
 SUM           -0.685     0.065    -0.915     1.145


          ATOMIC ORBITAL ELECTRON POPULATIONS

     Atom    s        px        py        pz   
    1  C   1.08628   1.08815   0.96659   0.96584
    2  C   1.06070   0.99534   0.99973   1.08556
    3  C   1.06024   0.92577   0.89940   0.93298
    4  C   1.06993   1.10436   0.98379   1.13442
    5  C   1.06160   0.95899   0.85663   0.97446
    6  N   1.52767   1.19309   1.14994   1.53090
    7  C   1.09776   0.88546   1.01016   0.96458
    8  C   1.07461   1.06980   0.99732   1.16565
    9  C   1.06119   0.96876   0.98549   1.05228
   10  H   0.82289
   11  H   0.81706
   12  H   0.81507
   13  H   0.82125
   14  N   1.73890   1.42892   1.08460   1.22327
   15  C   1.10474   0.95222   0.95859   0.86827
   16  C   1.08834   1.02406   1.08608   1.07671
   17  H   0.81897
   18  H   0.81425
   19  C   1.09673   1.08306   0.96298   0.90556
   20  H   0.82469
   21  H   0.63957
   22  C   1.08264   1.15315   1.14012   0.76527
   23  H   0.86976
   24  H   0.86300
   25  H   0.85233
   26  H   0.62891
   27  O   1.84406   1.52353   1.91963   1.33805
   28  C   1.07976   1.14314   0.94180   0.97522
   29  H   0.87133
   30  H   0.86758
   31  H   0.85826
   32  H   0.62324
   33  O   1.84710   1.92111   1.38196   1.50403
   34  C   1.08058   0.76734   1.14986   1.13959
   35  H   0.87159
   36  H   0.86812
   37  H   0.85825
   38  H   0.62508
   39  O   1.84362   1.33166   1.60662   1.86054

          BONDING CONTRIBUTION OF EACH M.O.

  1.4486  1.3430  1.8665  1.2005  1.2049  1.1933  1.8105  1.8700  1.8916  1.9088
  1.6699  1.6493  1.6291  1.8819  1.9416  1.8970  1.9226  1.9802  1.9433  1.5271
  1.6447  1.7558  1.8225  1.9874  1.7957  1.8205  1.6485  1.4936  1.5915  1.6145
  1.5406  1.6110  1.6517  1.9325  1.7594  1.8959  1.8094  2.0037  1.9768  1.6772
  1.5923  1.8741  1.4127  1.7772  1.8960  0.6744  0.6322  0.6483  1.3304  1.7174
  1.9172  1.6419 -2.0197 -2.0572 -2.0584 -2.2254 -2.0596 -1.8852 -1.8433 -2.0462
 -1.8564 -1.9175 -1.8417 -1.9724 -1.9289 -2.0137 -2.0316 -1.9621 -1.9431 -1.9321
 -2.0007 -1.9490 -1.9854 -1.9986 -1.9087 -1.9277 -1.9232 -1.9332 -1.9625 -1.9380
 -1.9843 -1.9793 -1.9813 -1.9590 -1.9450 -1.9557 -1.9256 -1.8857 -1.9164 -1.9275
 -1.9349 -1.9354 -1.9386 -1.9164 -1.8260 -1.7944





            (VALENCIES)   BOND ORDERS

     1  C     (3.966)     9  C 1.477     2  C 1.320    13  H 0.953     4  C 0.110     7  C 0.042    16  C 0.029
                          5  C 0.010

     2  C     (3.986)     1  C 1.320     3  C 1.279    19  C 1.200    15  C 0.060     5  C 0.056     8  C 0.018
                         14  N 0.013     6  N 0.012

     3  C     (3.965)     4  C 1.332     2  C 1.279    14  N 1.165    16  C 0.058     9  C 0.057     6  N 0.016
                         18  H 0.014     7  C 0.012

     4  C     (3.945)     5  C 1.412     3  C 1.332    12  H 0.945     1  C 0.110     6  N 0.040    15  C 0.037
                          7  C 0.018     8  C 0.012

     5  C     (3.951)     4  C 1.412     9  C 1.188     6  N 1.156     2  C 0.056     7  C 0.038     8  C 0.023
                         14  N 0.014    21  H 0.013    16  C 0.013     1  C 0.010

     6  N     (3.321)     5  C 1.156     7  C 1.149    21  H 0.799     8  C 0.079     4  C 0.040     9  C 0.038
                          3  C 0.016     2  C 0.012

     7  C     (3.909)     8  C 1.665     6  N 1.149    11  H 0.950     1  C 0.042     5  C 0.038     4  C 0.018
                         21  H 0.015     3  C 0.012

     8  C     (3.935)     7  C 1.665     9  C 1.161    10  H 0.956     6  N 0.079     5  C 0.023     2  C 0.018
                          4  C 0.012

     9  C     (3.990)     1  C 1.477     5  C 1.188     8  C 1.161     3  C 0.057     6  N 0.038    19  C 0.018
                         15  C 0.015

    10  H     (0.969)     8  C 0.956

    11  H     (0.967)     7  C 0.950

    12  H     (0.966)     4  C 0.945

    13  H     (0.968)     1  C 0.953

    14  N     (2.965)    15  C 1.617     3  C 1.165    19  C 0.084    16  C 0.019    26  H 0.018     5  C 0.014
                          2  C 0.013

    15  C     (3.912)    14  N 1.617    16  C 1.206    18  H 0.943     2  C 0.060     4  C 0.037     9  C 0.015

    16  C     (3.961)    19  C 1.667    15  C 1.206    17  H 0.955     3  C 0.058     1  C 0.029    14  N 0.019
                          5  C 0.013

    17  H     (0.967)    16  C 0.955

    18  H     (0.965)    15  C 0.943     3  C 0.014

    19  C     (3.956)    16  C 1.667     2  C 1.200    20  H 0.955    14  N 0.084     9  C 0.018

    20  H     (0.969)    19  C 0.955

    21  H     (0.870)     6  N 0.799    33  O 0.024     7  C 0.015     5  C 0.013

    22  C     (3.856)    23  H 0.974    24  H 0.973    25  H 0.969    27  O 0.933

    23  H     (0.983)    22  C 0.974

    24  H     (0.981)    22  C 0.973

    25  H     (0.978)    22  C 0.969

    26  H     (0.862)    27  O 0.829    14  N 0.018

    27  O     (1.862)    22  C 0.933    26  H 0.829    38  H 0.049    39  O 0.021

    28  C     (3.864)    29  H 0.975    30  H 0.973    31  H 0.971    33  O 0.940

    29  H     (0.983)    28  C 0.975

    30  H     (0.982)    28  C 0.973

    31  H     (0.980)    28  C 0.971

    32  H     (0.858)    33  O 0.798    39  O 0.047

    33  O     (1.818)    28  C 0.940    32  H 0.798    21  H 0.024    39  O 0.019

    34  C     (3.864)    35  H 0.974    36  H 0.974    37  H 0.971    39  O 0.937

    35  H     (0.984)    34  C 0.974

    36  H     (0.983)    34  C 0.974

    37  H     (0.980)    34  C 0.971

    38  H     (0.859)    39  O 0.794    27  O 0.049

    39  O     (1.844)    34  C 0.937    38  H 0.794    32  H 0.047    27  O 0.021    33  O 0.019


 **********************
 *                    *
 * JOB ENDED NORMALLY *
 *                    *
 **********************



 TOTAL JOB TIME:            59.71 SECONDS

 == MOPAC DONE ==
