 *******************************************************************************
 **                                                                           **
 **                              MOPAC v22.0.6                                **
 **                                                                           **
 *******************************************************************************
 **          Digital Object Identifier (DOI): 10.5281/zenodo.6511958          **
 **    Visit the DOI location for information on how to cite this program.    **
 *******************************************************************************

                              PM7 CALCULATION RESULTS

 *******************************************************************************
 *  CALCULATION DONE:                                Tue Mar 26 12:05:28 2024  *
 *  PM7        - The PM7 Hamiltonian to be used
 *  SINGLET    - SPIN STATE DEFINED AS A SINGLET
 *
 *
 *
 *                 CHARGE ON SYSTEM = -1
 *
 *
 *
 *  EPS=78.4   - USE ANDREAS KLAMT'S COSMO IMPLICIT SOLVATION MODEL
 *  LET        - OVERRIDE SOME SAFETY CHECKS
 *  THREADS    - USE A MAXIMUM OF 30 THREADS
 *  T=         - A TIME OF 14.0 DAYS REQUESTED
 *  DUMP=N     - RESTART FILE WRITTEN EVERY 30.0 MINUTES REQUESTED
 *  RELSCF     - DEFAULT SCF CRITERION MULTIPLIED BY 1.0000
 *              (DEFAULT SCF CRITERION = 0.00010)
 *  ITRY=      - DO A MAXIMUM OF 15000 ITERATIONS FOR SCF
 *  AUX        - OUTPUT AUXILIARY INFORMATION
 *  ISOTOPE    - SAVE THE FORCE MATRIX FOR USE LATER
 *  BONDS      - FINAL BOND-ORDER MATRIX TO BE PRINTED
 *  LARGE      - EXPANDED OUTPUT TO BE PRINTED
 *  THERMO     - THERMODYNAMIC QUANTITIES TO BE CALCULATED
 *******************************************************************************
PM7 AUX LARGE THERMO(298,298) LET ISOTOPE BONDS DUMP=30M ITRY=15000 T=14D THREADS=30 CHARGE=-1 SINGLET eps=78.4 RELSCF=1
 Title: ASE calculation

   ATOM   CHEMICAL          X               Y               Z
  NUMBER   SYMBOL      (ANGSTROMS)     (ANGSTROMS)     (ANGSTROMS)

     1       C         -1.00739698  *  -0.60704646  *   0.31369657  *
     2       D          0.42508185  *  -0.79644055  *   0.16600291  *
     3       H         -1.08770202  *  -0.48643147  *   1.39027415  *
     4       H         -1.30357814  *  -1.59309515  *  -0.03030380  *
     5       N         -1.33818373  *   0.47147502  *  -0.47054311  *
     6       O         -1.40780878  *   1.60922945  *   0.02084898  *
     7       O         -1.51542891  *   0.34009859  *  -1.69164279  *
     8       C          3.87533875  *   0.00435443  *  -1.84333725  *
     9       O          3.27934986  *   0.33090466  *  -0.73522182  *
    10       O          3.81761992  *  -1.13635857  *  -2.29480752  *
    11       C          4.62149675  *   1.10716687  *  -2.51804249  *
    12       H          4.49410238  *   1.06670453  *  -3.61244404  *
    13       H          5.70470922  *   1.04115370  *  -2.33065598  *
    14       H          4.29550909  *   2.10365605  *  -2.18130445  *
    15       H          2.41794570  *  -0.44010926  *  -0.33971456  *
    16       O          1.52149338  *  -1.22280812  *   0.05557932  *
    17       H          1.47867417  *  -1.83131079  *  -0.69181207  *


                                Isotopes Used

              Atom:    2  H  Default mass  1.0079,  mass used:  2.0140 amu


          CARTESIAN COORDINATES 

    NO.       ATOM           X           Y           Z

     1         C         -1.0074     -0.6070      0.3137
     2         H          0.4251     -0.7964      0.1660
     3         H         -1.0877     -0.4864      1.3903
     4         H         -1.3036     -1.5931     -0.0303
     5         N         -1.3382      0.4715     -0.4705
     6         O         -1.4078      1.6092      0.0208
     7         O         -1.5154      0.3401     -1.6916
     8         C          3.8753      0.0044     -1.8433
     9         O          3.2793      0.3309     -0.7352
    10         O          3.8176     -1.1364     -2.2948
    11         C          4.6215      1.1072     -2.5180
    12         H          4.4941      1.0667     -3.6124
    13         H          5.7047      1.0412     -2.3307
    14         H          4.2955      2.1037     -2.1813
    15         H          2.4179     -0.4401     -0.3397
    16         O          1.5215     -1.2228      0.0556
    17         H          1.4787     -1.8313     -0.6918

 General Reference for PM7:
 "Optimization of Parameters for Semiempirical Methods VI: More Modifications to the 
 NDDO Approximations and Re-optimization of Parameters", J. J. P. Stewart, J. Mol. Mod., 1:32, 19 (2013)
 https://link.springer.com/article/10.1007/s00894-012-1667-x

           Empirical Formula: C3 H8 N O5  =    17 atoms



      MOLECULAR POINT GROUP   :   C1  


 SINGLET STATE CALCULATION


      RHF CALCULATION, NO. OF DOUBLY OCCUPIED LEVELS = 28

  SCF CRITERION =    0.1000E-03


          HEAT OF FORMATION =    -291.308987 KCALS/MOLE


          CARTESIAN COORDINATE DERIVATIVES

   NUMBER  ATOM         X            Y            Z

     1       C      4.554643     0.475635     1.319168
     2       H    -17.308756     1.436579    -2.526875
     3       H     -1.908988     0.415675    -0.032745
     4       H     -1.455459     0.608489    -0.305825
     5       N     -0.125843    -0.635750    -0.821439
     6       O     -1.085378     0.033871     0.653919
     7       O      0.442600    -0.055106     0.098667
     8       C      0.087599     0.614175     0.054613
     9       O      5.135160     0.270944    -2.200871
    10       O      1.121964    -0.456769    -0.120557
    11       C      1.075202    -0.794034    -0.257019
    12       H      0.133760    -0.525950    -0.182557
    13       H      0.245614    -0.772891    -0.785457
    14       H     -0.456856    -0.134116    -0.182851
    15       H     -2.217648     1.006573     5.183292
    16       O     11.062058    -0.644842     0.699673
    17       H      0.704374    -0.841974    -0.592136

 DIPOLE           X         Y         Z       TOTAL
 POINT-CHG.    -7.466     4.951     5.595    10.562
 HYBRID        -0.731    -0.352    -0.027     0.812
 SUM           -8.197     4.599     5.568    10.925


          GRADIENT NORM =  23.12063



 ** GRADIENT IS VERY LARGE, BUT SINCE "LET" IS USED, CALCULATION WILL CONTINUE


                              **** WARNING ****

           GRADIENT IS VERY LARGE FOR A THERMO CALCULATION
           RESULTS ARE LIKELY TO BE INACCURATE IF THERE ARE
           ANY LOW-LYING VIBRATIONS (LESS THAN ABOUT 400CM-1)
           GRADIENT NORM SHOULD BE LESS THAN ABOUT 1.0 FOR THERMO
           TO GIVE ACCURATE RESULTS


          TIME FOR SCF CALCULATION =    0.14

          TIME FOR DERIVATIVES     =    0.02

          MOLECULAR WEIGHT =  139.11



          ROTATIONAL CONSTANTS IN CM(-1)

          A =    0.08162443   B =    0.01726780   C =    0.01614524



           PRINCIPAL MOMENTS OF INERTIA IN UNITS OF 10**(-40)*GRAM-CM**2

          A =      342.9458   B =     1621.0954   C =     1733.8086


          ORIENTATION OF MOLECULE IN FORCE CALCULATION

    NO.       ATOM         X         Y         Z

     1          C      -2.3087    0.9648    1.0759
     2          H      -0.8562    0.9648    1.0759
     3          H      -2.5131    2.0317    1.0759
     4          H      -2.4373    0.5039    2.0502
     5          N      -2.6958    0.2461   -0.0292
     6          O      -2.9628    0.8247   -1.0945
     7          O      -2.7293   -0.9940   -0.0024
     8          C       2.6464   -0.5609   -0.3336
     9          O       1.9034    0.4967   -0.4718
    10          O       2.7842   -1.1147    0.7539
    11          C       3.3071   -1.0467   -1.5809
    12          H       3.2980   -2.1477   -1.6369
    13          H       4.3650   -0.7439   -1.6267
    14          H       2.8214   -0.6627   -2.4915
    15          H       1.1142    0.7223    0.4333
    16          O       0.2919    0.9426    1.3540
    17          H       0.4050    0.1445    1.8841


    FIRST DERIVATIVES WILL BE USED IN THE CALCULATION OF SECOND DERIVATIVES

          ESTIMATED TIME TO COMPLETE CALCULATION =       16.34 SECONDS

    FOR POINT-GROUP C1   THERE ARE   1 UNIQUE SYMMETRY FUNCTIONS.

 STEP:   1 TIME =     0.07 SECS, INTEGRAL =      0.07 TIME LEFT:1209599.77
 STEP:   2 TIME =     0.03 SECS, INTEGRAL =      0.10 TIME LEFT:1209599.74
 STEP:   3 TIME =     0.03 SECS, INTEGRAL =      0.13 TIME LEFT:1209599.71
 STEP:   4 TIME =     0.04 SECS, INTEGRAL =      0.17 TIME LEFT:1209599.67
 STEP:   5 TIME =     0.07 SECS, INTEGRAL =      0.24 TIME LEFT:1209599.60
 STEP:   6 TIME =     0.12 SECS, INTEGRAL =      0.36 TIME LEFT:1209599.48
 STEP:   7 TIME =     0.16 SECS, INTEGRAL =      0.52 TIME LEFT:1209599.32
 STEP:   8 TIME =     0.04 SECS, INTEGRAL =      0.55 TIME LEFT:1209599.29
 STEP:   9 TIME =     0.09 SECS, INTEGRAL =      0.64 TIME LEFT:1209599.20
 STEP:  10 TIME =     0.07 SECS, INTEGRAL =      0.71 TIME LEFT:1209599.13
 STEP:  11 TIME =     0.08 SECS, INTEGRAL =      0.79 TIME LEFT:1209599.05
 STEP:  12 TIME =     0.04 SECS, INTEGRAL =      0.83 TIME LEFT:1209599.01
 STEP:  13 TIME =     0.04 SECS, INTEGRAL =      0.87 TIME LEFT:1209598.97
 STEP:  14 TIME =     0.05 SECS, INTEGRAL =      0.91 TIME LEFT:1209598.93
 STEP:  15 TIME =     0.03 SECS, INTEGRAL =      0.95 TIME LEFT:1209598.89
 STEP:  16 TIME =     0.03 SECS, INTEGRAL =      0.97 TIME LEFT:1209598.87
 STEP:  17 TIME =     0.11 SECS, INTEGRAL =      1.09 TIME LEFT:1209598.75
 STEP:  18 TIME =     0.09 SECS, INTEGRAL =      1.17 TIME LEFT:1209598.67
 STEP:  19 TIME =     0.08 SECS, INTEGRAL =      1.25 TIME LEFT:1209598.59
 STEP:  20 TIME =     0.11 SECS, INTEGRAL =      1.36 TIME LEFT:1209598.48
 STEP:  21 TIME =     0.29 SECS, INTEGRAL =      1.65 TIME LEFT:1209598.19
 STEP:  22 TIME =     0.13 SECS, INTEGRAL =      1.78 TIME LEFT:1209598.06
 STEP:  23 TIME =     0.15 SECS, INTEGRAL =      1.93 TIME LEFT:1209597.91
 STEP:  24 TIME =     0.03 SECS, INTEGRAL =      1.96 TIME LEFT:1209597.88
 STEP:  25 TIME =     0.11 SECS, INTEGRAL =      2.06 TIME LEFT:1209597.78
 STEP:  26 TIME =     0.15 SECS, INTEGRAL =      2.21 TIME LEFT:1209597.63
 STEP:  27 TIME =     0.27 SECS, INTEGRAL =      2.48 TIME LEFT:1209597.36
 STEP:  28 TIME =     0.11 SECS, INTEGRAL =      2.59 TIME LEFT:1209597.25
 STEP:  29 TIME =     0.05 SECS, INTEGRAL =      2.64 TIME LEFT:1209597.20
 STEP:  30 TIME =     0.12 SECS, INTEGRAL =      2.76 TIME LEFT:1209597.08
 STEP:  31 TIME =     0.20 SECS, INTEGRAL =      2.96 TIME LEFT:1209596.88
 STEP:  32 TIME =     0.12 SECS, INTEGRAL =      3.08 TIME LEFT:1209596.76
 STEP:  33 TIME =     0.20 SECS, INTEGRAL =      3.29 TIME LEFT:1209596.55
 STEP:  34 TIME =     0.04 SECS, INTEGRAL =      3.32 TIME LEFT:1209596.52
 STEP:  35 TIME =     0.06 SECS, INTEGRAL =      3.38 TIME LEFT:1209596.46
 STEP:  36 TIME =     0.08 SECS, INTEGRAL =      3.46 TIME LEFT:1209596.38
 STEP:  37 TIME =     0.07 SECS, INTEGRAL =      3.54 TIME LEFT:1209596.30
 STEP:  38 TIME =     0.16 SECS, INTEGRAL =      3.69 TIME LEFT:1209596.15
 STEP:  39 TIME =     0.15 SECS, INTEGRAL =      3.84 TIME LEFT:1209596.00
 STEP:  40 TIME =     0.16 SECS, INTEGRAL =      4.00 TIME LEFT:1209595.84
 STEP:  41 TIME =     0.22 SECS, INTEGRAL =      4.21 TIME LEFT:1209595.62
 STEP:  42 TIME =     0.09 SECS, INTEGRAL =      4.30 TIME LEFT:1209595.54
 STEP:  43 TIME =     0.10 SECS, INTEGRAL =      4.40 TIME LEFT:1209595.44
 STEP:  44 TIME =     0.04 SECS, INTEGRAL =      4.45 TIME LEFT:1209595.39
 STEP:  45 TIME =     0.07 SECS, INTEGRAL =      4.52 TIME LEFT:1209595.32
 STEP:  46 TIME =     0.08 SECS, INTEGRAL =      4.60 TIME LEFT:1209595.24
 STEP:  47 TIME =     0.08 SECS, INTEGRAL =      4.68 TIME LEFT:1209595.16
 STEP:  48 TIME =     0.12 SECS, INTEGRAL =      4.80 TIME LEFT:1209595.04
 STEP:  49 TIME =     0.16 SECS, INTEGRAL =      4.96 TIME LEFT:1209594.88
 STEP:  50 TIME =     0.08 SECS, INTEGRAL =      5.04 TIME LEFT:1209594.80
 STEP:  51 TIME =     0.07 SECS, INTEGRAL =      5.11 TIME LEFT:1209594.73

(To convert to Hartree/Bohr^2, multiply by (10^(-21) x N x a0^2)/(4.184 x 627.51) =  0.0642)


           FORCE MATRIX IN MILLIDYNES/ANGSTROM


                  C  1       H  2       H  3       H  4       N  5       O  6
 ------------------------------------------------------------------------------
     C    1  11.810943
     H    2   1.576393   2.973032
     H    3   3.341287   0.341795   4.193995
     H    4   3.343425   0.374197   0.420670   4.192262
     N    5   5.079995   1.739085   0.991745   1.009912  18.940667
     O    6   1.910169   0.427660   0.093069   0.114282   8.230493  11.151828
     O    7   1.797994   0.390882   0.107020   0.091830   8.404360   2.464378
     C    8   0.167562   0.230490   0.011118   0.023083   0.117332   0.039060
     O    9   0.309534   0.444168   0.025186   0.036636   0.190991   0.058473
     O   10   0.051262   0.073225   0.003696   0.009046   0.051357   0.023376
     C   11   0.029563   0.048705   0.002237   0.003580   0.016633   0.006235
     H   12   0.003832   0.004812   0.000399   0.000845   0.004857   0.001794
     H   13   0.001928   0.002490   0.000780   0.000572   0.002902   0.001547
     H   14   0.006672   0.009992   0.000689   0.000622   0.006335   0.003110
     H   15   0.538191   0.829215   0.045355   0.062253   0.315861   0.100812
     O   16   1.896197   2.859307   0.116276   0.140799   0.883148   0.258376
     H   17   0.212759   0.540782   0.016970   0.025905   0.249994   0.078581


                  O  7       C  8       O  9       O 10       C 11       H 12
 ------------------------------------------------------------------------------
     O    7  11.320662
     C    8   0.041691  17.518167
     O    9   0.047301   6.317882   9.592690
     O   10   0.022700  10.106943   2.222180  12.429410
     C   11   0.005543   3.305530   1.279910   1.214050  11.236923
     H   12   0.002573   0.795360   0.067867   0.050040   3.300027   4.121789
     H   13   0.001172   0.787023   0.056940   0.061576   3.293514   0.455691
     H   14   0.002046   0.773829   0.052478   0.066797   3.325965   0.439407
     H   15   0.083917   1.579974   1.234688   0.342043   0.255439   0.025721
     O   16   0.232900   0.626912   2.927268   0.185816   0.131856   0.012490
     H   17   0.143279   0.114098   0.160390   0.065473   0.016938   0.002278


                  H 13       H 14       H 15       O 16       H 17
 ------------------------------------------------------------------
     H   13   4.116188
     H   14   0.445557   4.145643
     H   15   0.028248   0.043806   1.250225
     O   16   0.012895   0.022784   0.746090   7.621380
     H   17   0.001760   0.002098   0.499321   3.880993   4.226698


          HEAT OF FORMATION =    -291.308987 KCALS/MOLE


          TRIVIAL VIBRATIONS, SHOULD BE ZERO

 -28.6903=TX  -3.7907=TY   1.6801=TZ -39.8360=RX -37.6841=RY   8.3101=RZ


      MOLECULAR POINT GROUP   :   C1  


           EIGENVECTORS  


   Root No.       1         2         3         4         5         6         7         8

                 1 A       2 A       3 A       4 A       5 A       6 A       7 A       8 A   

                  -1.0      -0.0      -0.0      -0.0       0.0       0.0       0.0       0.0
  
           1    0.4173   -0.0540    0.0075   -0.0209    0.0236    0.0435   -0.0130    0.0070
           2    0.0074    0.0002    0.0921    0.0158   -0.0675   -0.1371   -0.0602    0.1195
           3   -0.0082    0.0095   -0.0668    0.0432   -0.0309    0.0304    0.1025    0.0337
           4   -0.3369   -0.0220    0.0366    0.0007   -0.0065    0.0849   -0.0200    0.0127
           5    0.0534   -0.0762   -0.1409   -0.0959    0.1153   -0.0818   -0.0104    0.2140
           6   -0.0300    0.0772    0.1294    0.0061    0.0866    0.0408    0.1047    0.1301
           7   -0.0003    0.0309    0.2159    0.0910   -0.0839    0.0796    0.0576   -0.2283
           8   -0.0258    0.0156    0.1322    0.0369   -0.0859   -0.1308   -0.0451    0.0735
           9   -0.0019    0.0401   -0.3208    0.1011    0.0136    0.1414    0.1015    0.0245
          10   -0.0442   -0.1289   -0.2349   -0.0410   -0.0758    0.0276   -0.1462    0.0539
          11    0.0082   -0.0325    0.3224   -0.0248   -0.1388   -0.2457   -0.0691    0.1029
          12   -0.0182   -0.0177    0.0107    0.0197   -0.0768   -0.0264    0.0784    0.0341
          13    0.0744   -0.0075    0.0783   -0.0890    0.2024    0.0965    0.0557    0.2297
          14   -0.0407    0.0722   -0.0674    0.1127   -0.0341   -0.0071   -0.0188    0.0356
          15   -0.0596   -0.0451    0.0206    0.0093   -0.1230   -0.0624    0.0487    0.0126
          16   -0.0496    0.1332    0.4044   -0.0109    0.3455    0.2590    0.3824    0.0408
          17    0.0077    0.1254   -0.2570    0.1918    0.0090    0.1008    0.0138   -0.0336
          18    0.0526   -0.0523   -0.1614    0.0316   -0.1346   -0.0460   -0.0183    0.0298
          19   -0.0304   -0.0969   -0.1539   -0.2226    0.2249   -0.0056   -0.1878    0.6414
          20    0.0116    0.0699   -0.0635    0.1129   -0.0323   -0.0104   -0.0077    0.0145
          21   -0.0054   -0.0902    0.2792   -0.0485   -0.1766   -0.1648    0.0713   -0.0178
          22   -0.0108    0.1273   -0.0403   -0.0110   -0.0290   -0.0939   -0.1793   -0.1406
          23    0.0581    0.0787    0.0499   -0.0080   -0.0852    0.2032   -0.0732   -0.0184
          24   -0.0691   -0.0009   -0.0097   -0.0296    0.0390    0.0094   -0.1177   -0.0553
          25    0.1584   -0.3018   -0.0113   -0.0626    0.0050    0.0387   -0.2723   -0.2814
          26   -0.0252   -0.2471    0.0787   -0.0537   -0.0456    0.2899   -0.1542   -0.1292
          27   -0.1490   -0.1224    0.0643   -0.0929    0.1556   -0.0948   -0.2438   -0.1493
          28    0.0041    0.6111   -0.0475   -0.0339    0.0488   -0.2015   -0.2973   -0.1106
          29    0.0012    0.4325   -0.0087    0.0416   -0.1628    0.3130   -0.0466    0.0742
          30   -0.0417    0.1188   -0.0363    0.0004   -0.0133    0.0810   -0.0885   -0.0106
          31    0.0468    0.0050   -0.0695    0.0785   -0.1466   -0.1486    0.0856   -0.0155
          32   -0.0617   -0.0166    0.0826   -0.0173   -0.0185   -0.0419    0.0022   -0.0056
          33   -0.0364   -0.0300   -0.0370    0.0236   -0.0521    0.0811   -0.0047    0.0081
          34    0.0120   -0.1357   -0.0355    0.5498    0.0298   -0.2714    0.0937    0.0695
          35   -0.0353   -0.0184    0.0823   -0.0317   -0.0207   -0.0518    0.0073   -0.0074
          36   -0.0027   -0.0012   -0.0447    0.2631   -0.0167    0.2505   -0.0918    0.0302
          37    0.0208    0.0410   -0.0805   -0.0533   -0.2050   -0.1159    0.1004   -0.0313
          38   -0.0222   -0.1518    0.1151    0.4216    0.1575   -0.1662   -0.0009    0.0672
          39   -0.0060   -0.0801   -0.0741   -0.1431   -0.2350    0.0237    0.2691    0.0962
          40    0.0297    0.0091   -0.1147   -0.1565   -0.3538   -0.1135    0.3011    0.0387
          41   -0.0340    0.0172    0.0735   -0.4149   -0.1247   -0.1276    0.0725   -0.0602
          42   -0.0129   -0.0159   -0.0167   -0.0205    0.0129    0.0261   -0.0895   -0.0433
          43   -0.5026   -0.1454   -0.0070   -0.0504    0.0317    0.0367   -0.1593   -0.1467
          44    0.1623   -0.1774   -0.0029   -0.0491   -0.0190    0.2731   -0.0418   -0.0606
          45    0.5384    0.0102    0.1134   -0.0636    0.1403   -0.0877   -0.1843   -0.0474
          46    0.1190   -0.0357    0.0150   -0.0028    0.0057    0.0709    0.0192    0.0144
          47   -0.0656   -0.0655   -0.1873   -0.1020    0.1987   -0.0191    0.1438   -0.0845
          48   -0.1507    0.0651    0.1571   -0.0243    0.0938    0.0133   -0.0570    0.1028
          49    0.0922   -0.0297    0.0375    0.0350   -0.0168    0.2128    0.1796   -0.1536
          50    0.0004   -0.0261   -0.3011   -0.1360    0.3546   -0.1605    0.2885   -0.3019
          51    0.0009    0.1351   -0.0072   -0.0754    0.3170   -0.2156    0.1192   -0.1784


   Root No.       9        10        11        12        13        14        15        16

                 9 A      10 A      11 A      12 A      13 A      14 A      15 A      16 A   

                   0.1       0.1       0.3       0.3       0.4       0.5       0.6       0.7
  
           1   -0.1039    0.1257   -0.1198    0.0737    0.0107    0.1628   -0.0591    0.0975
           2    0.0107   -0.0395    0.0385   -0.1354   -0.0762   -0.0037    0.1792    0.0583
           3    0.1610   -0.0900    0.0003    0.0943   -0.0521   -0.0339   -0.1080   -0.0436
           4   -0.1548    0.2054    0.0810    0.0121    0.0696   -0.1969    0.0614   -0.3046
           5    0.2795    0.2612   -0.0818    0.0779    0.4682    0.2531   -0.0183    0.0284
           6   -0.1107   -0.2639   -0.0164   -0.1989    0.4522    0.3612   -0.0658    0.2799
           7   -0.2962    0.0852   -0.1841    0.6778    0.0099    0.0975    0.1411    0.1476
           8   -0.0206   -0.0529    0.0193   -0.0254   -0.0748   -0.0060    0.1898    0.0723
           9    0.2284    0.0118    0.0217    0.0078   -0.1136   -0.0907    0.4500    0.0455
          10   -0.1649    0.5931    0.0318   -0.3408   -0.2423    0.1464   -0.1649    0.1766
          11   -0.0505   -0.1325    0.0279   -0.0444   -0.1217   -0.0640   -0.3312   -0.1268
          12    0.1281   -0.0782    0.0065    0.0832   -0.1036   -0.0508   -0.3391   -0.0995
          13    0.0402   -0.0131   -0.0306    0.0463   -0.0550    0.0611   -0.0343    0.0434
          14    0.0121   -0.0278    0.0279   -0.0659   -0.0578   -0.0261    0.1603    0.0333
          15    0.0941   -0.0149    0.0082    0.0619   -0.0526   -0.0341   -0.0843   -0.0477
          16    0.4304    0.1456    0.0250   -0.0723   -0.2109   -0.0292   -0.1254   -0.0078
          17   -0.0126   -0.0724   -0.0000    0.0259   -0.0406   -0.0044   -0.2951   -0.0692
          18   -0.0046   -0.0830   -0.0320    0.1422   -0.0046    0.0113   -0.2811   -0.0692
          19   -0.1433   -0.3134    0.0189    0.1950   -0.2202   -0.0888    0.1195    0.0068
          20    0.0122   -0.0282    0.0200   -0.0729   -0.0503   -0.0049    0.1312    0.0405
          21    0.1622    0.0983    0.0118   -0.0699   -0.0474    0.0025    0.3709    0.0990
          22    0.1510   -0.0980   -0.0044   -0.0205   -0.0064    0.1205    0.0128   -0.0421
          23   -0.0104   -0.0093    0.2025    0.0355   -0.0162    0.0938    0.0066   -0.0113
          24    0.0116    0.0088   -0.2159   -0.0223   -0.0666    0.0476    0.0061   -0.0227
          25    0.2398   -0.2019    0.0685   -0.0264   -0.0765    0.0660   -0.0347    0.1917
          26    0.0522   -0.1009    0.2792    0.0330   -0.0372    0.0672   -0.0370    0.1890
          27    0.0684   -0.0271   -0.0158   -0.0245    0.0359   -0.0588   -0.0041    0.0964
          28    0.1510   -0.0291   -0.1158   -0.0349    0.0914   -0.2227   -0.0415    0.2116
          29   -0.0748    0.0456    0.0842    0.0394   -0.0332   -0.0152   -0.0449    0.0773
          30   -0.0208    0.0310   -0.2494   -0.0192   -0.0893    0.0287   -0.0102   -0.0175
          31    0.0754   -0.0503    0.0629   -0.0069    0.0214    0.1045    0.0332   -0.1294
          32   -0.0367    0.0328    0.0084    0.0106   -0.0212    0.0743    0.0175   -0.0450
          33   -0.0267    0.0191   -0.1078   -0.0029   -0.0559    0.0567    0.0073   -0.0380
          34    0.0340   -0.0098   -0.0177   -0.0193    0.0531   -0.0548    0.0035   -0.0684
          35   -0.0372    0.0371   -0.0241    0.0070   -0.0338    0.0644    0.0138   -0.0356
          36   -0.0174   -0.0132    0.2121    0.0426   -0.0035    0.2241    0.0727   -0.2066
          37    0.0830   -0.0632    0.1165   -0.0028    0.0397    0.1310    0.0432   -0.1686
          38   -0.0794    0.0856   -0.1577   -0.0009   -0.0534   -0.1100   -0.0463    0.2041
          39   -0.0995    0.0793   -0.0662    0.0118    0.0123   -0.3491   -0.1181    0.4817
          40    0.0330   -0.0336    0.2607    0.0207    0.1253   -0.0644    0.0085    0.0111
          41   -0.0293    0.0472   -0.2483   -0.0221   -0.1178    0.1529    0.0512   -0.2247
          42    0.0004    0.0162   -0.3076   -0.0305   -0.1436    0.1690    0.0345   -0.1827
          43    0.0420   -0.0541    0.0827    0.0187    0.1956   -0.1477   -0.0582    0.0294
          44    0.0377   -0.0075   -0.0716   -0.0026    0.1645   -0.3572    0.0088   -0.1039
          45   -0.0422    0.1564    0.1874   -0.0063    0.1299   -0.3342    0.0461   -0.2130
          46   -0.1043    0.0480   -0.0182   -0.0476    0.1626    0.0093    0.0110   -0.1134
          47    0.0230    0.0592   -0.1471    0.0824    0.2048   -0.1338    0.0182   -0.1288
          48   -0.2122    0.1314    0.1182   -0.0568    0.2639   -0.0646    0.0233   -0.1140
          49   -0.3123   -0.3363   -0.2574   -0.4727    0.0319   -0.0947    0.0839   -0.0813
          50   -0.0758   -0.0976    0.0226    0.0579   -0.1033    0.0196   -0.0037    0.0421
          51   -0.3198    0.0182    0.4450   -0.0124   -0.1613    0.1152   -0.0001    0.0520


   Root No.      17        18        19        20        21        22        23        24

                17 A      18 A      19 A      20 A      21 A      22 A      23 A      24 A   

                   0.7       0.8       1.0       1.1       1.2       1.2       1.3       1.4
  
           1   -0.1244   -0.1625    0.2921   -0.2673    0.0573   -0.1655    0.0013    0.2787
           2   -0.0123    0.0131    0.0423   -0.0116    0.0136    0.0230   -0.0944    0.0222
           3    0.0113    0.0011   -0.0311    0.0306   -0.0034    0.0828   -0.1358   -0.0258
           4   -0.1506   -0.2195   -0.3194    0.0804    0.1724   -0.1047   -0.0250    0.1660
           5   -0.1467   -0.2373   -0.2428    0.0444   -0.1119    0.2221    0.0987   -0.3512
           6    0.0732    0.2884    0.0852    0.0879    0.1233   -0.1265    0.0514    0.0479
           7    0.1705    0.1411   -0.0864    0.0916   -0.0889    0.0805    0.0996   -0.1651
           8    0.0401    0.0695   -0.0095    0.0486   -0.0136    0.0836   -0.1135   -0.0597
           9   -0.0446   -0.0379    0.0556   -0.0669   -0.0578   -0.2323    0.5372   -0.0525
          10    0.2474    0.2612    0.0207    0.0819   -0.0459    0.0290    0.0506   -0.0872
          11    0.0067   -0.0394    0.0319   -0.0597   -0.0467   -0.2365    0.5291   -0.0282
          12    0.0618    0.0314   -0.0455    0.0436   -0.0469    0.0023    0.1255   -0.0980
          13   -0.0394   -0.0547    0.1031   -0.0988    0.0357   -0.0428   -0.0532    0.1173
          14    0.0032    0.0247    0.0060    0.0124    0.0240    0.0163   -0.0930    0.0358
          15    0.0103   -0.0101   -0.0460    0.0269    0.0066    0.0719   -0.1355   -0.0005
          16    0.0723    0.0580   -0.0067    0.0314   -0.0268    0.0481   -0.0440   -0.0361
          17    0.0134   -0.0165   -0.0020   -0.0078    0.0198    0.0605   -0.1873    0.0634
          18   -0.0196   -0.0642    0.0120   -0.0379    0.0214    0.0678   -0.2021    0.0728
          19    0.0699    0.0685   -0.0427    0.0583   -0.0295    0.0667   -0.0575   -0.0531
          20   -0.0101    0.0097    0.0349   -0.0109    0.0244    0.0119   -0.1049    0.0513
          21   -0.0386   -0.0093    0.0623   -0.0333    0.0478    0.0499   -0.2567    0.1230
          22    0.0041   -0.0361   -0.0249    0.0667   -0.0453   -0.1411   -0.0590   -0.0357
          23    0.0127    0.0149   -0.0916   -0.0605   -0.1200   -0.0715   -0.0356    0.0211
          24    0.0149   -0.0257    0.0155    0.1333    0.0160   -0.0526    0.0001    0.0462
          25   -0.1339   -0.0740   -0.1701    0.1381    0.1264    0.0431    0.0541    0.0782
          26   -0.0743    0.0302   -0.1878   -0.0246   -0.0315    0.0781    0.0652    0.1423
          27    0.2341    0.0189   -0.1299    0.0488   -0.1160    0.0718    0.0657    0.2085
          28    0.2082   -0.0713   -0.1126   -0.1848    0.1913    0.0250    0.0179   -0.0322
          29   -0.3473    0.0994    0.0811    0.1562   -0.1331    0.1371    0.0678    0.1032
          30   -0.1943    0.0181    0.1085    0.2931   -0.0260    0.0382    0.0439    0.0912
          31    0.0019    0.0227    0.0085    0.1038   -0.0805   -0.2332   -0.1158   -0.1339
          32    0.1198   -0.0415   -0.0312   -0.1283   -0.1560   -0.1398   -0.0800   -0.0133
          33   -0.0332   -0.0107    0.0292    0.1147   -0.0064   -0.0538   -0.0122    0.0044
          34   -0.2137    0.4176   -0.1678   -0.2350    0.0474    0.2849    0.1419    0.1608
          35    0.0864   -0.0361   -0.0409   -0.1043   -0.1878   -0.1828   -0.0997   -0.0134
          36    0.4189   -0.2608    0.1240   -0.3442    0.1565    0.1820    0.0433   -0.0520
          37    0.0167    0.1209   -0.0683   -0.0350   -0.1837   -0.2957   -0.1554   -0.1407
          38    0.0494   -0.3898    0.2000    0.2976    0.1135   -0.0684   -0.0278   -0.1030
          39   -0.0959   -0.1137   -0.1919   -0.3409   -0.0685   -0.0819   -0.0682   -0.0614
          40    0.2020   -0.1176    0.2093    0.3812    0.1609    0.2126    0.1457    0.1438
          41   -0.0532    0.0296    0.0780   -0.2122    0.2670    0.3677    0.1491    0.0253
          42   -0.1945    0.0943   -0.0368   -0.0405    0.0535   -0.1025   -0.0623   -0.1391
          43   -0.2228    0.0145    0.5811   -0.2051   -0.1865    0.0911   -0.0339   -0.2061
          44    0.0950    0.3265    0.0639    0.0349    0.5069   -0.1894   -0.0741   -0.3374
          45   -0.0147    0.0840    0.1452    0.0768   -0.3304    0.1672   -0.0262   -0.0650
          46   -0.1987   -0.1803   -0.0589   -0.0140    0.1574   -0.1336   -0.0077    0.1352
          47    0.1855    0.1040   -0.0041    0.0356   -0.1135   -0.1095    0.0074    0.3743
          48    0.0561    0.0475   -0.0767   -0.0017   -0.0092   -0.0793    0.0329    0.1624
          49    0.0905   -0.1884   -0.1569    0.0066   -0.2617    0.2355    0.0405   -0.1900
          50    0.0317    0.0392    0.0720   -0.0097   -0.0552   -0.0023   -0.0070    0.0673
          51   -0.2451   -0.0513   -0.0798    0.0098    0.2395   -0.0050   -0.0011   -0.2622


   Root No.      25        26        27        28        29        30        31        32

                25 A      26 A      27 A      28 A      29 A      30 A      31 A      32 A   

                   1.5       2.2       2.8       3.0       3.3       3.7       4.3       5.0
  
           1   -0.2799    0.0998    0.0602   -0.0300   -0.1612   -0.0080   -0.2071    0.2484
           2   -0.0136    0.0051   -0.1856    0.0231   -0.1508   -0.0074   -0.0064    0.0475
           3    0.0160   -0.0189    0.1146    0.0011   -0.2234   -0.0105    0.0104    0.0486
           4    0.1769   -0.1311   -0.0224    0.0899    0.0439   -0.0732    0.2091    0.2373
           5   -0.1620    0.0099    0.0381   -0.0083    0.0463    0.0036   -0.0079    0.0247
           6    0.3032   -0.1406   -0.0337    0.0772    0.0896   -0.0374    0.0702    0.1352
           7    0.0321   -0.0041    0.0209   -0.0071    0.0642    0.0071    0.0137   -0.0268
           8    0.0388   -0.0153   -0.4396    0.0641   -0.4396   -0.0191    0.0309   -0.1145
           9   -0.0151    0.0133   -0.1789    0.0127    0.0567    0.0007    0.0236   -0.0302
          10    0.0843   -0.0153   -0.0083    0.0017    0.0233    0.0050    0.0084   -0.0309
          11   -0.0056    0.0120   -0.0225   -0.0078    0.2412    0.0073    0.0081    0.0156
          12    0.0618   -0.0426    0.4492   -0.0257   -0.3840   -0.0166    0.0692   -0.1149
          13   -0.1272    0.0492   -0.0197   -0.0053   -0.0754   -0.0722    0.7418   -0.3068
          14    0.0326   -0.0200    0.3187   -0.0238   -0.0518   -0.0084   -0.0117    0.0943
          15   -0.0001   -0.0007   -0.1960    0.0252   -0.0795    0.0010   -0.1559    0.2113
          16    0.0194    0.0026   -0.1294    0.0075    0.0658    0.0276   -0.2312    0.0900
          17   -0.0441    0.0362   -0.0532   -0.0236    0.4317    0.0316   -0.0054   -0.1536
          18   -0.0990    0.0522   -0.4000    0.0209    0.1506   -0.0000    0.0460   -0.0067
          19    0.0416   -0.0100    0.0829   -0.0155    0.1372    0.0342   -0.2330    0.0667
          20    0.0028   -0.0098    0.3555   -0.0325   -0.0509   -0.0039    0.0017    0.0924
          21   -0.0498    0.0310    0.2277   -0.0525    0.4459    0.0277    0.0369   -0.1430
          22    0.0661   -0.0486   -0.0233   -0.1393   -0.0303    0.6598    0.0620   -0.0629
          23    0.0086    0.1526    0.0244    0.2190   -0.0133    0.4503    0.1077    0.1831
          24   -0.1696   -0.1965    0.0072    0.0922   -0.0083    0.1865    0.0247    0.0962
          25    0.1623   -0.1520   -0.0243   -0.1362   -0.0024   -0.1132   -0.1326   -0.2901
          26   -0.0056    0.2316    0.0239    0.1439   -0.0031   -0.1279   -0.0167    0.0366
          27   -0.2560    0.1107   -0.0091   -0.1950    0.0020   -0.1454    0.1617    0.3473
          28   -0.0024    0.0819    0.0236    0.1996    0.0079   -0.1753   -0.0450   -0.0197
          29    0.0287    0.0139   -0.0246   -0.2388    0.0017   -0.1695    0.0014   -0.0146
          30   -0.1426   -0.3294   -0.0263   -0.1910   -0.0034   -0.0189   -0.0157    0.0013
          31    0.0703    0.1573   -0.0122   -0.1431    0.0035   -0.0721    0.0042   -0.0202
          32   -0.1281   -0.2500    0.0059    0.0730    0.0044   -0.0534   -0.0073    0.0307
          33   -0.0770    0.0832    0.0384    0.3295    0.0048   -0.0278   -0.0152    0.0229
          34   -0.1215   -0.0711    0.0065    0.0648   -0.0034    0.0749    0.0093    0.0152
          35   -0.1715   -0.4145    0.0199    0.2555    0.0143   -0.1820   -0.1286   -0.2857
          36    0.1668   -0.1330   -0.0200   -0.1473    0.0006   -0.0653   -0.0219   -0.0481
          37    0.0051    0.0923   -0.0274   -0.3214    0.0088   -0.3007    0.0348    0.1802
          38    0.1939    0.1980   -0.0111   -0.1285   -0.0013   -0.0145    0.0207    0.0505
          39    0.1777   -0.0544   -0.0156   -0.1098   -0.0067    0.1328    0.0098   -0.0191
          40   -0.1685    0.0540    0.0313    0.2703    0.0033    0.0047   -0.0219   -0.0555
          41    0.2010    0.0291   -0.0224   -0.2003   -0.0041    0.0551    0.0246    0.0487
          42    0.1743    0.4259    0.0433    0.3392    0.0119   -0.1415   -0.0458   -0.1226
          43    0.0086   -0.0012    0.0201    0.0761   -0.0130    0.0067   -0.0489   -0.0089
          44   -0.2340   -0.0492   -0.0125   -0.0886    0.0158    0.0234    0.0458    0.0461
          45    0.2855   -0.0823   -0.0136    0.0966    0.0721   -0.0193    0.0987    0.0483
          46    0.1979   -0.1833    0.0101    0.1134   -0.0868   -0.0186   -0.1661    0.0137
          47    0.1707    0.1065   -0.0131   -0.0842   -0.0634    0.0439   -0.1431   -0.2639
          48   -0.1980    0.2947    0.0037   -0.2278   -0.1199    0.1112   -0.2410   -0.3330
          49   -0.1652    0.0796    0.0113   -0.0257    0.0145    0.0132    0.0027   -0.0297
          50    0.0875   -0.0360   -0.0017    0.0577    0.0230   -0.0289    0.0863    0.1621
          51   -0.1779   -0.0127    0.0093   -0.0455   -0.0092    0.0228   -0.0556   -0.0935


   Root No.      33        34        35        36        37        38        39        40

                33 A      34 A      35 A      36 A      37 A      38 A      39 A      40 A   

                   5.8       6.2       7.9       8.7       8.8       9.2       9.8       9.9
  
           1   -0.0530    0.1186   -0.1895   -0.0097   -0.2469    0.0389    0.0125   -0.0664
           2   -0.0597   -0.1389    0.0380    0.0019    0.0466   -0.0018    0.0719    0.7007
           3   -0.0844   -0.2266    0.1231    0.0056    0.1636   -0.0343   -0.0644   -0.4230
           4   -0.0895    0.0485   -0.2878   -0.0058   -0.2436    0.0533    0.0311   -0.0227
           5   -0.0081    0.0088   -0.0278   -0.0004   -0.0192    0.0045    0.0020   -0.0122
           6   -0.0422    0.0224   -0.0859   -0.0051   -0.1223    0.0199    0.0100   -0.0039
           7   -0.0100   -0.0600    0.0363    0.0018    0.0416   -0.0058    0.0056    0.0807
           8    0.1614    0.3707   -0.0814   -0.0030   -0.0743    0.0076   -0.0360   -0.3727
           9    0.0227    0.0441   -0.0083   -0.0003   -0.0082    0.0015    0.0039    0.0290
          10    0.0012   -0.0348    0.0376    0.0016    0.0432   -0.0079   -0.0088   -0.0462
          11   -0.0446   -0.1201    0.0452    0.0018    0.0473   -0.0097   -0.0241   -0.1799
          12    0.1505    0.3575   -0.1089   -0.0039   -0.1092    0.0215    0.0441    0.3132
          13   -0.0069   -0.1746    0.0684    0.0019    0.0597   -0.0070   -0.0022    0.0009
          14   -0.0923   -0.1759    0.0037   -0.0001   -0.0207    0.0044   -0.0038   -0.0633
          15   -0.1566   -0.2699   -0.0124   -0.0017   -0.0518    0.0119    0.0114    0.0339
          16   -0.0135    0.0007   -0.0021   -0.0002   -0.0049    0.0006    0.0043    0.0372
          17    0.1522    0.3014   -0.0396   -0.0011   -0.0235    0.0026    0.0022    0.0168
          18   -0.0451   -0.1322    0.0347    0.0014    0.0239   -0.0015    0.0109    0.1044
          19    0.0174    0.0753   -0.0175   -0.0009   -0.0182    0.0019   -0.0011   -0.0226
          20   -0.1148   -0.2475    0.0464    0.0010    0.0329   -0.0047   -0.0114   -0.0951
          21    0.1144    0.2081   -0.0157   -0.0002   -0.0029   -0.0007   -0.0068   -0.0596
          22   -0.2404    0.0575   -0.0453   -0.1252   -0.0054    0.0325    0.1523   -0.0204
          23    0.1229    0.0258    0.0922   -0.0857    0.0196   -0.0561   -0.1166    0.0170
          24    0.3306   -0.1215   -0.0362   -0.0112   -0.0098    0.0337   -0.2749    0.0302
          25   -0.0811   -0.0901   -0.0920    0.0321   -0.0105    0.0840    0.1919   -0.0246
          26    0.2666   -0.1264   -0.0986    0.0316   -0.0408   -0.0252   -0.2209    0.0217
          27   -0.2844    0.3302    0.2804   -0.0193    0.0820   -0.1260   -0.0165    0.0121
          28    0.1572   -0.0799   -0.0362    0.0371   -0.0132   -0.0140   -0.0343    0.0036
          29   -0.2464    0.1216    0.0610    0.0148    0.0260   -0.0149    0.1214   -0.0114
          30    0.1721   -0.0901   -0.0621    0.0215   -0.0102    0.0901   -0.2228    0.0223
          31   -0.0864    0.0190   -0.0592    0.6296   -0.0844   -0.3556   -0.3246    0.0387
          32    0.0513    0.0141    0.1358    0.4681    0.0456    0.5793    0.2719   -0.0354
          33    0.1653   -0.0609    0.0243    0.1140   -0.0450   -0.4241    0.6772   -0.0708
          34    0.0167   -0.0010    0.0062   -0.0313    0.0045    0.0124    0.0061   -0.0007
          35   -0.2929    0.0193   -0.1211   -0.3088   -0.0296   -0.3276   -0.1507    0.0183
          36   -0.0559    0.0053   -0.0165   -0.0194   -0.0004    0.0079   -0.0344    0.0036
          37    0.3248   -0.0767    0.0252   -0.4490    0.0429    0.1022    0.1290   -0.0146
          38    0.0689   -0.0151    0.0004   -0.1426    0.0096    0.0010    0.0242   -0.0027
          39   -0.0591    0.0161   -0.0060    0.0105   -0.0009    0.0147   -0.0307    0.0029
          40   -0.1154    0.0393    0.0179   -0.0877    0.0274    0.1912   -0.0565    0.0045
          41    0.0909   -0.0294   -0.0176    0.0216   -0.0206   -0.1652    0.0403   -0.0033
          42   -0.2980    0.1014    0.0308   -0.1091    0.0468    0.3389   -0.1530    0.0141
          43    0.0386   -0.0001    0.0481    0.0002   -0.0202   -0.0100   -0.0200    0.0003
          44   -0.0773    0.0450   -0.0039   -0.0019    0.0156   -0.0065    0.0206   -0.0009
          45    0.0184   -0.0423   -0.0746    0.0043   -0.0392    0.0219    0.0014   -0.0017
          46    0.1421    0.1841    0.4685    0.0108    0.5092   -0.1238   -0.0837    0.0574
          47    0.0556   -0.1118    0.3444   -0.0341   -0.4070    0.0163   -0.0187   -0.0005
          48    0.0378   -0.1156   -0.3289    0.0388    0.3453    0.0232    0.0613   -0.0030
          49   -0.0018   -0.0257    0.0215   -0.0055   -0.0813    0.0071   -0.0016   -0.0054
          50   -0.0337    0.0582   -0.3771    0.0370    0.3925   -0.0042    0.0276    0.0030
          51    0.0138   -0.0261    0.2621   -0.0259   -0.2617    0.0013   -0.0168   -0.0037


   Root No.      41        42        43        44        45

                41 A      42 A      43 A      44 A      45 A   

                  13.0      16.0      20.2      21.1      23.4
  
           1    0.1050   -0.0031   -0.0011    0.0027    0.0026
           2    0.3959   -0.0040   -0.1083   -0.0583    0.0012
           3    0.6262   -0.0044   -0.1818   -0.0268    0.0025
           4    0.0909   -0.0355   -0.1093   -0.0231   -0.0063
           5   -0.0036   -0.0003   -0.0017    0.0035    0.0005
           6    0.0196   -0.0089   -0.0213   -0.0061   -0.0018
           7    0.0294    0.0003   -0.0107   -0.0064    0.0001
           8   -0.1165    0.0008   -0.0126   -0.0103    0.0004
           9   -0.0148    0.0001   -0.0036   -0.0194   -0.0002
          10    0.0254   -0.0000   -0.0153   -0.0007   -0.0003
          11    0.0400    0.0004   -0.0036    0.0117    0.0004
          12   -0.1171    0.0003   -0.0204    0.0076    0.0003
          13   -0.0593   -0.0023    0.1937   -0.0350   -0.0027
          14   -0.1178   -0.0028    0.2233    0.7369   -0.0018
          15   -0.1919   -0.0014    0.6855   -0.2466   -0.0076
          16   -0.0904    0.0025   -0.1160    0.0634    0.0013
          17    0.2088   -0.0024    0.2240   -0.1586   -0.0022
          18   -0.3379    0.0050   -0.4580    0.2856    0.0045
          19   -0.0114    0.0005   -0.0145   -0.0217    0.0001
          20   -0.4087    0.0084   -0.3210   -0.5271    0.0026
          21    0.0351    0.0000   -0.0177   -0.0030    0.0003
          22    0.0113    0.4397   -0.0020    0.0033    0.0878
          23   -0.0150   -0.5112    0.0007    0.0014   -0.3402
          24   -0.0050   -0.2142    0.0065   -0.0010    0.6561
          25   -0.0028   -0.3972    0.0025   -0.0006   -0.0253
          26    0.0119    0.5203   -0.0025    0.0002    0.0546
          27   -0.0121   -0.0267    0.0010    0.0006   -0.0323
          28    0.0014    0.0133   -0.0009   -0.0035   -0.0747
          29   -0.0023   -0.0734    0.0025   -0.0015    0.2977
          30    0.0035    0.1585   -0.0059    0.0004   -0.5852
          31   -0.0027   -0.0422    0.0005    0.0001    0.0054
          32    0.0033    0.0450   -0.0006   -0.0003    0.0023
          33    0.0029    0.0680   -0.0006   -0.0001   -0.0392
          34   -0.0004   -0.0085   -0.0000   -0.0002    0.0010
          35    0.0002    0.0191   -0.0002   -0.0001   -0.0059
          36    0.0007    0.0176   -0.0003   -0.0005    0.0038
          37   -0.0006   -0.0187    0.0002    0.0003    0.0104
          38    0.0001   -0.0023   -0.0002   -0.0007   -0.0015
          39    0.0003    0.0116   -0.0002    0.0007   -0.0017
          40    0.0001    0.0043    0.0001    0.0006    0.0039
          41   -0.0001   -0.0067   -0.0002    0.0001   -0.0038
          42    0.0003    0.0060   -0.0001   -0.0002   -0.0203
          43    0.0017   -0.0626   -0.0081   -0.0011   -0.0234
          44   -0.0010    0.0283    0.0018   -0.0001    0.0002
          45    0.0020    0.0615    0.0069    0.0008    0.0355
          46   -0.1011    0.1112    0.0826    0.0156    0.0182
          47    0.0222   -0.0063   -0.0111   -0.0051   -0.0003
          48   -0.0214   -0.0841    0.0159    0.0028   -0.0171
          49    0.0034   -0.0016   -0.0018    0.0062    0.0021
          50   -0.0174   -0.0129    0.0099    0.0083   -0.0041
          51    0.0095    0.0110   -0.0059    0.0053    0.0024


          FORCE CONSTANTS IN MILLIDYNES/ANGSTROM (= 10**5 DYNES/CM)

  -1.04586  -0.02911  -0.01183  -0.00609   0.00315   0.00653   0.01565   0.03381
   0.07310   0.12616   0.26724   0.30323   0.35485   0.50755   0.63873   0.65082
   0.67635   0.83771   0.95104   1.09969   1.20184   1.23364   1.26047   1.42348
   1.47006   2.20185   2.82194   2.95212   3.29397   3.69330   4.31243   5.01458
   5.78944   6.19091   7.91038   8.69872   8.77707   9.21071   9.81531   9.89535
  13.03927  16.02514  20.19367  21.11612  23.40713


           ASSOCIATED EIGENVECTORS




    ROOT NO.    1           2           3           4           5           6

            -1.04586    -0.02911    -0.01183    -0.00609     0.00315     0.00653
  
         1   0.41734    -0.05402     0.00753    -0.02090     0.02358     0.04355
         2   0.00741     0.00019     0.09211     0.01582    -0.06746    -0.13712
         3  -0.00823     0.00949    -0.06677     0.04317    -0.03086     0.03039
         4  -0.33689    -0.02199     0.03656     0.00066    -0.00652     0.08493
         5   0.05343    -0.07617    -0.14095    -0.09588     0.11533    -0.08184
         6  -0.03001     0.07716     0.12939     0.00610     0.08660     0.04078
         7  -0.00032     0.03086     0.21590     0.09096    -0.08390     0.07963
         8  -0.02575     0.01559     0.13221     0.03685    -0.08589    -0.13081
         9  -0.00191     0.04005    -0.32080     0.10110     0.01364     0.14144
        10  -0.04416    -0.12886    -0.23493    -0.04097    -0.07576     0.02762
        11   0.00823    -0.03248     0.32241    -0.02483    -0.13878    -0.24570
        12  -0.01824    -0.01771     0.01066     0.01968    -0.07682    -0.02644
        13   0.07444    -0.00752     0.07831    -0.08905     0.20235     0.09651
        14  -0.04069     0.07219    -0.06738     0.11271    -0.03407    -0.00715
        15  -0.05960    -0.04514     0.02058     0.00928    -0.12297    -0.06240
        16  -0.04963     0.13320     0.40443    -0.01089     0.34550     0.25902
        17   0.00767     0.12536    -0.25696     0.19178     0.00897     0.10081
        18   0.05258    -0.05228    -0.16138     0.03163    -0.13458    -0.04603
        19  -0.03044    -0.09685    -0.15389    -0.22259     0.22489    -0.00556
        20   0.01158     0.06985    -0.06347     0.11294    -0.03232    -0.01037
        21  -0.00541    -0.09017     0.27915    -0.04854    -0.17660    -0.16481
        22  -0.01078     0.12733    -0.04033    -0.01101    -0.02899    -0.09392
        23   0.05806     0.07870     0.04990    -0.00796    -0.08515     0.20321
        24  -0.06909    -0.00089    -0.00973    -0.02955     0.03901     0.00941
        25   0.15837    -0.30181    -0.01132    -0.06260     0.00500     0.03875
        26  -0.02515    -0.24707     0.07866    -0.05373    -0.04563     0.28990
        27  -0.14901    -0.12243     0.06426    -0.09295     0.15564    -0.09479
        28   0.00407     0.61106    -0.04750    -0.03394     0.04885    -0.20146
        29   0.00122     0.43245    -0.00872     0.04158    -0.16285     0.31303
        30  -0.04168     0.11880    -0.03628     0.00039    -0.01329     0.08099
        31   0.04683     0.00498    -0.06953     0.07855    -0.14663    -0.14864
        32  -0.06167    -0.01658     0.08256    -0.01727    -0.01850    -0.04193
        33  -0.03643    -0.02997    -0.03699     0.02357    -0.05209     0.08109
        34   0.01204    -0.13571    -0.03551     0.54977     0.02980    -0.27140
        35  -0.03531    -0.01844     0.08230    -0.03171    -0.02073    -0.05177
        36  -0.00267    -0.00121    -0.04465     0.26312    -0.01669     0.25053
        37   0.02084     0.04103    -0.08053    -0.05326    -0.20503    -0.11590
        38  -0.02219    -0.15184     0.11509     0.42162     0.15754    -0.16620
        39  -0.00603    -0.08009    -0.07407    -0.14312    -0.23501     0.02374
        40   0.02969     0.00911    -0.11469    -0.15648    -0.35378    -0.11353
        41  -0.03400     0.01724     0.07348    -0.41486    -0.12473    -0.12759
        42  -0.01292    -0.01591    -0.01666    -0.02048     0.01292     0.02613
        43  -0.50258    -0.14538    -0.00702    -0.05044     0.03171     0.03667
        44   0.16231    -0.17737    -0.00285    -0.04908    -0.01899     0.27311
        45   0.53841     0.01016     0.11341    -0.06364     0.14034    -0.08772
        46   0.11904    -0.03570     0.01504    -0.00283     0.00573     0.07095
        47  -0.06558    -0.06549    -0.18728    -0.10198     0.19868    -0.01913
        48  -0.15066     0.06506     0.15711    -0.02433     0.09375     0.01331
        49   0.09216    -0.02971     0.03748     0.03501    -0.01678     0.21280
        50   0.00042    -0.02614    -0.30110    -0.13601     0.35457    -0.16046
        51   0.00090     0.13509    -0.00723    -0.07544     0.31700    -0.21560




    ROOT NO.    7           8           9          10          11          12

             0.01565     0.03381     0.07310     0.12616     0.26724     0.30323
  
         1  -0.01304     0.00696    -0.10390     0.12566    -0.11982     0.07366
         2  -0.06023     0.11947     0.01068    -0.03947     0.03849    -0.13535
         3   0.10246     0.03373     0.16096    -0.09004     0.00026     0.09427
         4  -0.02004     0.01270    -0.15484     0.20537     0.08104     0.01211
         5  -0.01045     0.21405     0.27948     0.26120    -0.08179     0.07788
         6   0.10475     0.13012    -0.11072    -0.26390    -0.01639    -0.19885
         7   0.05755    -0.22835    -0.29617     0.08520    -0.18414     0.67784
         8  -0.04509     0.07348    -0.02058    -0.05293     0.01932    -0.02542
         9   0.10154     0.02454     0.22837     0.01179     0.02165     0.00778
        10  -0.14620     0.05387    -0.16488     0.59311     0.03185    -0.34080
        11  -0.06915     0.10295    -0.05049    -0.13254     0.02793    -0.04440
        12   0.07837     0.03414     0.12814    -0.07822     0.00647     0.08323
        13   0.05571     0.22972     0.04020    -0.01306    -0.03061     0.04626
        14  -0.01881     0.03559     0.01209    -0.02783     0.02790    -0.06587
        15   0.04874     0.01258     0.09406    -0.01491     0.00818     0.06185
        16   0.38242     0.04077     0.43043     0.14555     0.02500    -0.07234
        17   0.01378    -0.03360    -0.01259    -0.07239    -0.00003     0.02591
        18  -0.01830     0.02978    -0.00464    -0.08298    -0.03195     0.14216
        19  -0.18780     0.64140    -0.14332    -0.31340     0.01889     0.19498
        20  -0.00767     0.01453     0.01218    -0.02820     0.02004    -0.07293
        21   0.07132    -0.01781     0.16216     0.09827     0.01182    -0.06993
        22  -0.17926    -0.14064     0.15097    -0.09797    -0.00437    -0.02045
        23  -0.07322    -0.01840    -0.01041    -0.00932     0.20253     0.03550
        24  -0.11774    -0.05526     0.01162     0.00878    -0.21589    -0.02227
        25  -0.27234    -0.28138     0.23980    -0.20194     0.06850    -0.02642
        26  -0.15423    -0.12924     0.05217    -0.10088     0.27920     0.03299
        27  -0.24375    -0.14931     0.06837    -0.02710    -0.01577    -0.02446
        28  -0.29733    -0.11064     0.15096    -0.02909    -0.11584    -0.03488
        29  -0.04664     0.07423    -0.07478     0.04557     0.08423     0.03944
        30  -0.08851    -0.01064    -0.02085     0.03100    -0.24938    -0.01919
        31   0.08565    -0.01554     0.07537    -0.05035     0.06291    -0.00690
        32   0.00216    -0.00562    -0.03674     0.03280     0.00842     0.01059
        33  -0.00469     0.00806    -0.02675     0.01905    -0.10784    -0.00295
        34   0.09369     0.06948     0.03400    -0.00980    -0.01775    -0.01927
        35   0.00730    -0.00743    -0.03721     0.03707    -0.02412     0.00705
        36  -0.09175     0.03020    -0.01740    -0.01320     0.21209     0.04258
        37   0.10039    -0.03126     0.08305    -0.06319     0.11651    -0.00277
        38  -0.00086     0.06725    -0.07939     0.08562    -0.15765    -0.00092
        39   0.26908     0.09621    -0.09953     0.07928    -0.06621     0.01175
        40   0.30109     0.03871     0.03298    -0.03364     0.26075     0.02065
        41   0.07253    -0.06023    -0.02931     0.04725    -0.24832    -0.02214
        42  -0.08946    -0.04327     0.00038     0.01617    -0.30765    -0.03048
        43  -0.15930    -0.14666     0.04201    -0.05412     0.08272     0.01867
        44  -0.04182    -0.06059     0.03767    -0.00752    -0.07159    -0.00262
        45  -0.18428    -0.04743    -0.04219     0.15639     0.18741    -0.00626
        46   0.01925     0.01442    -0.10434     0.04799    -0.01823    -0.04761
        47   0.14383    -0.08451     0.02301     0.05919    -0.14712     0.08244
        48  -0.05698     0.10279    -0.21221     0.13139     0.11819    -0.05681
        49   0.17956    -0.15356    -0.31233    -0.33633    -0.25740    -0.47273
        50   0.28855    -0.30194    -0.07578    -0.09760     0.02256     0.05786
        51   0.11919    -0.17843    -0.31978     0.01824     0.44501    -0.01242




    ROOT NO.   13          14          15          16          17          18

             0.35485     0.50755     0.63873     0.65082     0.67635     0.83771
  
         1   0.01075     0.16285    -0.05911     0.09750    -0.12443    -0.16246
         2  -0.07618    -0.00369     0.17916     0.05827    -0.01225     0.01312
         3  -0.05205    -0.03393    -0.10804    -0.04356     0.01134     0.00108
         4   0.06959    -0.19685     0.06136    -0.30464    -0.15058    -0.21947
         5   0.46825     0.25306    -0.01831     0.02837    -0.14673    -0.23733
         6   0.45216     0.36118    -0.06581     0.27987     0.07318     0.28835
         7   0.00992     0.09752     0.14115     0.14760     0.17049     0.14105
         8  -0.07475    -0.00595     0.18982     0.07234     0.04008     0.06949
         9  -0.11365    -0.09073     0.44997     0.04550    -0.04457    -0.03786
        10  -0.24231     0.14638    -0.16490     0.17657     0.24739     0.26121
        11  -0.12172    -0.06403    -0.33119    -0.12684     0.00668    -0.03941
        12  -0.10362    -0.05076    -0.33913    -0.09947     0.06182     0.03137
        13  -0.05497     0.06113    -0.03430     0.04340    -0.03940    -0.05474
        14  -0.05785    -0.02615     0.16031     0.03333     0.00319     0.02466
        15  -0.05264    -0.03413    -0.08432    -0.04770     0.01031    -0.01008
        16  -0.21094    -0.02919    -0.12542    -0.00782     0.07228     0.05798
        17  -0.04065    -0.00439    -0.29509    -0.06920     0.01342    -0.01649
        18  -0.00463     0.01132    -0.28113    -0.06915    -0.01956    -0.06420
        19  -0.22016    -0.08881     0.11949     0.00684     0.06990     0.06851
        20  -0.05027    -0.00485     0.13117     0.04052    -0.01012     0.00966
        21  -0.04738     0.00246     0.37089     0.09896    -0.03861    -0.00934
        22  -0.00644     0.12049     0.01277    -0.04212     0.00410    -0.03611
        23  -0.01620     0.09380     0.00665    -0.01130     0.01267     0.01486
        24  -0.06663     0.04765     0.00615    -0.02267     0.01491    -0.02572
        25  -0.07645     0.06600    -0.03471     0.19166    -0.13385    -0.07400
        26  -0.03721     0.06723    -0.03695     0.18899    -0.07433     0.03023
        27   0.03587    -0.05879    -0.00406     0.09636     0.23411     0.01889
        28   0.09137    -0.22272    -0.04145     0.21156     0.20823    -0.07134
        29  -0.03316    -0.01515    -0.04493     0.07731    -0.34728     0.09944
        30  -0.08933     0.02869    -0.01022    -0.01749    -0.19434     0.01812
        31   0.02136     0.10452     0.03317    -0.12940     0.00189     0.02274
        32  -0.02123     0.07427     0.01749    -0.04497     0.11979    -0.04154
        33  -0.05587     0.05667     0.00728    -0.03798    -0.03319    -0.01065
        34   0.05307    -0.05477     0.00346    -0.06841    -0.21370     0.41761
        35  -0.03379     0.06437     0.01377    -0.03562     0.08641    -0.03615
        36  -0.00348     0.22409     0.07270    -0.20659     0.41886    -0.26083
        37   0.03967     0.13098     0.04323    -0.16855     0.01672     0.12089
        38  -0.05342    -0.11000    -0.04632     0.20407     0.04940    -0.38979
        39   0.01232    -0.34911    -0.11815     0.48167    -0.09594    -0.11370
        40   0.12531    -0.06443     0.00852     0.01106     0.20197    -0.11765
        41  -0.11779     0.15292     0.05115    -0.22470    -0.05325     0.02960
        42  -0.14360     0.16899     0.03449    -0.18274    -0.19454     0.09435
        43   0.19564    -0.14767    -0.05818     0.02944    -0.22282     0.01446
        44   0.16449    -0.35724     0.00878    -0.10386     0.09503     0.32649
        45   0.12992    -0.33417     0.04612    -0.21298    -0.01471     0.08401
        46   0.16264     0.00927     0.01098    -0.11337    -0.19869    -0.18033
        47   0.20476    -0.13381     0.01818    -0.12876     0.18554     0.10401
        48   0.26391    -0.06460     0.02332    -0.11401     0.05605     0.04750
        49   0.03194    -0.09472     0.08394    -0.08132     0.09051    -0.18838
        50  -0.10329     0.01961    -0.00368     0.04206     0.03173     0.03917
        51  -0.16128     0.11516    -0.00005     0.05199    -0.24510    -0.05130




    ROOT NO.   19          20          21          22          23          24

             0.95104     1.09969     1.20184     1.23364     1.26047     1.42348
  
         1   0.29208    -0.26734     0.05734    -0.16547     0.00126     0.27874
         2   0.04227    -0.01163     0.01356     0.02295    -0.09435     0.02219
         3  -0.03110     0.03057    -0.00336     0.08275    -0.13575    -0.02578
         4  -0.31940     0.08040     0.17243    -0.10473    -0.02503     0.16603
         5  -0.24276     0.04442    -0.11188     0.22214     0.09874    -0.35117
         6   0.08523     0.08790     0.12334    -0.12647     0.05138     0.04794
         7  -0.08640     0.09159    -0.08893     0.08046     0.09958    -0.16509
         8  -0.00954     0.04859    -0.01360     0.08363    -0.11355    -0.05968
         9   0.05556    -0.06692    -0.05782    -0.23228     0.53717    -0.05254
        10   0.02069     0.08186    -0.04586     0.02898     0.05057    -0.08721
        11   0.03187    -0.05966    -0.04666    -0.23649     0.52913    -0.02822
        12  -0.04546     0.04361    -0.04692     0.00233     0.12552    -0.09800
        13   0.10311    -0.09878     0.03568    -0.04278    -0.05318     0.11730
        14   0.00596     0.01237     0.02399     0.01628    -0.09304     0.03584
        15  -0.04596     0.02687     0.00656     0.07188    -0.13545    -0.00055
        16  -0.00667     0.03141    -0.02684     0.04814    -0.04399    -0.03609
        17  -0.00197    -0.00785     0.01981     0.06048    -0.18732     0.06342
        18   0.01202    -0.03791     0.02140     0.06776    -0.20212     0.07283
        19  -0.04273     0.05833    -0.02952     0.06670    -0.05746    -0.05309
        20   0.03488    -0.01087     0.02442     0.01191    -0.10488     0.05128
        21   0.06229    -0.03327     0.04784     0.04990    -0.25668     0.12300
        22  -0.02494     0.06671    -0.04528    -0.14106    -0.05903    -0.03565
        23  -0.09162    -0.06050    -0.11997    -0.07148    -0.03563     0.02107
        24   0.01549     0.13331     0.01600    -0.05259     0.00008     0.04621
        25  -0.17015     0.13806     0.12639     0.04307     0.05413     0.07815
        26  -0.18783    -0.02457    -0.03153     0.07807     0.06520     0.14228
        27  -0.12992     0.04879    -0.11596     0.07183     0.06571     0.20852
        28  -0.11259    -0.18475     0.19130     0.02502     0.01793    -0.03224
        29   0.08105     0.15617    -0.13305     0.13708     0.06779     0.10319
        30   0.10854     0.29307    -0.02602     0.03819     0.04387     0.09123
        31   0.00846     0.10380    -0.08047    -0.23320    -0.11582    -0.13394
        32  -0.03124    -0.12831    -0.15600    -0.13983    -0.08004    -0.01335
        33   0.02918     0.11471    -0.00644    -0.05384    -0.01221     0.00442
        34  -0.16777    -0.23500     0.04739     0.28492     0.14187     0.16083
        35  -0.04092    -0.10428    -0.18776    -0.18280    -0.09966    -0.01343
        36   0.12404    -0.34416     0.15655     0.18200     0.04328    -0.05203
        37  -0.06829    -0.03504    -0.18373    -0.29574    -0.15542    -0.14071
        38   0.20002     0.29757     0.11347    -0.06843    -0.02783    -0.10295
        39  -0.19189    -0.34087    -0.06854    -0.08187    -0.06816    -0.06138
        40   0.20927     0.38123     0.16091     0.21263     0.14569     0.14382
        41   0.07803    -0.21223     0.26702     0.36771     0.14911     0.02528
        42  -0.03678    -0.04053     0.05354    -0.10248    -0.06230    -0.13913
        43   0.58114    -0.20514    -0.18651     0.09112    -0.03388    -0.20607
        44   0.06388     0.03489     0.50689    -0.18942    -0.07405    -0.33739
        45   0.14524     0.07675    -0.33042     0.16718    -0.02617    -0.06498
        46  -0.05894    -0.01398     0.15744    -0.13357    -0.00774     0.13524
        47  -0.00413     0.03558    -0.11354    -0.10955     0.00737     0.37434
        48  -0.07669    -0.00169    -0.00922    -0.07928     0.03288     0.16243
        49  -0.15688     0.00663    -0.26175     0.23551     0.04053    -0.19001
        50   0.07204    -0.00968    -0.05518    -0.00227    -0.00698     0.06729
        51  -0.07981     0.00975     0.23949    -0.00501    -0.00107    -0.26218




    ROOT NO.   25          26          27          28          29          30

             1.47006     2.20185     2.82194     2.95212     3.29397     3.69330
  
         1  -0.27988     0.09977     0.06024    -0.02998    -0.16116    -0.00798
         2  -0.01364     0.00511    -0.18562     0.02314    -0.15077    -0.00737
         3   0.01605    -0.01887     0.11461     0.00112    -0.22338    -0.01054
         4   0.17686    -0.13108    -0.02244     0.08994     0.04393    -0.07320
         5  -0.16204     0.00986     0.03811    -0.00833     0.04634     0.00357
         6   0.30320    -0.14058    -0.03369     0.07719     0.08956    -0.03744
         7   0.03210    -0.00407     0.02094    -0.00708     0.06418     0.00708
         8   0.03879    -0.01533    -0.43958     0.06414    -0.43962    -0.01914
         9  -0.01513     0.01328    -0.17893     0.01272     0.05670     0.00068
        10   0.08432    -0.01526    -0.00830     0.00168     0.02335     0.00504
        11  -0.00557     0.01200    -0.02250    -0.00780     0.24119     0.00730
        12   0.06178    -0.04258     0.44925    -0.02566    -0.38400    -0.01658
        13  -0.12722     0.04916    -0.01968    -0.00529    -0.07538    -0.07216
        14   0.03262    -0.02000     0.31872    -0.02379    -0.05178    -0.00843
        15  -0.00015    -0.00068    -0.19598     0.02517    -0.07945     0.00098
        16   0.01942     0.00260    -0.12935     0.00750     0.06575     0.02756
        17  -0.04411     0.03621    -0.05323    -0.02362     0.43167     0.03157
        18  -0.09899     0.05223    -0.40004     0.02090     0.15065    -0.00000
        19   0.04160    -0.01000     0.08294    -0.01552     0.13723     0.03420
        20   0.00281    -0.00976     0.35554    -0.03247    -0.05093    -0.00394
        21  -0.04980     0.03096     0.22767    -0.05251     0.44594     0.02767
        22   0.06610    -0.04859    -0.02327    -0.13933    -0.03028     0.65981
        23   0.00858     0.15260     0.02436     0.21903    -0.01332     0.45025
        24  -0.16965    -0.19650     0.00716     0.09223    -0.00834     0.18651
        25   0.16234    -0.15198    -0.02425    -0.13621    -0.00237    -0.11317
        26  -0.00555     0.23158     0.02388     0.14391    -0.00309    -0.12787
        27  -0.25602     0.11070    -0.00913    -0.19503     0.00203    -0.14537
        28  -0.00244     0.08193     0.02355     0.19962     0.00786    -0.17529
        29   0.02867     0.01391    -0.02463    -0.23878     0.00167    -0.16948
        30  -0.14260    -0.32939    -0.02634    -0.19098    -0.00338    -0.01893
        31   0.07035     0.15728    -0.01224    -0.14305     0.00348    -0.07213
        32  -0.12815    -0.25002     0.00590     0.07304     0.00436    -0.05340
        33  -0.07704     0.08319     0.03843     0.32954     0.00478    -0.02778
        34  -0.12145    -0.07108     0.00648     0.06484    -0.00336     0.07494
        35  -0.17151    -0.41448     0.01986     0.25549     0.01428    -0.18200
        36   0.16679    -0.13300    -0.02003    -0.14730     0.00063    -0.06526
        37   0.00506     0.09228    -0.02741    -0.32136     0.00876    -0.30066
        38   0.19391     0.19803    -0.01112    -0.12854    -0.00135    -0.01450
        39   0.17769    -0.05440    -0.01564    -0.10979    -0.00667     0.13281
        40  -0.16847     0.05398     0.03132     0.27035     0.00329     0.00471
        41   0.20100     0.02909    -0.02238    -0.20026    -0.00407     0.05507
        42   0.17430     0.42589     0.04327     0.33915     0.01193    -0.14146
        43   0.00860    -0.00124     0.02012     0.07613    -0.01301     0.00670
        44  -0.23403    -0.04924    -0.01247    -0.08863     0.01583     0.02337
        45   0.28549    -0.08233    -0.01360     0.09663     0.07210    -0.01930
        46   0.19791    -0.18331     0.01007     0.11343    -0.08679    -0.01860
        47   0.17071     0.10648    -0.01314    -0.08421    -0.06341     0.04393
        48  -0.19802     0.29474     0.00369    -0.22781    -0.11993     0.11125
        49  -0.16520     0.07959     0.01128    -0.02567     0.01452     0.01315
        50   0.08751    -0.03604    -0.00169     0.05769     0.02299    -0.02893
        51  -0.17790    -0.01267     0.00931    -0.04555    -0.00916     0.02277




    ROOT NO.   31          32          33          34          35          36

             4.31243     5.01458     5.78944     6.19091     7.91038     8.69872
  
         1  -0.20709     0.24836    -0.05295     0.11856    -0.18948    -0.00965
         2  -0.00640     0.04753    -0.05965    -0.13886     0.03803     0.00188
         3   0.01036     0.04855    -0.08442    -0.22658     0.12307     0.00562
         4   0.20907     0.23729    -0.08947     0.04847    -0.28777    -0.00580
         5  -0.00793     0.02466    -0.00813     0.00881    -0.02782    -0.00037
         6   0.07020     0.13520    -0.04215     0.02241    -0.08590    -0.00510
         7   0.01365    -0.02679    -0.01003    -0.05997     0.03625     0.00180
         8   0.03095    -0.11446     0.16135     0.37073    -0.08143    -0.00303
         9   0.02355    -0.03016     0.02271     0.04413    -0.00826    -0.00028
        10   0.00836    -0.03093     0.00123    -0.03479     0.03759     0.00159
        11   0.00814     0.01562    -0.04456    -0.12006     0.04521     0.00185
        12   0.06917    -0.11491     0.15050     0.35753    -0.10894    -0.00389
        13   0.74184    -0.30685    -0.00695    -0.17463     0.06838     0.00195
        14  -0.01172     0.09435    -0.09226    -0.17585     0.00368    -0.00013
        15  -0.15590     0.21128    -0.15665    -0.26989    -0.01238    -0.00167
        16  -0.23122     0.09005    -0.01353     0.00070    -0.00211    -0.00019
        17  -0.00538    -0.15355     0.15220     0.30136    -0.03965    -0.00110
        18   0.04604    -0.00672    -0.04515    -0.13220     0.03475     0.00143
        19  -0.23303     0.06671     0.01743     0.07526    -0.01753    -0.00093
        20   0.00165     0.09237    -0.11480    -0.24751     0.04645     0.00099
        21   0.03687    -0.14298     0.11441     0.20807    -0.01568    -0.00024
        22   0.06197    -0.06290    -0.24043     0.05755    -0.04535    -0.12515
        23   0.10768     0.18308     0.12292     0.02576     0.09219    -0.08568
        24   0.02469     0.09619     0.33060    -0.12149    -0.03615    -0.01118
        25  -0.13264    -0.29010    -0.08110    -0.09006    -0.09197     0.03215
        26  -0.01670     0.03659     0.26657    -0.12640    -0.09863     0.03163
        27   0.16173     0.34729    -0.28437     0.33019     0.28035    -0.01934
        28  -0.04497    -0.01971     0.15717    -0.07990    -0.03618     0.03713
        29   0.00140    -0.01464    -0.24637     0.12161     0.06096     0.01477
        30  -0.01567     0.00131     0.17207    -0.09013    -0.06214     0.02148
        31   0.00418    -0.02023    -0.08643     0.01895    -0.05924     0.62957
        32  -0.00733     0.03067     0.05134     0.01409     0.13579     0.46809
        33  -0.01518     0.02292     0.16529    -0.06086     0.02434     0.11403
        34   0.00928     0.01520     0.01674    -0.00100     0.00615    -0.03126
        35  -0.12864    -0.28569    -0.29291     0.01931    -0.12109    -0.30885
        36  -0.02194    -0.04813    -0.05589     0.00533    -0.01647    -0.01942
        37   0.03480     0.18023     0.32484    -0.07672     0.02519    -0.44896
        38   0.02072     0.05049     0.06887    -0.01505     0.00035    -0.14261
        39   0.00977    -0.01909    -0.05907     0.01611    -0.00599     0.01049
        40  -0.02188    -0.05548    -0.11538     0.03935     0.01795    -0.08773
        41   0.02462     0.04869     0.09087    -0.02937    -0.01758     0.02160
        42  -0.04580    -0.12256    -0.29800     0.10139     0.03083    -0.10913
        43  -0.04887    -0.00887     0.03856    -0.00015     0.04806     0.00017
        44   0.04578     0.04610    -0.07729     0.04503    -0.00387    -0.00191
        45   0.09871     0.04826     0.01843    -0.04226    -0.07458     0.00427
        46  -0.16615     0.01368     0.14208     0.18413     0.46855     0.01082
        47  -0.14308    -0.26394     0.05555    -0.11177     0.34444    -0.03414
        48  -0.24099    -0.33299     0.03785    -0.11564    -0.32892     0.03885
        49   0.00268    -0.02966    -0.00176    -0.02575     0.02153    -0.00551
        50   0.08625     0.16213    -0.03369     0.05816    -0.37705     0.03700
        51  -0.05563    -0.09346     0.01382    -0.02612     0.26208    -0.02591




    ROOT NO.   37          38          39          40          41          42

             8.77707     9.21071     9.81531     9.89535    13.03927    16.02514
  
         1  -0.24687     0.03893     0.01251    -0.06637     0.10499    -0.00311
         2   0.04658    -0.00176     0.07189     0.70066     0.39593    -0.00400
         3   0.16365    -0.03435    -0.06436    -0.42300     0.62621    -0.00438
         4  -0.24358     0.05335     0.03106    -0.02266     0.09092    -0.03549
         5  -0.01923     0.00455     0.00203    -0.01223    -0.00358    -0.00034
         6  -0.12228     0.01991     0.01001    -0.00385     0.01957    -0.00892
         7   0.04157    -0.00580     0.00560     0.08067     0.02938     0.00031
         8  -0.07427     0.00756    -0.03602    -0.37268    -0.11647     0.00084
         9  -0.00823     0.00154     0.00392     0.02904    -0.01481     0.00013
        10   0.04323    -0.00795    -0.00882    -0.04621     0.02542    -0.00004
        11   0.04733    -0.00969    -0.02412    -0.17995     0.03996     0.00036
        12  -0.10922     0.02148     0.04409     0.31316    -0.11705     0.00034
        13   0.05975    -0.00701    -0.00217     0.00094    -0.05935    -0.00226
        14  -0.02067     0.00444    -0.00376    -0.06332    -0.11784    -0.00283
        15  -0.05182     0.01194     0.01140     0.03391    -0.19185    -0.00139
        16  -0.00491     0.00064     0.00430     0.03724    -0.09042     0.00248
        17  -0.02347     0.00262     0.00223     0.01678     0.20882    -0.00235
        18   0.02387    -0.00153     0.01093     0.10435    -0.33787     0.00501
        19  -0.01820     0.00195    -0.00106    -0.02258    -0.01140     0.00054
        20   0.03291    -0.00466    -0.01143    -0.09514    -0.40866     0.00841
        21  -0.00288    -0.00067    -0.00678    -0.05961     0.03514     0.00004
        22  -0.00536     0.03249     0.15234    -0.02039     0.01133     0.43969
        23   0.01956    -0.05612    -0.11656     0.01701    -0.01504    -0.51124
        24  -0.00977     0.03374    -0.27489     0.03019    -0.00495    -0.21423
        25  -0.01051     0.08403     0.19188    -0.02456    -0.00275    -0.39720
        26  -0.04083    -0.02522    -0.22094     0.02171     0.01185     0.52028
        27   0.08198    -0.12604    -0.01645     0.01209    -0.01210    -0.02667
        28  -0.01321    -0.01397    -0.03431     0.00361     0.00139     0.01326
        29   0.02605    -0.01485     0.12139    -0.01141    -0.00230    -0.07336
        30  -0.01022     0.09012    -0.22278     0.02230     0.00351     0.15851
        31  -0.08441    -0.35561    -0.32464     0.03874    -0.00271    -0.04223
        32   0.04555     0.57932     0.27191    -0.03543     0.00333     0.04504
        33  -0.04503    -0.42406     0.67719    -0.07077     0.00285     0.06798
        34   0.00453     0.01236     0.00606    -0.00066    -0.00042    -0.00853
        35  -0.02957    -0.32760    -0.15068     0.01832     0.00019     0.01910
        36  -0.00039     0.00789    -0.03440     0.00357     0.00068     0.01760
        37   0.04293     0.10218     0.12904    -0.01460    -0.00055    -0.01873
        38   0.00957     0.00098     0.02424    -0.00267     0.00008    -0.00234
        39  -0.00085     0.01465    -0.03067     0.00291     0.00034     0.01157
        40   0.02740     0.19119    -0.05648     0.00451     0.00006     0.00426
        41  -0.02061    -0.16524     0.04027    -0.00328    -0.00010    -0.00667
        42   0.04679     0.33888    -0.15304     0.01407     0.00032     0.00605
        43  -0.02025    -0.01002    -0.02001     0.00034     0.00175    -0.06257
        44   0.01559    -0.00654     0.02064    -0.00089    -0.00104     0.02834
        45  -0.03921     0.02188     0.00142    -0.00167     0.00199     0.06150
        46   0.50921    -0.12385    -0.08373     0.05740    -0.10108     0.11121
        47  -0.40697     0.01634    -0.01869    -0.00048     0.02224    -0.00630
        48   0.34531     0.02325     0.06126    -0.00298    -0.02145    -0.08414
        49  -0.08134     0.00710    -0.00156    -0.00543     0.00344    -0.00160
        50   0.39247    -0.00415     0.02761     0.00303    -0.01739    -0.01293
        51  -0.26169     0.00134    -0.01684    -0.00370     0.00946     0.01099




    ROOT NO.   43          44          45

            20.19367    21.11612    23.40713
  
         1  -0.00109     0.00268     0.00259
         2  -0.10832    -0.05833     0.00118
         3  -0.18176    -0.02684     0.00253
         4  -0.10929    -0.02313    -0.00630
         5  -0.00170     0.00352     0.00053
         6  -0.02130    -0.00608    -0.00175
         7  -0.01072    -0.00638     0.00007
         8  -0.01260    -0.01030     0.00040
         9  -0.00360    -0.01942    -0.00024
        10  -0.01525    -0.00067    -0.00030
        11  -0.00363     0.01172     0.00036
        12  -0.02036     0.00764     0.00025
        13   0.19371    -0.03496    -0.00274
        14   0.22332     0.73689    -0.00182
        15   0.68550    -0.24663    -0.00761
        16  -0.11602     0.06344     0.00135
        17   0.22401    -0.15855    -0.00216
        18  -0.45803     0.28556     0.00447
        19  -0.01451    -0.02172     0.00005
        20  -0.32103    -0.52714     0.00261
        21  -0.01766    -0.00303     0.00028
        22  -0.00196     0.00325     0.08777
        23   0.00068     0.00138    -0.34016
        24   0.00654    -0.00102     0.65611
        25   0.00251    -0.00058    -0.02529
        26  -0.00248     0.00019     0.05459
        27   0.00098     0.00058    -0.03233
        28  -0.00094    -0.00348    -0.07471
        29   0.00245    -0.00154     0.29768
        30  -0.00591     0.00040    -0.58520
        31   0.00049     0.00008     0.00543
        32  -0.00058    -0.00028     0.00228
        33  -0.00063    -0.00009    -0.03918
        34  -0.00002    -0.00018     0.00096
        35  -0.00022    -0.00012    -0.00591
        36  -0.00031    -0.00054     0.00385
        37   0.00023     0.00035     0.01038
        38  -0.00023    -0.00073    -0.00155
        39  -0.00020     0.00069    -0.00166
        40   0.00012     0.00063     0.00393
        41  -0.00023     0.00015    -0.00376
        42  -0.00014    -0.00017    -0.02026
        43  -0.00810    -0.00111    -0.02342
        44   0.00180    -0.00008     0.00015
        45   0.00687     0.00085     0.03548
        46   0.08265     0.01556     0.01815
        47  -0.01109    -0.00506    -0.00032
        48   0.01586     0.00280    -0.01712
        49  -0.00182     0.00623     0.00207
        50   0.00987     0.00828    -0.00411
        51  -0.00587     0.00529     0.00239

          ZERO POINT ENERGY      66.411 KCAL/MOL

         NOTE: SYSTEM IS NOT A GROUND STATE, THEREFORE ZERO POINT
         ENERGY IS NOT MEANINGFULL. ZERO POINT ENERGY PRINTED
         DOES NOT INCLUDE THE  4 IMAGINARY FREQUENCIES


           FREQUENCIES, REDUCED MASSES AND VIBRATIONAL DIPOLES



   I         1         2         3         4         5         6
 FREQ(I) -946.2011  -68.8365  -53.4145  -32.4216   53.2092   67.2872

 MASS(I)   0.59936   2.76575   2.76683   1.94320   2.37743   2.51732

 DIPX(I)  -9.25337   0.05486  -0.54403  -0.58564  -0.67646  -0.07137
 DIPY(I)   1.88999   0.35121  -0.55873   0.13660   0.39585  -0.17522
 DIPZ(I)   2.46425  -0.01418   0.22095  -0.14421  -0.16618  -0.21328

 DIPT(I)   9.76061   0.35575   0.81054   0.61840   0.80119   0.28511


   I         7         8         9        10        11        12
 FREQ(I)   75.0830   77.0350  152.6383  325.6227  354.5960  457.9059

 MASS(I)   0.34583   2.16143   3.37537   0.39928   1.04977   0.95394

 DIPX(I)  -0.11863  -0.15504   1.26456  -0.32596   0.12029  -1.02603
 DIPY(I)  -0.07800   0.49439  -0.29884   0.66453   0.62395   0.79532
 DIPZ(I)   0.02598  -0.21411   0.45499  -0.38198   0.45058   0.57406

 DIPT(I)   0.14433   0.56062   1.37675   0.83292   0.77898   1.41944


   I        13        14        15        16        17        18
 FREQ(I)  478.2419  519.1857  537.0971  560.6724  593.2544  668.1590

 MASS(I)   0.62075   1.51538   1.21746   3.39375   0.48666   2.70330

 DIPX(I)  -0.67215   0.08880   0.82986  -0.07066   0.03172   0.27886
 DIPY(I)  -0.00423  -0.38859  -1.65106   1.06170   0.49172  -0.79719
 DIPZ(I)  -0.66927   0.59549  -2.60275   1.17849  -1.02137  -0.80698

 DIPT(I)   0.94853   0.71659   3.19202   1.58778   1.13401   1.16811


   I        19        20        21        22        23        24
 FREQ(I)  681.2637  763.8649  790.7396  892.8108 1015.3997 1025.8913

 MASS(I)   0.45981   2.14897   3.51388   0.51783   1.04404   0.89828

 DIPX(I)   0.43051   1.43222  -0.89382   1.35015  -0.20694  -0.26888
 DIPY(I)  -0.87289   0.50238  -0.01958   1.24624   0.13210  -0.63092
 DIPZ(I)  -0.53347   0.83726  -0.42805   2.03352  -0.29553   0.01010

 DIPT(I)   1.10990   1.73339   0.99122   2.74066   0.38420   0.68590


   I        25        26        27        28        29        30
 FREQ(I) 1038.4414 1056.4202 1091.2339 1113.8749 1202.7180 1218.8394

 MASS(I)   0.55878   1.02466   1.00287   0.76486   3.00420   0.39979

 DIPX(I)   1.45574   0.92120  -0.10500   0.51264   0.20300   0.71293
 DIPY(I)   0.44418  -0.18242  -0.12119   0.48901   0.68375  -0.13547
 DIPZ(I)   0.00982  -0.88473   0.10348   0.51131   0.86217   0.25776

 DIPT(I)   1.52203   1.29021   0.19084   0.87371   1.11896   0.77010


   I        31        32        33        34        35        36
 FREQ(I) 1225.8930 1330.3666 1334.7747 1382.5548 1480.8131 1513.8127

 MASS(I)   0.39434   0.33519   0.35672   0.56912   2.03574   2.90630

 DIPX(I)   0.24020   0.02856   0.45820   0.29704   2.70720  -0.92179
 DIPY(I)   0.70901   1.02641   0.34806   1.04141   2.08785   0.16413
 DIPZ(I)  -0.26269   1.73845   0.24918   0.24905   4.24891  -2.76965

 DIPT(I)   0.79334   2.01904   0.62704   1.11121   5.45356   2.92363


   I        37        38        39        40        41        42
 FREQ(I) 1568.4294 1745.3634 1821.0418 2640.2897 2648.7093 2673.2575

[...]
 REDUCED MASS        0.3993         C  1 -- H  4          +9.7% ( 89.5%)     12.8%
 EFFECTIVE MASS      8.5740
 FORCE CONSTANT      0.0249

 VIBRATION         11   11A           ATOM PAIR      ENERGY CONTRIBUTION    RADIAL
 FREQUENCY           354.60         C  8 -- C 11         +21.0% (145.4%)      0.1%
 TRANSITION DIPOLE   0.7790         C 11 -- H 14         +11.0% (105.1%)     85.5%
 TRAVEL (Ang.)       0.4256         C 11 -- H 13         +10.3% (101.7%)     18.0%
 REDUCED MASS        1.0498         C  8 -- O  9         +10.0% (100.1%)      0.0%
 EFFECTIVE MASS     18.6695
 FORCE CONSTANT      0.0778

 VIBRATION         12   12A           ATOM PAIR      ENERGY CONTRIBUTION    RADIAL
 FREQUENCY           457.91         C  1 -- N  5         +13.4% ( 86.1%)      0.3%
 TRANSITION DIPOLE   1.4194         C  1 -- H  3          +9.2% ( 71.3%)     15.3%
 TRAVEL (Ang.)       0.3929         O  6 -- O  7          +8.3% ( 68.0%)      0.9%
 REDUCED MASS        0.9539         C  1 -- H  4          +7.5% ( 64.3%)     21.1%
 EFFECTIVE MASS     15.4338
 FORCE CONSTANT      0.1178

 VIBRATION         13   13A           ATOM PAIR      ENERGY CONTRIBUTION    RADIAL
 FREQUENCY           478.24         C  1 -- N  5         +13.7% ( 77.1%)      2.1%
 TRANSITION DIPOLE   0.9485         C  1 -- H  2         +13.4% ( 76.4%)      6.2%
 TRAVEL (Ang.)       0.4766         O 16 -- H 17         +10.2% ( 66.4%)      0.0%
 REDUCED MASS        0.6208         C  1 -- H  4          +9.8% ( 65.1%)     13.1%
 EFFECTIVE MASS      9.6381
 FORCE CONSTANT      0.0836

 VIBRATION         14   14A           ATOM PAIR      ENERGY CONTRIBUTION    RADIAL
 FREQUENCY           519.19         C  8 -- O 10         +14.6% ( 82.1%)      0.0%
 TRANSITION DIPOLE   0.7166         C  8 -- C 11         +13.0% ( 77.5%)      4.1%
 TRAVEL (Ang.)       0.2928         O  9 -- H 15         +10.2% ( 68.5%)     87.4%
 REDUCED MASS        1.5154         C 11 -- H 13          +9.1% ( 64.7%)     35.5%
 EFFECTIVE MASS     12.3000
 FORCE CONSTANT      0.2407

 VIBRATION         15   15A           ATOM PAIR      ENERGY CONTRIBUTION    RADIAL
 FREQUENCY           537.10         N  5 -- O  7         +13.4% ( 67.3%)      0.4%
 TRANSITION DIPOLE   3.1920         N  5 -- O  6         +12.2% ( 64.1%)      0.3%
 TRAVEL (Ang.)       0.3211         C  1 -- H  2         +11.1% ( 61.3%)     64.6%
 REDUCED MASS        1.2175         H  2 -- O 16         +11.1% ( 61.1%)      2.2%
 EFFECTIVE MASS     11.3235         C  1 -- N  5         +10.1% ( 58.3%)     14.5%
 FORCE CONSTANT      0.2069

 VIBRATION         16   16A           ATOM PAIR      ENERGY CONTRIBUTION    RADIAL
 FREQUENCY           560.67         C  8 -- O 10         +24.8% ( 93.2%)      0.1%
 TRANSITION DIPOLE   1.5878         C  8 -- O  9         +23.2% ( 90.2%)      0.3%
 TRAVEL (Ang.)       0.1882         C  8 -- C 11         +20.1% ( 84.0%)      0.0%
 REDUCED MASS        3.3937         C 11 -- H 13         +11.8% ( 64.4%)      0.1%
 EFFECTIVE MASS     12.2295
 FORCE CONSTANT      0.6286

 VIBRATION         17   17A           ATOM PAIR      ENERGY CONTRIBUTION    RADIAL
 FREQUENCY           593.25         C  1 -- H  3         +13.1% ( 64.0%)     17.3%
 TRANSITION DIPOLE   1.1340         C  1 -- N  5         +11.6% ( 60.2%)      0.2%
 TRAVEL (Ang.)       0.4833         O 16 -- H 17         +11.5% ( 60.0%)      4.5%
 REDUCED MASS        0.4867         C  1 -- H  4         +10.8% ( 58.1%)      7.9%
 EFFECTIVE MASS      8.5406
 FORCE CONSTANT      0.1009

 VIBRATION         18   18A           ATOM PAIR      ENERGY CONTRIBUTION    RADIAL
 FREQUENCY           668.16         O  6 -- O  7         +16.6% ( 75.6%)     98.8%
 TRANSITION DIPOLE   1.1681         N  5 -- O  6         +14.9% ( 71.6%)      0.1%
 TRAVEL (Ang.)       0.1932         N  5 -- O  7         +13.2% ( 67.4%)      0.2%
 REDUCED MASS        2.7033         C  1 -- N  5         +12.7% ( 66.3%)      5.1%
 EFFECTIVE MASS     13.1639         C  1 -- H  3         +12.7% ( 66.3%)      1.5%
 FORCE CONSTANT      0.7111         C  1 -- H  2         +12.1% ( 64.5%)      8.0%

 VIBRATION         19   19A           ATOM PAIR      ENERGY CONTRIBUTION    RADIAL
 FREQUENCY           681.26         O 16 -- H 17         +19.9% ( 71.1%)      1.0%
 TRANSITION DIPOLE   1.1099         C  1 -- H  4         +10.6% ( 51.9%)      8.1%
 TRAVEL (Ang.)       0.4640         C  1 -- H  2         +10.4% ( 51.4%)     22.7%
 REDUCED MASS        0.4598         C  1 -- N  5          +8.0% ( 45.2%)      1.7%
 EFFECTIVE MASS      7.2169
 FORCE CONSTANT      0.1257

 VIBRATION         20   20A           ATOM PAIR      ENERGY CONTRIBUTION    RADIAL
 FREQUENCY           763.86         C  1 -- N  5         +21.3% ( 63.8%)      1.0%
 TRANSITION DIPOLE   1.7334         N  5 -- O  7         +15.8% ( 55.0%)      0.0%
 TRAVEL (Ang.)       0.2027         N  5 -- O  6         +15.6% ( 54.6%)      0.0%
 REDUCED MASS        2.1490         C  1 -- H  2         +10.8% ( 45.3%)     45.8%
 EFFECTIVE MASS     11.1430
 FORCE CONSTANT      0.7388

 VIBRATION         21   21A           ATOM PAIR      ENERGY CONTRIBUTION    RADIAL
 FREQUENCY           790.74         C  8 -- O  9         +16.7% ( 55.1%)      2.3%
 TRANSITION DIPOLE   0.9912         H  2 -- O 16         +16.2% ( 54.2%)      7.2%
 TRAVEL (Ang.)       0.1558         H 15 -- O 16         +13.4% ( 49.4%)     94.1%
 REDUCED MASS        3.5139         O  9 -- H 15         +12.7% ( 48.1%)     82.6%
 EFFECTIVE MASS     13.5240         O 16 -- H 17         +10.6% ( 43.9%)      0.6%
 FORCE CONSTANT      1.2945

 VIBRATION         22   22A           ATOM PAIR      ENERGY CONTRIBUTION    RADIAL
 FREQUENCY           892.81         C  1 -- H  3         +24.7% ( 58.4%)      0.1%
 TRANSITION DIPOLE   2.7407         C  1 -- H  4         +19.8% ( 52.2%)      0.2%
 TRAVEL (Ang.)       0.3819         C  1 -- N  5         +12.8% ( 42.0%)     21.4%
 REDUCED MASS        0.5178         H  2 -- O 16         +11.4% ( 39.5%)     27.5%
 EFFECTIVE MASS      3.9573
 FORCE CONSTANT      0.2432

 VIBRATION         23   23A           ATOM PAIR      ENERGY CONTRIBUTION    RADIAL
 FREQUENCY          1015.40         C  8 -- C 11         +17.6% ( 56.6%)     67.0%
 TRANSITION DIPOLE   0.3842         C 11 -- H 14         +17.4% ( 56.3%)      2.1%
 TRAVEL (Ang.)       0.2522         C 11 -- H 13         +16.3% ( 54.4%)     43.0%
 REDUCED MASS        1.0440         C 11 -- H 12         +12.5% ( 47.7%)     14.1%
 EFFECTIVE MASS      7.2226
 FORCE CONSTANT      0.6342

 VIBRATION         24   24A           ATOM PAIR      ENERGY CONTRIBUTION    RADIAL
 FREQUENCY          1025.89         C 11 -- H 12         +33.9% ( 77.0%)     11.8%
 TRANSITION DIPOLE   0.6859         C 11 -- H 14         +25.4% ( 66.8%)     12.9%
 TRAVEL (Ang.)       0.2705         C 11 -- H 13         +16.4% ( 53.7%)      7.8%
 REDUCED MASS        0.8983         C  8 -- C 11         +15.2% ( 51.6%)     11.7%
 EFFECTIVE MASS      5.1572
 FORCE CONSTANT      0.5570

 VIBRATION         25   25A           ATOM PAIR      ENERGY CONTRIBUTION    RADIAL
 FREQUENCY          1038.44         C 11 -- H 13         +24.6% ( 60.6%)      7.8%
 TRANSITION DIPOLE   1.5220         C 11 -- H 14         +17.7% ( 51.5%)     24.3%
 TRAVEL (Ang.)       0.3409         C  8 -- C 11         +14.2% ( 46.1%)     10.4%
 REDUCED MASS        0.5588         C 11 -- H 12         +11.4% ( 41.2%)      5.1%
 EFFECTIVE MASS      4.4546
 FORCE CONSTANT      0.3550

 VIBRATION         26   26A           ATOM PAIR      ENERGY CONTRIBUTION    RADIAL
 FREQUENCY          1056.42         C  8 -- C 11         +21.0% ( 60.3%)     91.0%
 TRANSITION DIPOLE   1.2902         C 11 -- H 13         +12.0% ( 45.6%)      0.5%
 TRAVEL (Ang.)       0.2496         C 11 -- H 14         +11.0% ( 43.6%)     46.4%
 REDUCED MASS        1.0247         O 16 -- H 17         +10.7% ( 43.1%)      3.4%
 EFFECTIVE MASS      8.0599         C 11 -- H 12         +10.4% ( 42.5%)     26.9%
 FORCE CONSTANT      0.6738

 VIBRATION         27   27A           ATOM PAIR      ENERGY CONTRIBUTION    RADIAL
 FREQUENCY          1091.23         C  1 -- H  4         +35.3% ( 80.0%)     14.2%
 TRANSITION DIPOLE   0.1908         C  1 -- H  3         +31.7% ( 75.7%)     16.5%
 TRAVEL (Ang.)       0.2482         C  1 -- H  2         +11.3% ( 45.2%)      0.7%
 REDUCED MASS        1.0029         C  1 -- N  5         +11.2% ( 45.0%)      0.0%
 EFFECTIVE MASS      5.1225
 FORCE CONSTANT      0.7036

 VIBRATION         28   28A           ATOM PAIR      ENERGY CONTRIBUTION    RADIAL
 FREQUENCY          1113.87         H 15 -- O 16         +47.2% ( 92.2%)      1.1%
 TRANSITION DIPOLE   0.8737         O  9 -- H 15         +46.4% ( 91.4%)      0.7%
 TRAVEL (Ang.)       0.2813         H  2 -- O 16          +1.3% ( 15.2%)      2.2%
 REDUCED MASS        0.7649         O 16 -- H 17          +1.2% ( 14.8%)      0.2%
 EFFECTIVE MASS      1.6460
 FORCE CONSTANT      0.5591

 VIBRATION         29   29A           ATOM PAIR      ENERGY CONTRIBUTION    RADIAL
 FREQUENCY          1202.72         O  6 -- O  7         +22.6% ( 68.7%)    100.0%
 TRANSITION DIPOLE   1.1190         C  1 -- N  5         +17.6% ( 60.6%)     95.3%
 TRAVEL (Ang.)       0.1366         C  1 -- H  3         +14.9% ( 55.8%)     61.5%
 REDUCED MASS        3.0042         C  1 -- H  4         +14.1% ( 54.3%)     43.4%
 EFFECTIVE MASS     12.2390         C  1 -- H  2         +13.0% ( 52.1%)      2.6%
 FORCE CONSTANT      2.5604

 VIBRATION         30   30A           ATOM PAIR      ENERGY CONTRIBUTION    RADIAL
 FREQUENCY          1218.84         C 11 -- H 12         +49.8% ( 60.9%)      0.1%
 TRANSITION DIPOLE   0.7701         C 11 -- H 13         +27.8% ( 45.5%)      7.4%
 TRAVEL (Ang.)       0.3720         C 11 -- H 14         +17.2% ( 35.8%)     10.2%
 REDUCED MASS        0.3998         C  8 -- C 11          +4.5% ( 18.3%)      7.5%
 EFFECTIVE MASS      1.5311
 FORCE CONSTANT      0.3499

 VIBRATION         31   31A           ATOM PAIR      ENERGY CONTRIBUTION    RADIAL
 FREQUENCY          1225.89         C 11 -- H 14         +45.9% ( 57.9%)      0.7%
 TRANSITION DIPOLE   0.7933         C 11 -- H 13         +37.2% ( 52.1%)      1.6%
 TRAVEL (Ang.)       0.3735         C 11 -- H 12         +13.0% ( 30.8%)     30.4%
 REDUCED MASS        0.3943         C  8 -- C 11          +3.7% ( 16.4%)      0.0%
 EFFECTIVE MASS      1.4148
 FORCE CONSTANT      0.3492

 VIBRATION         32   32A           ATOM PAIR      ENERGY CONTRIBUTION    RADIAL
 FREQUENCY          1330.37         C 11 -- H 14         +17.7% ( 47.3%)      1.8%
 TRANSITION DIPOLE   2.0190         C  1 -- H  3         +15.2% ( 43.9%)      2.2%
 TRAVEL (Ang.)       0.3889         C 11 -- H 12         +14.3% ( 42.5%)      2.4%
 REDUCED MASS        0.3352         C  1 -- H  4         +13.1% ( 40.7%)      3.2%
 EFFECTIVE MASS      3.3473         C 11 -- H 13         +11.6% ( 38.4%)      2.3%
 FORCE CONSTANT      0.3495

 VIBRATION         33   33A           ATOM PAIR      ENERGY CONTRIBUTION    RADIAL
 FREQUENCY          1334.77         C  1 -- H  3         +23.2% ( 52.4%)      2.0%
 TRANSITION DIPOLE   0.6270         C  1 -- H  4         +20.2% ( 48.8%)      2.9%
 TRAVEL (Ang.)       0.3763         C 11 -- H 14         +13.8% ( 40.4%)      1.9%
 REDUCED MASS        0.3567         C 11 -- H 12         +12.3% ( 38.1%)      1.7%
 EFFECTIVE MASS      2.9613
 FORCE CONSTANT      0.3744

 VIBRATION         34   34A           ATOM PAIR      ENERGY CONTRIBUTION    RADIAL
 FREQUENCY          1382.55         O  9 -- H 15         +39.5% ( 80.9%)      0.0%
 TRANSITION DIPOLE   1.1112         H 15 -- O 16         +34.6% ( 75.8%)      0.8%
 TRAVEL (Ang.)       0.2927         C  8 -- O  9          +6.7% ( 33.2%)     96.6%
 REDUCED MASS        0.5691         C  8 -- O 10          +4.1% ( 26.0%)     57.3%
 EFFECTIVE MASS      3.8746
 FORCE CONSTANT      0.6409

 VIBRATION         35   35A           ATOM PAIR      ENERGY CONTRIBUTION    RADIAL
 FREQUENCY          1480.81         N  5 -- O  6         +20.3% ( 63.1%)     65.1%
 TRANSITION DIPOLE   5.4536         N  5 -- O  7         +18.1% ( 59.5%)     48.4%
 TRAVEL (Ang.)       0.1496         C  1 -- N  5         +16.6% ( 57.1%)     90.9%
 REDUCED MASS        2.0357         H  2 -- O 16          +7.3% ( 37.7%)     95.4%
 EFFECTIVE MASS     10.3439
 FORCE CONSTANT      2.6301

 VIBRATION         36   36A           ATOM PAIR      ENERGY CONTRIBUTION    RADIAL
 FREQUENCY          1513.81         C  8 -- O  9         +28.5% ( 69.4%)     79.0%
 TRANSITION DIPOLE   2.9236         C  8 -- O 10         +19.0% ( 56.6%)     12.6%
 TRAVEL (Ang.)       0.1238         C  8 -- C 11         +18.4% ( 55.8%)     82.7%
 REDUCED MASS        2.9063         O  9 -- H 15          +8.9% ( 38.7%)     56.9%
 EFFECTIVE MASS     10.1381
 FORCE CONSTANT      3.9241

 VIBRATION         37   37A           ATOM PAIR      ENERGY CONTRIBUTION    RADIAL
 FREQUENCY          1568.43         N  5 -- O  7         +36.7% ( 84.6%)     90.8%
 TRANSITION DIPOLE   9.9196         N  5 -- O  6         +33.3% ( 80.6%)     84.4%
 TRAVEL (Ang.)       0.0817         C  1 -- N  5         +21.5% ( 64.7%)      0.4%
 REDUCED MASS        6.4400         O  6 -- O  7          +6.7% ( 36.1%)      1.0%
 EFFECTIVE MASS     14.0576
 FORCE CONSTANT      9.3339

 VIBRATION         38   38A           ATOM PAIR      ENERGY CONTRIBUTION    RADIAL
 FREQUENCY          1745.36         C  8 -- O 10         +45.4% ( 90.3%)     99.5%
 TRANSITION DIPOLE   7.6130         C  8 -- O  9         +23.2% ( 64.6%)     48.9%
 TRAVEL (Ang.)       0.0853         C  8 -- C 11         +21.7% ( 62.4%)     21.2%
 REDUCED MASS        5.3053         H  2 -- O 16          +2.3% ( 20.3%)     99.7%
 EFFECTIVE MASS     12.1719
 FORCE CONSTANT      9.5221

 VIBRATION         39   39A           ATOM PAIR      ENERGY CONTRIBUTION    RADIAL
 FREQUENCY          1821.04         H  2 -- O 16         +34.8% ( 71.8%)     97.8%
 TRANSITION DIPOLE   4.7386         C  1 -- H  2         +31.1% ( 67.9%)     94.7%
 TRAVEL (Ang.)       0.1869         C  1 -- N  5          +7.4% ( 33.0%)     98.7%
 REDUCED MASS        1.0603         N  5 -- O  7          +5.4% ( 28.2%)     46.5%
 EFFECTIVE MASS      5.4534
 FORCE CONSTANT      2.0716

 VIBRATION         40   40A           ATOM PAIR      ENERGY CONTRIBUTION    RADIAL
 FREQUENCY          2640.29         C 11 -- H 13         +56.6% ( 77.7%)     98.8%
 TRANSITION DIPOLE   1.0741         C 11 -- H 12         +40.3% ( 65.5%)     96.5%
 TRAVEL (Ang.)       0.2272         C 11 -- H 14          +2.3% ( 15.8%)     33.4%
 REDUCED MASS        0.4946         C  8 -- C 11          +0.8% (  9.2%)      0.0%
 EFFECTIVE MASS      1.4285
 FORCE CONSTANT      2.0315

 VIBRATION         41   41A           ATOM PAIR      ENERGY CONTRIBUTION    RADIAL
 FREQUENCY          2648.71         C 11 -- H 14         +63.0% ( 82.0%)     99.5%
 TRANSITION DIPOLE   1.0530         C 11 -- H 12         +26.6% ( 53.2%)     92.6%
 TRAVEL (Ang.)       0.2274         C 11 -- H 13          +9.5% ( 31.9%)     75.2%
 REDUCED MASS        0.4922         C  8 -- C 11          +0.9% (  9.9%)      0.0%
 EFFECTIVE MASS      1.4531
 FORCE CONSTANT      2.0346

 VIBRATION         42   42A           ATOM PAIR      ENERGY CONTRIBUTION    RADIAL
 FREQUENCY          2673.26         C  1 -- H  3         +49.1% ( 72.8%)     98.3%
 TRANSITION DIPOLE   1.1460         C  1 -- H  4         +48.6% ( 72.4%)     98.3%
 TRAVEL (Ang.)       0.2228         C  1 -- H  2          +1.1% ( 10.9%)      0.3%
 REDUCED MASS        0.5081         C  1 -- N  5          +1.1% ( 10.8%)      0.0%
 EFFECTIVE MASS      1.5060
 FORCE CONSTANT      2.1395

 VIBRATION         43   43A           ATOM PAIR      ENERGY CONTRIBUTION    RADIAL
 FREQUENCY          2750.68         C  1 -- H  4         +49.5% ( 68.7%)     96.3%
 TRANSITION DIPOLE   1.1573         C  1 -- H  3         +49.0% ( 68.4%)     96.2%
 TRAVEL (Ang.)       0.2273         C  1 -- H  2          +0.7% (  7.9%)      2.7%
 REDUCED MASS        0.4745         C  1 -- N  5          +0.4% (  6.5%)     56.0%
 EFFECTIVE MASS      1.2298
 FORCE CONSTANT      2.1154

 VIBRATION         44   44A           ATOM PAIR      ENERGY CONTRIBUTION    RADIAL
 FREQUENCY          2754.69         O 16 -- H 17         +98.7% ( 98.0%)     99.9%
 TRANSITION DIPOLE   1.2833         H  2 -- O 16          +0.5% (  7.1%)      6.8%
 TRAVEL (Ang.)       0.1642         H 15 -- O 16          +0.3% (  5.7%)      8.8%
 REDUCED MASS        0.9079         C  1 -- H  2          +0.3% (  5.3%)     86.3%
 EFFECTIVE MASS      1.3289
 FORCE CONSTANT      4.0591

 VIBRATION         45   45A           ATOM PAIR      ENERGY CONTRIBUTION    RADIAL
 FREQUENCY          2772.81         C 11 -- H 14         +33.9% ( 55.6%)     95.5%
 TRANSITION DIPOLE   0.6811         C 11 -- H 13         +33.2% ( 55.1%)     95.6%
 TRAVEL (Ang.)       0.2738         C 11 -- H 12         +32.3% ( 54.3%)     95.3%
 REDUCED MASS        0.3244         C  8 -- C 11          +0.3% (  5.1%)     99.5%
 EFFECTIVE MASS      1.1519
 FORCE CONSTANT      1.4696

      SYMMETRY NUMBER FOR POINT-GROUP C1  =  1


          SYSTEM IS A GROUND STATE



 Title: ASE calculation


          MOLECULE IS NOT LINEAR

          THERE ARE 45 GENUINE VIBRATIONS IN THIS SYSTEM
          THIS THERMODYNAMICS CALCULATION IS LIMITED TO
          MOLECULES WHICH HAVE NO INTERNAL ROTATIONS




                    CALCULATED THERMODYNAMIC PROPERTIES
                                          *
   TEMP. (K)   PARTITION FUNCTION   H.O.F.    ENTHALPY  HEAT CAPACITY ENTROPY
                                   KCAL/MOL   CAL/MOLE    CAL/K/MOL  CAL/K/MOL


 298.00  VIB.     0.1091D+06                  5712.6309    33.2995    42.2212
         ROT.     0.1108D+07                   888.2803     2.9808    30.6380
         INT.     0.1208D+12                  6600.9113    36.2803    72.8592
         TRA.     0.1586D+28                  1480.4672     4.9680    40.6996
         TOT.                     -291.309    8081.3784    41.2483   113.5588

   *: NOTE: HEATS OF FORMATION ARE RELATIVE TO THE
            ELEMENTS IN THEIR STANDARD STATE AT 298K
              (=  Standard Enthalpy of Formation).

            Hvib:  Zero-point energy is not included.
                   frequencies of less than zero cm-1 are not included.
            Hrot = (3/2)RT
            Htra = (3/2)RT + pV = (5/2)RT

            Heat capacity is Cp, not Cv

          For more information, see: HTTP://OpenMOPAC.net/Manual/thermochemistry.html


           FORCE CONSTANT IN CARTESIAN COORDINATES (Millidynes/A)

    ATOM   CHEMICAL       X               Y               Z
   NUMBER   SYMBOL  FORCE CONSTANT  FORCE CONSTANT  FORCE CONSTANT

      1       C        2.218727        7.752773        8.659583
      2       H        2.359025        0.605438        0.925621
      3       H        0.437172        4.003478        0.745618
      4       H        0.346230        1.205010        3.582681
      5       N        3.989006       12.936899       12.388838
      6       O        0.876438        3.773508        8.327182
      7       O        0.488625       11.349020        1.531862
      8       C        5.825057        8.508581       12.688457
      9       O        3.941592        5.898510        3.179890
     10       O        0.784788        3.265792        9.766420
     11       C        6.089948        6.215794        7.021859
     12       H        0.523730        4.010804        0.685570
     13       H        3.776612        0.772837        0.618976
     14       H        1.230269        0.946504        3.108456
     15       H        0.428502        0.875969        0.430078
     16       O        5.588642        3.323592        3.529272
     17       H        0.506294        2.756921        1.588277

 **********************
 *                    *
 * JOB ENDED NORMALLY *
 *                    *
 **********************



 TOTAL JOB TIME:             5.43 SECONDS

 == MOPAC DONE ==
