 *******************************************************************************
 **                                                                           **
 **                              MOPAC v22.1.1                                **
 **                                                                           **
 *******************************************************************************
 **          Digital Object Identifier (DOI): 10.5281/zenodo.6511958          **
 **    Visit the DOI location for information on how to cite this program.    **
 *******************************************************************************

                              PM7 CALCULATION RESULTS

 *******************************************************************************
 *  CALCULATION DONE:                                Thu Oct 31 14:59:23 2024  *
 *  PM7        - The PM7 Hamiltonian to be used
 *  SINGLET    - SPIN STATE DEFINED AS A SINGLET
 *
 *
 *
 *                 CHARGE ON SYSTEM = -1
 *
 *
 *
 *  EPS=78.4   - USE ANDREAS KLAMT'S COSMO IMPLICIT SOLVATION MODEL
 *  THREADS=1  - MULTI-THREADING NOT USED
 *  T=         - A TIME OF 14.0 DAYS REQUESTED
 *  DUMP=N     - RESTART FILE WRITTEN EVERY 30.0 MINUTES REQUESTED
 *  RELSCF     - DEFAULT SCF CRITERION MULTIPLIED BY 1.0000
 *              (DEFAULT SCF CRITERION = 0.00010)
 *  ITRY=      - DO A MAXIMUM OF 15000 ITERATIONS FOR SCF
 *  AUX        - OUTPUT AUXILIARY INFORMATION
 *  BONDS      - FINAL BOND-ORDER MATRIX TO BE PRINTED
 *******************************************************************************
PM7 BONDS AUX DUMP=30M ITRY=15000 T=14D CHARGE=-1 SINGLET eps=78.4 THREADS=True RELSCF=1
 Title: ASE calculation

   ATOM   CHEMICAL          X               Y               Z
  NUMBER   SYMBOL      (ANGSTROMS)     (ANGSTROMS)     (ANGSTROMS)

     1       C          1.01054286  *   0.61322029  *  -1.53843749  *
     2       C          1.16603993  *  -0.73634359  *  -1.22819643  *
     3       C          0.05221689  *  -1.56505604  *  -1.10939921  *
     4       C         -1.22426896  *  -1.03920183  *  -1.29901875  *
     5       C         -1.38410441  *   0.31104157  *  -1.60653668  *
     6       C         -0.26716776  *   1.13650350  *  -1.72616224  *
     7       H          1.88470850  *   1.25629576  *  -1.63196843  *
     8       C          2.54472371  *  -1.29873254  *  -1.02937110  *
     9       H          0.17829108  *  -2.61932966  *  -0.86664062  *
    10       H         -2.09860949  *  -1.68262868  *  -1.20623757  *
    11       H         -2.38196337  *   0.72100891  *  -1.75233537  *
    12       H         -0.39451764  *   2.19159058  *  -1.96644636  *
    13       O          3.14487852  *  -1.62854947  *  -2.08804704  *
    14       C          3.03935473     -1.40868319      0.23287393   
    15       O          6.83152508     -2.22878770      0.52841356   
    16       H          6.99589180  *  -2.66574966  *   1.38159704  *
    17       H          7.30895972  *  -3.40326433  *  -0.60779634  *
    18       O          7.58542540  *  -4.08970879  *  -1.24430054  *
    19       H          7.11785897  *  -4.87885903  *  -0.95481759  *
    20       H          4.01312665  *  -1.79354995  *   0.43291001  *
    21       H          2.49902687  *  -1.12318060  *   1.10129378  *
    22       H          5.84995391     -2.22550606  *   0.52688577  *



          CARTESIAN COORDINATES 

    NO.       ATOM           X           Y           Z

     1         C          1.0105      0.6132     -1.5384
     2         C          1.1660     -0.7363     -1.2282
     3         C          0.0522     -1.5651     -1.1094
     4         C         -1.2243     -1.0392     -1.2990
     5         C         -1.3841      0.3110     -1.6065
     6         C         -0.2672      1.1365     -1.7262
     7         H          1.8847      1.2563     -1.6320
     8         C          2.5447     -1.2987     -1.0294
     9         H          0.1783     -2.6193     -0.8666
    10         H         -2.0986     -1.6826     -1.2062
    11         H         -2.3820      0.7210     -1.7523
    12         H         -0.3945      2.1916     -1.9664
    13         O          3.1449     -1.6285     -2.0880
    14         C          3.0394     -1.4087      0.2329
    15         O          6.8315     -2.2288      0.5284
    16         H          6.9959     -2.6657      1.3816
    17         H          7.3090     -3.4033     -0.6078
    18         O          7.5854     -4.0897     -1.2443
    19         H          7.1179     -4.8789     -0.9548
    20         H          4.0131     -1.7935      0.4329
    21         H          2.4990     -1.1232      1.1013
    22         H          5.8500     -2.2255      0.5269

 General Reference for PM7:
 "Optimization of Parameters for Semiempirical Methods VI: More Modifications to the 
 NDDO Approximations and Re-optimization of Parameters", J. J. P. Stewart, J. Mol. Mod., 1:32, 19 (2013)
 https://link.springer.com/article/10.1007/s00894-012-1667-x

           Empirical Formula: C8 H11 O3  =    22 atoms



      MOLECULAR POINT GROUP   :   C1  


 SINGLET STATE CALCULATION


      RHF CALCULATION, NO. OF DOUBLY OCCUPIED LEVELS = 31


          Geometry optimization using EF
  SCF CRITERION =    0.1000E-03

          DIAGONAL MATRIX USED AS START HESSIAN

 CYCLE:     1 TIME:   0.031 TIME LEFT:  2.00W  GRAD.:     7.077 HEAT: -234.7885

     TRUST RADIUS NOW LESS THAN  0.00010 OPTIMIZATION TERMINATING
      THE GEOMETRY MAY NOT BE COMPLETELY OPTIMIZED
      (TO CONTINUE, ADD 'LET DDMIN=0.0' TO THE KEYWORD LINE)

 -------------------------------------------------------------------------------
 PM7 BONDS AUX DUMP=30M ITRY=15000 T=14D CHARGE=-1 SINGLET eps=78.4 THREADS=True RELSCF=1
 Title: ASE calculation



     GEOMETRY OPTIMISED USING EIGENVECTOR FOLLOWING (EF).     
     SCF FIELD WAS ACHIEVED                                   


                              PM7 CALCULATION
                                                       MOPAC v22.1.1 Linux
                                                       Thu Oct 31 14:59:23 2024




          FINAL HEAT OF FORMATION =       -234.78855 KCAL/MOL =    -982.35529 KJ/MOL
          VAN DER WAALS AREA      =        221.89 SQUARE ANGSTROMS



          DIELECTRIC ENERGY       =         -3.75000 EV
          COSMO AREA              =        221.89 SQUARE ANGSTROMS
          COSMO VOLUME            =        207.80 CUBIC ANGSTROMS

          GRADIENT NORM           =          7.07720          =       1.50886 PER ATOM
          IONIZATION POTENTIAL    =          8.371167 EV
          HOMO LUMO ENERGIES (EV) =         -8.371  0.140
          NO. OF FILLED LEVELS    =         31
          MOLECULAR WEIGHT        =        155.1731         POINT GROUP:  C1  

          MOLECULAR DIMENSIONS (Angstroms)

            Atom       Atom       Distance
            O    18    H    11    11.07926
            H    10    H     7     4.41029
            H    16    O    13     3.35147


          SCF CALCULATIONS        =         11

          WALL-CLOCK TIME         =      0.160 SECONDS
          COMPUTATION TIME        =     16.611 SECONDS



       FINAL  POINT  AND  DERIVATIVES

   PARAMETER     ATOM    TYPE            VALUE        GRADIENT
      1          1  C    CARTESIAN X     1.010543     -0.022248  KCAL/ANGSTROM
      2          1  C    CARTESIAN Y     0.613220     -0.033981  KCAL/ANGSTROM
      3          1  C    CARTESIAN Z    -1.538437      0.041354  KCAL/ANGSTROM
      4          2  C    CARTESIAN X     1.166040     -0.143413  KCAL/ANGSTROM
      5          2  C    CARTESIAN Y    -0.736344      0.018185  KCAL/ANGSTROM
      6          2  C    CARTESIAN Z    -1.228196     -0.063844  KCAL/ANGSTROM
      7          3  C    CARTESIAN X     0.052217     -0.036617  KCAL/ANGSTROM
      8          3  C    CARTESIAN Y    -1.565056      0.004379  KCAL/ANGSTROM
      9          3  C    CARTESIAN Z    -1.109399      0.016472  KCAL/ANGSTROM
     10          4  C    CARTESIAN X    -1.224269     -0.050439  KCAL/ANGSTROM
     11          4  C    CARTESIAN Y    -1.039202     -0.044942  KCAL/ANGSTROM
     12          4  C    CARTESIAN Z    -1.299019      0.025666  KCAL/ANGSTROM
     13          5  C    CARTESIAN X    -1.384104      0.012165  KCAL/ANGSTROM
     14          5  C    CARTESIAN Y     0.311042      0.045627  KCAL/ANGSTROM
     15          5  C    CARTESIAN Z    -1.606537     -0.014037  KCAL/ANGSTROM
     16          6  C    CARTESIAN X    -0.267168      0.007085  KCAL/ANGSTROM
     17          6  C    CARTESIAN Y     1.136503     -0.021557  KCAL/ANGSTROM
     18          6  C    CARTESIAN Z    -1.726162      0.021441  KCAL/ANGSTROM
     19          7  H    CARTESIAN X     1.884708      0.045758  KCAL/ANGSTROM
     20          7  H    CARTESIAN Y     1.256296     -0.030660  KCAL/ANGSTROM
     21          7  H    CARTESIAN Z    -1.631968      0.008530  KCAL/ANGSTROM
     22          8  C    CARTESIAN X     2.544724     -0.173032  KCAL/ANGSTROM
     23          8  C    CARTESIAN Y    -1.298733      0.126462  KCAL/ANGSTROM
     24          8  C    CARTESIAN Z    -1.029371      1.013146  KCAL/ANGSTROM
     25          9  H    CARTESIAN X     0.178291     -0.050098  KCAL/ANGSTROM
     26          9  H    CARTESIAN Y    -2.619330     -0.032398  KCAL/ANGSTROM
     27          9  H    CARTESIAN Z    -0.866641     -0.018144  KCAL/ANGSTROM
     28         10  H    CARTESIAN X    -2.098609     -0.023399  KCAL/ANGSTROM
     29         10  H    CARTESIAN Y    -1.682629     -0.006733  KCAL/ANGSTROM
     30         10  H    CARTESIAN Z    -1.206238     -0.006825  KCAL/ANGSTROM
     31         11  H    CARTESIAN X    -2.381963     -0.026445  KCAL/ANGSTROM
     32         11  H    CARTESIAN Y     0.721009      0.034100  KCAL/ANGSTROM
     33         11  H    CARTESIAN Z    -1.752335      0.010174  KCAL/ANGSTROM
     34         12  H    CARTESIAN X    -0.394518      0.022847  KCAL/ANGSTROM
     35         12  H    CARTESIAN Y     2.191591     -0.007175  KCAL/ANGSTROM
     36         12  H    CARTESIAN Z    -1.966446      0.011969  KCAL/ANGSTROM
     37         13  O    CARTESIAN X     3.144879      0.440836  KCAL/ANGSTROM
     38         13  O    CARTESIAN Y    -1.628549     -0.281435  KCAL/ANGSTROM
     39         13  O    CARTESIAN Z    -2.088047     -0.688558  KCAL/ANGSTROM
     40         16  H    CARTESIAN X     6.995892     -4.763356  KCAL/ANGSTROM
     41         16  H    CARTESIAN Y    -2.665750      0.201579  KCAL/ANGSTROM
     42         16  H    CARTESIAN Z     1.381597     -1.880957  KCAL/ANGSTROM
     43         17  H    CARTESIAN X     7.308960     -0.684597  KCAL/ANGSTROM
     44         17  H    CARTESIAN Y    -3.403264      0.928081  KCAL/ANGSTROM
     45         17  H    CARTESIAN Z    -0.607796      1.051797  KCAL/ANGSTROM
     46         18  O    CARTESIAN X     7.585425      0.570657  KCAL/ANGSTROM
     47         18  O    CARTESIAN Y    -4.089709     -0.484366  KCAL/ANGSTROM
     48         18  O    CARTESIAN Z    -1.244301      0.013181  KCAL/ANGSTROM
     49         19  H    CARTESIAN X     7.117859     -0.322141  KCAL/ANGSTROM
     50         19  H    CARTESIAN Y    -4.878859      0.332540  KCAL/ANGSTROM
     51         19  H    CARTESIAN Z    -0.954818     -0.000143  KCAL/ANGSTROM
     52         20  H    CARTESIAN X     4.013127      1.243655  KCAL/ANGSTROM
     53         20  H    CARTESIAN Y    -1.793550     -0.221182  KCAL/ANGSTROM
     54         20  H    CARTESIAN Z     0.432910      0.042081  KCAL/ANGSTROM
     55         21  H    CARTESIAN X     2.499027      0.190379  KCAL/ANGSTROM
     56         21  H    CARTESIAN Y    -1.123181     -0.070485  KCAL/ANGSTROM
     57         21  H    CARTESIAN Z     1.101294     -0.027811  KCAL/ANGSTROM
     58         22  H    CARTESIAN Y    -2.225506     -2.165598  KCAL/ANGSTROM
     59         22  H    CARTESIAN Z     0.526886      3.522683  KCAL/ANGSTROM




   ATOM   CHEMICAL          X               Y               Z
  NUMBER   SYMBOL      (ANGSTROMS)     (ANGSTROMS)     (ANGSTROMS)

     1       C          1.01054286  *   0.61322029  *  -1.53843749  *
     2       C          1.16603993  *  -0.73634359  *  -1.22819643  *
     3       C          0.05221689  *  -1.56505604  *  -1.10939921  *
     4       C         -1.22426896  *  -1.03920183  *  -1.29901875  *
     5       C         -1.38410441  *   0.31104157  *  -1.60653668  *
     6       C         -0.26716776  *   1.13650350  *  -1.72616224  *
     7       H          1.88470850  *   1.25629576  *  -1.63196843  *
     8       C          2.54472371  *  -1.29873254  *  -1.02937110  *
     9       H          0.17829108  *  -2.61932966  *  -0.86664062  *
    10       H         -2.09860949  *  -1.68262868  *  -1.20623757  *
    11       H         -2.38196337  *   0.72100891  *  -1.75233537  *
    12       H         -0.39451764  *   2.19159058  *  -1.96644636  *
    13       O          3.14487852  *  -1.62854947  *  -2.08804704  *
    14       C          3.03935473     -1.40868319      0.23287393   
    15       O          6.83152508     -2.22878770      0.52841356   
    16       H          6.99589180  *  -2.66574966  *   1.38159704  *
    17       H          7.30895972  *  -3.40326433  *  -0.60779634  *
    18       O          7.58542540  *  -4.08970879  *  -1.24430054  *
    19       H          7.11785897  *  -4.87885903  *  -0.95481759  *
    20       H          4.01312665  *  -1.79354995  *   0.43291001  *
    21       H          2.49902687  *  -1.12318060  *   1.10129378  *
    22       H          5.84995391     -2.22550606  *   0.52688577  *

                             CARTESIAN COORDINATES

   1    C        1.010542860     0.613220290    -1.538437490
   2    C        1.166039930    -0.736343590    -1.228196430
   3    C        0.052216890    -1.565056040    -1.109399210
   4    C       -1.224268960    -1.039201830    -1.299018750
   5    C       -1.384104410     0.311041570    -1.606536680
   6    C       -0.267167760     1.136503500    -1.726162240
   7    H        1.884708500     1.256295760    -1.631968430
   8    C        2.544723710    -1.298732540    -1.029371100
   9    H        0.178291080    -2.619329660    -0.866640620
  10    H       -2.098609490    -1.682628680    -1.206237570
  11    H       -2.381963370     0.721008910    -1.752335370
  12    H       -0.394517640     2.191590580    -1.966446360
  13    O        3.144878520    -1.628549470    -2.088047040
  14    C        3.039354730    -1.408683190     0.232873930
  15    O        6.831525080    -2.228787700     0.528413560
  16    H        6.995891800    -2.665749660     1.381597040
  17    H        7.308959720    -3.403264330    -0.607796340
  18    O        7.585425400    -4.089708790    -1.244300540
  19    H        7.117858970    -4.878859030    -0.954817590
  20    H        4.013126650    -1.793549950     0.432910010
  21    H        2.499026870    -1.123180600     1.101293780
  22    H        5.849953910    -2.225506060     0.526885770


           Empirical Formula: C8 H11 O3  =    22 atoms



      MOLECULAR POINT GROUP   :   C1  


                  EIGENVALUES  
 -30.57421 -29.77385 -28.74722 -28.53124 -25.93947 -25.85208 -24.00013 -21.01272
 -20.96473 -18.67366 -17.64300 -17.56006 -16.92310 -15.46308 -15.38261 -14.98365
 -14.58394 -14.44314 -14.32970 -14.26578 -13.18900 -12.83915 -12.75099 -12.45263
 -12.28532 -11.83664 -11.83117  -9.92852  -9.76266  -9.60507  -8.37117   0.13971
   0.18817   2.13464   2.50199   3.66053   4.11141   4.47703   4.86729   4.92355
   5.04116   5.23719   5.31642   5.73771   5.77090   5.92530   6.09661   6.19341
   6.26606   6.27935   6.36486   6.46344   6.83325   7.20762   7.98848


              NET ATOMIC CHARGES AND DIPOLE CONTRIBUTIONS

  ATOM NO.   TYPE          CHARGE      No. of ELECS.   s-Pop       p-Pop       
    1          C          -0.174125        4.1741     1.08362     3.09050
    2          C          -0.076623        4.0766     1.09325     2.98338
    3          C          -0.176620        4.1766     1.08383     3.09279
    4          C          -0.151455        4.1515     1.08661     3.06485
    5          C          -0.179408        4.1794     1.08483     3.09458
    6          C          -0.152235        4.1522     1.08655     3.06569
    7          H           0.162807        0.8372     0.83719
    8          C           0.511875        3.4881     1.06389     2.42423
    9          H           0.161693        0.8383     0.83831
   10          H           0.156763        0.8432     0.84324
   11          H           0.153910        0.8461     0.84609
   12          H           0.157166        0.8428     0.84283
   13          O          -0.890867        6.8909     1.88504     5.00582
   14          C          -0.781128        4.7811     1.05714     3.72399
   15          O          -0.719708        6.7197     1.82765     4.89206
   16          H           0.378115        0.6219     0.62189
   17          H           0.378259        0.6217     0.62174
   18          O          -0.780412        6.7804     1.81769     4.96272
   19          H           0.372834        0.6272     0.62717
   20          H           0.139768        0.8602     0.86023
   21          H           0.142404        0.8576     0.85760
   22          H           0.366986        0.6330     0.63301
 DIPOLE           X         Y         Z       TOTAL
 POINT-CHG.    -6.774     1.126     5.649     8.892
 HYBRID        -0.513    -0.131     0.198     0.566
 SUM           -7.287     0.995     5.847     9.396


          ATOMIC ORBITAL ELECTRON POPULATIONS

     Atom    s        px        py        pz   
    1  C   1.08362   1.04756   1.02291   1.02002
    2  C   1.09325   1.03544   0.98915   0.95879
    3  C   1.08383   0.98407   1.08339   1.02532
    4  C   1.08661   1.05133   1.02023   0.99330
    5  C   1.08483   1.07199   1.00455   1.01805
    6  C   1.08655   0.98874   1.07843   0.99852
    7  H   0.83719
    8  C   1.06389   0.82212   0.75574   0.84637
    9  H   0.83831
   10  H   0.84324
   11  H   0.84609
   12  H   0.84283
   13  O   1.88504   1.76987   1.73714   1.49881
   14  C   1.05714   1.19525   1.45894   1.06980
   15  O   1.82765   1.44806   1.87048   1.57352
   16  H   0.62189
   17  H   0.62174
   18  O   1.81769   1.81072   1.45060   1.70140
   19  H   0.62717
   20  H   0.86023
   21  H   0.85760
   22  H   0.63301

          BONDING CONTRIBUTION OF EACH M.O.

  1.9330  1.1359  1.1025  1.5394  1.6391  1.8975  1.7868  1.9260  1.9465  1.8182
  1.6068  1.6236  1.6991  1.9986  1.7657  0.8326  1.7786  0.8866  1.3262  1.9979
  1.8662  1.2657  1.8817  0.1515  0.0001  1.9065  1.6742  1.9831  1.7974  0.9275
  0.9837 -2.0156 -1.9909 -2.1228 -2.0030 -1.7647 -1.9941 -1.9421 -1.8041 -1.9578
 -1.9701 -2.0138 -1.9983 -1.9695 -1.9347 -1.9984 -1.7426 -1.9674 -1.9759 -1.9787
 -1.9688 -1.9704 -1.7230 -1.9439 -1.9276





            (VALENCIES)   BOND ORDERS

     1  C     (3.972)     6  C 1.443     2  C 1.425     7  H 0.961     4  C 0.113

     2  C     (3.979)     3  C 1.425     1  C 1.425     8  C 0.941     5  C 0.112    13  O 0.043    14  C 0.012

     3  C     (3.973)     4  C 1.443     2  C 1.425     9  H 0.961     6  C 0.113

     4  C     (3.974)     3  C 1.443     5  C 1.442    10  H 0.963     1  C 0.113

     5  C     (3.975)     4  C 1.442     6  C 1.441    11  H 0.964     2  C 0.112

     6  C     (3.974)     1  C 1.443     5  C 1.441    12  H 0.963     3  C 0.113

     7  H     (0.973)     1  C 0.961

     8  C     (3.862)    14  C 1.588    13  O 1.310     2  C 0.941

     9  H     (0.974)     3  C 0.961

    10  H     (0.975)     4  C 0.963

    11  H     (0.976)     5  C 0.964

    12  H     (0.975)     6  C 0.963

    13  O     (1.523)     8  C 1.310    14  C 0.144     2  C 0.043

    14  C     (3.701)     8  C 1.588    21  H 0.969    20  H 0.963    13  O 0.144     2  C 0.012

    15  O     (1.776)    22  H 0.854    16  H 0.853    17  H 0.044    18  O 0.021

    16  H     (0.857)    15  O 0.853

    17  H     (0.857)    18  O 0.811    15  O 0.044

    18  O     (1.694)    19  H 0.859    17  H 0.811    15  O 0.021

    19  H     (0.861)    18  O 0.859

    20  H     (0.980)    14  C 0.963

    21  H     (0.980)    14  C 0.969

    22  H     (0.865)    15  O 0.854


 **********************
 *                    *
 * JOB ENDED NORMALLY *
 *                    *
 **********************



 TOTAL JOB TIME:             0.16 SECONDS

 == MOPAC DONE ==
