 *******************************************************************************
 **                                                                           **
 **                              MOPAC v22.1.1                                **
 **                                                                           **
 *******************************************************************************
 **          Digital Object Identifier (DOI): 10.5281/zenodo.6511958          **
 **    Visit the DOI location for information on how to cite this program.    **
 *******************************************************************************

                              PM7 CALCULATION RESULTS

 *******************************************************************************
 *  CALCULATION DONE:                                Thu Oct 31 14:59:24 2024  *
 *  PM7        - The PM7 Hamiltonian to be used
 *  SINGLET    - SPIN STATE DEFINED AS A SINGLET
 *
 *
 *
 *                 CHARGE ON SYSTEM = -1
 *
 *
 *
 *  EPS=78.4   - USE ANDREAS KLAMT'S COSMO IMPLICIT SOLVATION MODEL
 *  LET        - OVERRIDE SOME SAFETY CHECKS
 *  THREADS=1  - MULTI-THREADING NOT USED
 *  T=         - A TIME OF 14.0 DAYS REQUESTED
 *  DUMP=N     - RESTART FILE WRITTEN EVERY 30.0 MINUTES REQUESTED
 *  RELSCF     - DEFAULT SCF CRITERION MULTIPLIED BY 1.0000
 *              (DEFAULT SCF CRITERION = 0.00010)
 *  ITRY=      - DO A MAXIMUM OF 15000 ITERATIONS FOR SCF
 *  AUX        - OUTPUT AUXILIARY INFORMATION
 *  ISOTOPE    - SAVE THE FORCE MATRIX FOR USE LATER
 *  BONDS      - FINAL BOND-ORDER MATRIX TO BE PRINTED
 *  LARGE      - EXPANDED OUTPUT TO BE PRINTED
 *  THERMO     - THERMODYNAMIC QUANTITIES TO BE CALCULATED
 *******************************************************************************
PM7 AUX LARGE THERMO(298,298) LET ISOTOPE BONDS DUMP=30M ITRY=15000 T=14D CHARGE=-1 SINGLET eps=78.4 THREADS=True RELSCF=1
 Title: ASE calculation

   ATOM   CHEMICAL          X               Y               Z
  NUMBER   SYMBOL      (ANGSTROMS)     (ANGSTROMS)     (ANGSTROMS)

     1       C          1.01054286  *   0.61322029  *  -1.53843749  *
     2       C          1.16603993  *  -0.73634359  *  -1.22819643  *
     3       C          0.05221689  *  -1.56505604  *  -1.10939921  *
     4       C         -1.22426896  *  -1.03920183  *  -1.29901875  *
     5       C         -1.38410441  *   0.31104157  *  -1.60653668  *
     6       C         -0.26716776  *   1.13650350  *  -1.72616224  *
     7       H          1.88470850  *   1.25629576  *  -1.63196843  *
     8       C          2.54472371  *  -1.29873254  *  -1.02937110  *
     9       H          0.17829108  *  -2.61932966  *  -0.86664062  *
    10       H         -2.09860949  *  -1.68262868  *  -1.20623757  *
    11       H         -2.38196337  *   0.72100891  *  -1.75233537  *
    12       H         -0.39451764  *   2.19159058  *  -1.96644636  *
    13       O          3.14487852  *  -1.62854947  *  -2.08804704  *
    14       C          3.03935473  *  -1.40868319  *   0.23287393  *
    15       O          6.83152508  *  -2.22878770  *   0.52841356  *
    16       H          6.99589180  *  -2.66574966  *   1.38159704  *
    17       H          7.30895972  *  -3.40326433  *  -0.60779634  *
    18       O          7.58542540  *  -4.08970879  *  -1.24430054  *
    19       H          7.11785897  *  -4.87885903  *  -0.95481759  *
    20       H          4.01312665  *  -1.79354995  *   0.43291001  *
    21       H          2.49902687  *  -1.12318060  *   1.10129378  *
    22       T          5.84995391  *  -2.22550606  *   0.52688577  *


                                Isotopes Used

              Atom:   22  H  Default mass  1.0079,  mass used:  3.0160 amu


          CARTESIAN COORDINATES 

    NO.       ATOM           X           Y           Z

     1         C          1.0105      0.6132     -1.5384
     2         C          1.1660     -0.7363     -1.2282
     3         C          0.0522     -1.5651     -1.1094
     4         C         -1.2243     -1.0392     -1.2990
     5         C         -1.3841      0.3110     -1.6065
     6         C         -0.2672      1.1365     -1.7262
     7         H          1.8847      1.2563     -1.6320
     8         C          2.5447     -1.2987     -1.0294
     9         H          0.1783     -2.6193     -0.8666
    10         H         -2.0986     -1.6826     -1.2062
    11         H         -2.3820      0.7210     -1.7523
    12         H         -0.3945      2.1916     -1.9664
    13         O          3.1449     -1.6285     -2.0880
    14         C          3.0394     -1.4087      0.2329
    15         O          6.8315     -2.2288      0.5284
    16         H          6.9959     -2.6657      1.3816
    17         H          7.3090     -3.4033     -0.6078
    18         O          7.5854     -4.0897     -1.2443
    19         H          7.1179     -4.8789     -0.9548
    20         H          4.0131     -1.7935      0.4329
    21         H          2.4990     -1.1232      1.1013
    22         H          5.8500     -2.2255      0.5269

 General Reference for PM7:
 "Optimization of Parameters for Semiempirical Methods VI: More Modifications to the 
 NDDO Approximations and Re-optimization of Parameters", J. J. P. Stewart, J. Mol. Mod., 1:32, 19 (2013)
 https://link.springer.com/article/10.1007/s00894-012-1667-x

           Empirical Formula: C8 H11 O3  =    22 atoms



      MOLECULAR POINT GROUP   :   C1  


 SINGLET STATE CALCULATION


      RHF CALCULATION, NO. OF DOUBLY OCCUPIED LEVELS = 31

  SCF CRITERION =    0.1000E-03


          HEAT OF FORMATION =    -234.789190 KCALS/MOLE


          CARTESIAN COORDINATE DERIVATIVES

   NUMBER  ATOM         X            Y            Z

     1       C      0.001834    -0.004868    -0.042125
     2       C     -0.018792     0.174017     0.070573
     3       C     -0.103791    -0.067348    -0.033029
     4       C      0.080230     0.109485    -0.036068
     5       C     -0.005091     0.031917     0.026959
     6       C      0.009298    -0.007856    -0.001530
     7       H      0.018092    -0.058060    -0.001257
     8       C      0.065780     0.086511    -1.000119
     9       H      0.023077     0.060480     0.035900
    10       H     -0.015123     0.003641     0.009659
    11       H      0.006020     0.037117    -0.026758
    12       H      0.019829    -0.027300    -0.009694
    13       O      0.051711    -0.291333     0.704248
    14       C     -1.144389     2.492467     0.257510
    15       O     -0.318083    -9.851386     2.519870
    16       H     -1.108312     4.783278     1.669137
    17       H     -0.727029     0.502917    -1.229962
    18       O      0.607905    -0.417971     0.155986
    19       H     -0.441046     0.229831    -0.116976
    20       H      0.386173    -1.198100     0.074348
    21       H      0.082819    -0.149807     0.066784
    22       H      2.530325     3.562786    -3.090765

 DIPOLE           X         Y         Z       TOTAL
 POINT-CHG.   -10.448    11.994    -6.144    17.052
 HYBRID         0.114     0.519    -0.194     0.566
 SUM          -10.334    12.513    -6.338    17.422


          GRADIENT NORM =  13.15537



 ** GRADIENT IS VERY LARGE, BUT SINCE "LET" IS USED, CALCULATION WILL CONTINUE


                              **** WARNING ****

           GRADIENT IS VERY LARGE FOR A THERMO CALCULATION
           RESULTS ARE LIKELY TO BE INACCURATE IF THERE ARE
           ANY LOW-LYING VIBRATIONS (LESS THAN ABOUT 400CM-1)
           GRADIENT NORM SHOULD BE LESS THAN ABOUT 1.0 FOR THERMO
           TO GIVE ACCURATE RESULTS


          TIME FOR SCF CALCULATION =    0.03

          TIME FOR DERIVATIVES     =    0.02

          MOLECULAR WEIGHT =  157.18



          ROTATIONAL CONSTANTS IN CM(-1)

          A =    0.08877379   B =    0.00944979   C =    0.00927406



           PRINCIPAL MOMENTS OF INERTIA IN UNITS OF 10**(-40)*GRAM-CM**2

          A =      315.3268   B =     2962.2632   C =     3018.3911


          ORIENTATION OF MOLECULE IN FORCE CALCULATION

    NO.       ATOM         X         Y         Z

     1          C      -2.0743    1.2066    0.0135
     2          C      -0.6808    1.2066    0.0135
     3          C       0.0239    2.4086    0.0135
     4          C      -0.6700    3.6170    0.0102
     5          C      -2.0640    3.6211    0.0072
     6          C      -2.7655    2.4165    0.0089
     7          H      -2.6204    0.2641    0.0154
     8          C       0.0620   -0.0991    0.0217
     9          H       1.1131    2.4040    0.0134
    10          H      -0.1238    4.5597    0.0091
    11          H      -2.6049    4.5659    0.0025
    12          H      -3.8550    2.4221    0.0063
    13          O       0.2127   -0.6208    1.1596
    14          C       0.5047   -0.6165   -1.1558
    15          O       1.7879   -4.2882   -1.0464
    16          H       2.4194   -4.4252   -1.7733
    17          H       2.7257   -4.5830    0.3435
    18          O       3.2796   -4.7537    1.1289
    19          H       4.0562   -4.2030    0.9913
    20          H       1.0306   -1.5421   -1.2108
    21          H       0.3612   -0.1427   -2.0952
    22          H       1.6748   -3.3148   -1.1023


    FIRST DERIVATIVES WILL BE USED IN THE CALCULATION OF SECOND DERIVATIVES

          ESTIMATED TIME TO COMPLETE CALCULATION =        5.67 SECONDS

    FOR POINT-GROUP C1   THERE ARE   1 UNIQUE SYMMETRY FUNCTIONS.

 STEP:   1 TIME =     0.04 SECS, INTEGRAL =      0.04 TIME LEFT:1209599.92
 STEP:   2 TIME =     0.04 SECS, INTEGRAL =      0.07 TIME LEFT:1209599.89
 STEP:   3 TIME =     0.02 SECS, INTEGRAL =      0.09 TIME LEFT:1209599.87
 STEP:   4 TIME =     0.02 SECS, INTEGRAL =      0.11 TIME LEFT:1209599.85
 STEP:   5 TIME =     0.02 SECS, INTEGRAL =      0.12 TIME LEFT:1209599.84
 STEP:   6 TIME =     0.02 SECS, INTEGRAL =      0.14 TIME LEFT:1209599.82
 STEP:   7 TIME =     0.02 SECS, INTEGRAL =      0.16 TIME LEFT:1209599.80
 STEP:   8 TIME =     0.02 SECS, INTEGRAL =      0.18 TIME LEFT:1209599.78
 STEP:   9 TIME =     0.02 SECS, INTEGRAL =      0.20 TIME LEFT:1209599.76
 STEP:  10 TIME =     0.02 SECS, INTEGRAL =      0.21 TIME LEFT:1209599.74
 STEP:  11 TIME =     0.02 SECS, INTEGRAL =      0.23 TIME LEFT:1209599.72
 STEP:  12 TIME =     0.02 SECS, INTEGRAL =      0.25 TIME LEFT:1209599.70
 STEP:  13 TIME =     0.02 SECS, INTEGRAL =      0.27 TIME LEFT:1209599.68
 STEP:  14 TIME =     0.02 SECS, INTEGRAL =      0.29 TIME LEFT:1209599.66
 STEP:  15 TIME =     0.02 SECS, INTEGRAL =      0.31 TIME LEFT:1209599.65
 STEP:  16 TIME =     0.02 SECS, INTEGRAL =      0.33 TIME LEFT:1209599.63
 STEP:  17 TIME =     0.02 SECS, INTEGRAL =      0.34 TIME LEFT:1209599.61
 STEP:  18 TIME =     0.02 SECS, INTEGRAL =      0.36 TIME LEFT:1209599.59
 STEP:  19 TIME =     0.02 SECS, INTEGRAL =      0.38 TIME LEFT:1209599.57
 STEP:  20 TIME =     0.02 SECS, INTEGRAL =      0.40 TIME LEFT:1209599.55
 STEP:  21 TIME =     0.02 SECS, INTEGRAL =      0.42 TIME LEFT:1209599.54
 STEP:  22 TIME =     0.02 SECS, INTEGRAL =      0.44 TIME LEFT:1209599.52
 STEP:  23 TIME =     0.02 SECS, INTEGRAL =      0.46 TIME LEFT:1209599.50
 STEP:  24 TIME =     0.02 SECS, INTEGRAL =      0.48 TIME LEFT:1209599.48
 STEP:  25 TIME =     0.02 SECS, INTEGRAL =      0.50 TIME LEFT:1209599.46
 STEP:  26 TIME =     0.02 SECS, INTEGRAL =      0.52 TIME LEFT:1209599.44
 STEP:  27 TIME =     0.02 SECS, INTEGRAL =      0.54 TIME LEFT:1209599.42
 STEP:  28 TIME =     0.02 SECS, INTEGRAL =      0.55 TIME LEFT:1209599.40
 STEP:  29 TIME =     0.02 SECS, INTEGRAL =      0.57 TIME LEFT:1209599.38
 STEP:  30 TIME =     0.02 SECS, INTEGRAL =      0.59 TIME LEFT:1209599.36
 STEP:  31 TIME =     0.02 SECS, INTEGRAL =      0.61 TIME LEFT:1209599.34
 STEP:  32 TIME =     0.02 SECS, INTEGRAL =      0.63 TIME LEFT:1209599.32
 STEP:  33 TIME =     0.02 SECS, INTEGRAL =      0.65 TIME LEFT:1209599.30
 STEP:  34 TIME =     0.02 SECS, INTEGRAL =      0.67 TIME LEFT:1209599.29
 STEP:  35 TIME =     0.02 SECS, INTEGRAL =      0.69 TIME LEFT:1209599.27
 STEP:  36 TIME =     0.02 SECS, INTEGRAL =      0.71 TIME LEFT:1209599.25
 STEP:  37 TIME =     0.02 SECS, INTEGRAL =      0.73 TIME LEFT:1209599.23
 STEP:  38 TIME =     0.02 SECS, INTEGRAL =      0.75 TIME LEFT:1209599.21
 STEP:  39 TIME =     0.02 SECS, INTEGRAL =      0.77 TIME LEFT:1209599.19
 STEP:  40 TIME =     0.02 SECS, INTEGRAL =      0.79 TIME LEFT:1209599.17
 STEP:  41 TIME =     0.02 SECS, INTEGRAL =      0.80 TIME LEFT:1209599.15
 STEP:  42 TIME =     0.02 SECS, INTEGRAL =      0.82 TIME LEFT:1209599.13
 STEP:  43 TIME =     0.02 SECS, INTEGRAL =      0.84 TIME LEFT:1209599.11
 STEP:  44 TIME =     0.02 SECS, INTEGRAL =      0.86 TIME LEFT:1209599.09
 STEP:  45 TIME =     0.02 SECS, INTEGRAL =      0.88 TIME LEFT:1209599.08
 STEP:  46 TIME =     0.02 SECS, INTEGRAL =      0.90 TIME LEFT:1209599.06
 STEP:  47 TIME =     0.02 SECS, INTEGRAL =      0.92 TIME LEFT:1209599.04
 STEP:  48 TIME =     0.02 SECS, INTEGRAL =      0.94 TIME LEFT:1209599.02
 STEP:  49 TIME =     0.02 SECS, INTEGRAL =      0.96 TIME LEFT:1209599.00
 STEP:  50 TIME =     0.02 SECS, INTEGRAL =      0.98 TIME LEFT:1209598.98
 STEP:  51 TIME =     0.02 SECS, INTEGRAL =      1.00 TIME LEFT:1209598.96
 STEP:  52 TIME =     0.02 SECS, INTEGRAL =      1.02 TIME LEFT:1209598.94
 STEP:  53 TIME =     0.02 SECS, INTEGRAL =      1.04 TIME LEFT:1209598.92
 STEP:  54 TIME =     0.02 SECS, INTEGRAL =      1.05 TIME LEFT:1209598.91
 STEP:  55 TIME =     0.02 SECS, INTEGRAL =      1.07 TIME LEFT:1209598.89
 STEP:  56 TIME =     0.02 SECS, INTEGRAL =      1.09 TIME LEFT:1209598.87
 STEP:  57 TIME =     0.02 SECS, INTEGRAL =      1.11 TIME LEFT:1209598.85
 STEP:  58 TIME =     0.02 SECS, INTEGRAL =      1.12 TIME LEFT:1209598.83
 STEP:  59 TIME =     0.02 SECS, INTEGRAL =      1.14 TIME LEFT:1209598.81
 STEP:  60 TIME =     0.02 SECS, INTEGRAL =      1.16 TIME LEFT:1209598.79
 STEP:  61 TIME =     0.02 SECS, INTEGRAL =      1.18 TIME LEFT:1209598.77
 STEP:  62 TIME =     0.02 SECS, INTEGRAL =      1.20 TIME LEFT:1209598.75
 STEP:  63 TIME =     0.02 SECS, INTEGRAL =      1.22 TIME LEFT:1209598.74
 STEP:  64 TIME =     0.02 SECS, INTEGRAL =      1.24 TIME LEFT:1209598.72
 STEP:  65 TIME =     0.02 SECS, INTEGRAL =      1.26 TIME LEFT:1209598.70
 STEP:  66 TIME =     0.02 SECS, INTEGRAL =      1.28 TIME LEFT:1209598.68

(To convert to Hartree/Bohr^2, multiply by (10^(-21) x N x a0^2)/(4.184 x 627.51) =  0.0642)


           FORCE MATRIX IN MILLIDYNES/ANGSTROM


                  C  1       C  2       C  3       C  4       C  5       C  6
 ------------------------------------------------------------------------------
     C    1  15.342366
     C    2   6.191721  16.124374
     C    3   1.910348   6.231955  15.379139
     C    4   1.233473   1.957872   6.260554  15.484358
     C    5   1.932997   1.178115   1.914437   6.296577  15.500952
     C    6   6.289848   1.930040   1.168547   1.902965   6.325968  15.542039
     H    7   3.415892   0.752211   0.090395   0.009878   0.090305   0.751977
     C    8   0.705633   3.330571   0.705693   0.089898   0.030402   0.091989
     H    9   0.087266   0.749635   3.422607   0.757513   0.090124   0.010538
     H   10   0.010585   0.084549   0.752372   3.422468   0.753548   0.083302
     H   11   0.082197   0.008472   0.085654   0.752148   3.426938   0.749794
     H   12   0.758286   0.084654   0.009758   0.085254   0.753249   3.417184
     O   13   0.045500   1.381707   0.048009   0.024118   0.013884   0.024468
     C   14   0.052498   0.796153   0.046682   0.013271   0.012222   0.018421
     O   15   0.001665   0.004944   0.001327   0.001062   0.001646   0.001190
     H   16   0.000471   0.002220   0.000417   0.000663   0.000683   0.000525
     H   17   0.000636   0.002324   0.000453   0.000728   0.000740   0.000612
     O   18   0.000949   0.002488   0.000825   0.000994   0.000929   0.000975
     H   19   0.000613   0.000350   0.000453   0.000502   0.000326   0.000445
     H   20   0.011384   0.093510   0.010960   0.002575   0.000798   0.002679
     H   21   0.018740   0.041074   0.009170   0.001939   0.003774   0.005135
     H   22   0.001177   0.005000   0.001152   0.000950   0.001165   0.001249


                  H  7       C  8       H  9       H 10       H 11       H 12
 ------------------------------------------------------------------------------
     H    7   4.330607
     C    8   0.065733  17.715848
     H    9   0.008992   0.066079   4.327364
     H   10   0.010375   0.016800   0.028959   4.341285
     H   11   0.008036   0.022407   0.009067   0.028932   4.338081
     H   12   0.028713   0.013463   0.010422   0.006822   0.033565   4.330151
     O   13   0.017267   8.449577   0.018625   0.006283   0.009209   0.006260
     C   14   0.022967   7.970115   0.020212   0.006045   0.007703   0.008182
     O   15   0.000842   0.016859   0.000998   0.001144   0.001209   0.001081
     H   16   0.000583   0.006427   0.000429   0.000522   0.000458   0.000439
     H   17   0.000661   0.004584   0.000565   0.000549   0.000480   0.000442
     O   18   0.000977   0.009061   0.000999   0.000655   0.000555   0.000633
     H   19   0.000535   0.002905   0.000701   0.000279   0.000175   0.000247
     H   20   0.003344   0.862122   0.002086   0.000637   0.000529   0.001081
     H   21   0.009034   0.930707   0.004819   0.001845   0.002583   0.002395
     H   22   0.000994   0.039317   0.000875   0.000647   0.000902   0.000684


                  O 13       C 14       O 15       H 16       H 17       O 18
 ------------------------------------------------------------------------------
     O   13  10.692651
     C   14   1.949324  14.166041
     O   15   0.007631   0.062749   7.085517
     H   16   0.005055   0.026059   3.885476   4.359683
     H   17   0.004370   0.009427   0.242583   0.187950   3.853107
     O   18   0.005349   0.007343   3.052795   0.261993   3.610933   8.359230
     H   19   0.002495   0.005277   0.076153   0.207352   0.758565   3.931541
     H   20   0.118373   3.563027   0.038133   0.022752   0.011309   0.010121
     H   21   0.171822   3.570287   0.013209   0.001796   0.001552   0.001834
     H   22   0.022257   0.059991   3.784993   0.811101   0.124669   0.050663


                  H 19       H 20       H 21       H 22
 ------------------------------------------------------
     H   19   4.369046
     H   20   0.005627   4.337268
     H   21   0.000714   0.476616   4.405300
     H   22   0.012934   0.059339   0.018798   4.189953


          HEAT OF FORMATION =    -234.789190 KCALS/MOLE


          TRIVIAL VIBRATIONS, SHOULD BE ZERO

   7.5589=TX  31.1565=TY -31.0299=TZ -16.7094=RX  44.6307=RY -35.6073=RZ


      MOLECULAR POINT GROUP   :   C1  


           EIGENVECTORS  


   Root No.       1         2         3         4         5         6         7         8

                 1 A       2 A       3 A       4 A       5 A       6 A       7 A       8 A   

                  -0.4      -0.0      -0.0      -0.0      -0.0      -0.0       0.0       0.0
  
           1   -0.0037    0.0035    0.0512   -0.0694   -0.0417    0.0482    0.0907    0.0284
           2    0.0054    0.0197   -0.0323    0.0837    0.0229    0.0222   -0.0676   -0.0508
           3    0.0100   -0.0162   -0.0176   -0.0322    0.1406    0.0252    0.0209    0.0196
           4   -0.0037    0.0021    0.0498   -0.0690   -0.0421    0.0489    0.0906    0.0284
           5    0.0036    0.0404   -0.0108    0.0204   -0.0022    0.1073    0.0069   -0.0732
           6    0.0080    0.0517    0.0249    0.0136   -0.0220    0.0316   -0.0154    0.0372
           7   -0.0022   -0.0098    0.0329   -0.0137   -0.0193   -0.0246    0.0257    0.0482
           8    0.0027    0.0473   -0.0000   -0.0126   -0.0151    0.1491    0.0452   -0.0851
           9   -0.0057    0.1036    0.0589    0.0608   -0.1597   -0.0288   -0.0014    0.0201
          10   -0.0006   -0.0220    0.0178    0.0415    0.0023   -0.0995   -0.0402    0.0682
          11    0.0035    0.0392   -0.0094    0.0197   -0.0030    0.1062    0.0075   -0.0738
          12   -0.0172    0.0629    0.0325    0.0475   -0.0832   -0.0725    0.0416   -0.0113
          13   -0.0006   -0.0220    0.0178    0.0425    0.0015   -0.1001   -0.0410    0.0684
          14    0.0054    0.0210   -0.0302    0.0833    0.0219    0.0214   -0.0674   -0.0510
          15   -0.0154   -0.0019   -0.0095    0.0076    0.0636   -0.0670    0.0653   -0.0224
          16   -0.0022   -0.0089    0.0352   -0.0133   -0.0206   -0.0266    0.0245    0.0485
          17    0.0063    0.0128   -0.0404    0.1148    0.0351   -0.0211   -0.1049   -0.0394
          18   -0.0020   -0.0335   -0.0290   -0.0260    0.1560   -0.0257    0.0540   -0.0077
          19   -0.0053    0.0134    0.0609   -0.1108   -0.0578    0.1068    0.1409    0.0129
          20    0.0064    0.0134   -0.0383    0.1075    0.0320   -0.0118   -0.0967   -0.0415
          21    0.0211   -0.0624   -0.0444   -0.0743    0.2544    0.0663    0.0208    0.0295
          22   -0.0050    0.0467    0.1005   -0.1253   -0.0662    0.1031    0.1485    0.0106
          23    0.0028    0.0636    0.0157   -0.0105   -0.0156    0.1398    0.0387   -0.0830
          24    0.0237   -0.0102   -0.0104    0.0176   -0.0699    0.1575   -0.0994    0.0886
          25   -0.0021   -0.0095    0.0333   -0.0140   -0.0195   -0.0244    0.0260    0.0480
          26    0.0017    0.0552    0.0133   -0.0617   -0.0370    0.2158    0.1042   -0.1027
          27   -0.0067    0.1554    0.0963    0.0998   -0.3074   -0.0312   -0.0267    0.0324
          28    0.0004   -0.0307    0.0064    0.0849    0.0185   -0.1569   -0.0910    0.0835
          29    0.0030    0.0439   -0.0027   -0.0056   -0.0126    0.1395    0.0370   -0.0828
          30   -0.0262    0.0764    0.0422    0.0654   -0.1366   -0.0983    0.0500   -0.0233
          31    0.0006   -0.0316    0.0053    0.0851    0.0188   -0.1570   -0.0918    0.0837
          32    0.0061    0.0150   -0.0373    0.1075    0.0320   -0.0112   -0.0964   -0.0425
          33   -0.0234   -0.0271   -0.0253    0.0018    0.0973   -0.0873    0.0870   -0.0388
          34   -0.0021   -0.0085    0.0352   -0.0129   -0.0208   -0.0268    0.0242    0.0486
          35    0.0078    0.0003   -0.0550    0.1650    0.0526   -0.0892   -0.1644   -0.0200
          36   -0.0004   -0.0749   -0.0561   -0.0468    0.2392   -0.0249    0.0659   -0.0174
          37   -0.0034    0.3142    0.4186   -0.1648   -0.1406    0.1044    0.1621    0.0297
          38    0.0192    0.1319    0.1462   -0.0218   -0.1025    0.2647   -0.0420   -0.0191
          39    0.0310   -0.0169    0.0054    0.0187   -0.0999    0.2158   -0.1377    0.1140
          40   -0.0061   -0.1710   -0.1496   -0.1159   -0.0162    0.1186    0.1579   -0.0200
          41   -0.0135    0.0626   -0.0613   -0.0185    0.0642    0.0117    0.1343   -0.1509
          42    0.0301   -0.0891   -0.0707    0.0252   -0.0857    0.2204   -0.1380    0.1064
          43    0.0281    0.0452    0.0920    0.1744    0.2290    0.0297   -0.1402   -0.0196
          44   -0.0274   -0.0468    0.0105   -0.3722   -0.0129   -0.1728   -0.1846    0.1452
          45   -0.0404    0.0264   -0.0806   -0.0867   -0.1529   -0.1901    0.0401   -0.1737
          46   -0.1590   -0.1083    0.3334    0.2817    0.3946    0.1565   -0.2011   -0.0248
          47    0.1414   -0.4264    0.4204   -0.1125    0.0470   -0.1557   -0.1586   -0.0710
          48   -0.2341   -0.0292    0.0459   -0.0457   -0.0182   -0.0833   -0.0184   -0.1287
          49    0.3748    0.0516   -0.0756    0.1543   -0.0553   -0.0950   -0.0401   -0.1290
          50   -0.3013   -0.1176    0.0429   -0.1979   -0.0566   -0.1244   -0.0479    0.3041
          51   -0.3984    0.0039    0.0468   -0.0198    0.0349   -0.0929    0.0183   -0.0630
          52   -0.2526   -0.0288   -0.0909    0.1891   -0.2004   -0.1067   -0.0943   -0.2259
          53    0.4562   -0.0528   -0.0727    0.1315   -0.1529   -0.1554    0.1156    0.3435
          54    0.2376    0.0759    0.0285    0.0219    0.1131   -0.0926    0.0826    0.0114
          55    0.1408   -0.0191   -0.0891   -0.0202   -0.2000   -0.1023   -0.2527   -0.2433
          56   -0.2587   -0.0554   -0.0460    0.4284   -0.0835   -0.1490    0.3789    0.4063
          57    0.2610    0.1189    0.1191   -0.1009    0.3464   -0.0748    0.1906    0.1129
          58   -0.0082   -0.1457   -0.0981   -0.1483   -0.0280    0.1151    0.2106   -0.0519
          59   -0.0140    0.0842   -0.0262   -0.0338    0.0604    0.0024    0.1694   -0.1743
          60    0.0406   -0.1877   -0.1162    0.0377   -0.1308    0.3369   -0.2055    0.1445
          61   -0.0065   -0.3974   -0.3981   -0.0737    0.0426    0.1155    0.1465   -0.0480
          62   -0.0245    0.0406   -0.1396   -0.0072    0.1385   -0.1067    0.1994   -0.2052
          63    0.0239   -0.0644   -0.0719    0.0244   -0.0570    0.1612   -0.1031    0.0832
          64   -0.0814    0.5367   -0.3887   -0.1021    0.2213   -0.0271   -0.2558    0.1555
          65   -0.0321    0.0079   -0.0469   -0.4076   -0.0128   -0.1828   -0.2061    0.1671
          66    0.0830   -0.0616    0.0312   -0.0097   -0.1221   -0.2456    0.0085   -0.3134


   Root No.       9        10        11        12        13        14        15        16

                 9 A      10 A      11 A      12 A      13 A      14 A      15 A      16 A   

                   0.0       0.0       0.1       0.1       0.2       0.2       0.2       0.3
  
           1    0.0096   -0.0064   -0.1625    0.0471   -0.0360   -0.0330    0.0039   -0.1323
           2    0.0320    0.0160    0.0050    0.0257    0.0337    0.0339   -0.0096   -0.0258
           3   -0.1816   -0.0662   -0.0355    0.0048   -0.0280    0.1406    0.0000    0.0019
           4    0.0099   -0.0064   -0.1693    0.0503   -0.0307   -0.0321    0.0039   -0.1334
           5    0.0469    0.0157   -0.0888    0.0465    0.0115    0.0119   -0.0068   -0.0735
           6   -0.2292   -0.0730   -0.0200    0.0130   -0.0814   -0.0783   -0.0167    0.0017
           7   -0.0074   -0.0071   -0.0827    0.0281   -0.0346   -0.0322    0.0014   -0.0912
           8    0.0577    0.0162   -0.1323    0.0564    0.0136    0.0158   -0.0054   -0.0972
           9   -0.1596   -0.0194   -0.0440    0.0401    0.1476   -0.0140    0.0004   -0.0057
          10   -0.0241   -0.0077    0.0232   -0.0020   -0.0259   -0.0189   -0.0007   -0.0158
          11    0.0490    0.0162   -0.0798    0.0433    0.0222    0.0241   -0.0066   -0.0656
          12    0.0887    0.0772   -0.0117    0.0080   -0.0720    0.1502    0.0084   -0.0057
          13   -0.0248   -0.0078    0.0229   -0.0014   -0.0222   -0.0189   -0.0006   -0.0159
          14    0.0333    0.0165    0.0190    0.0195    0.0374    0.0386   -0.0093   -0.0069
          15    0.2080    0.1098    0.0207   -0.0232   -0.0644   -0.0880    0.0096   -0.0057
          16   -0.0076   -0.0071   -0.0632    0.0201   -0.0279   -0.0235    0.0017   -0.0674
          17    0.0238    0.0161    0.0697    0.0065    0.0385    0.0423   -0.0107    0.0230
          18    0.0411    0.0298   -0.0064   -0.0108    0.1518   -0.0640    0.0164    0.0033
          19    0.0189   -0.0068   -0.2512    0.0733   -0.0595   -0.0557    0.0042   -0.2299
          20    0.0263    0.0160    0.0577    0.0100    0.0467    0.0481   -0.0099    0.0275
          21   -0.3113   -0.1372   -0.0703    0.0120   -0.0917    0.5711    0.0051   -0.0018
          22    0.0130   -0.0091   -0.0196   -0.0334   -0.0059   -0.0030    0.0115    0.1046
          23    0.0505    0.0140   -0.0040   -0.0019    0.0218    0.0246   -0.0036    0.0635
          24   -0.1320   -0.0816    0.0381   -0.0055   -0.1761   -0.1711   -0.0304    0.0021
          25   -0.0074   -0.0071   -0.0826    0.0280   -0.0353   -0.0327    0.0014   -0.0936
          26    0.0735    0.0171   -0.2406    0.0915    0.0213    0.0108   -0.0035   -0.2080
          27   -0.2627   -0.0486   -0.0889    0.0859    0.5557   -0.0452    0.0131   -0.0121
          28   -0.0368   -0.0081    0.1034   -0.0246   -0.0154   -0.0132   -0.0024    0.0492
          29    0.0567    0.0164   -0.1274    0.0571    0.0169    0.0215   -0.0058   -0.1072
          30    0.1868    0.1206   -0.0121    0.0080   -0.2337    0.4980    0.0149   -0.0031
          31   -0.0384   -0.0087    0.0983   -0.0219   -0.0165   -0.0105   -0.0023    0.0359
          32    0.0268    0.0163    0.0623    0.0078    0.0417    0.0446   -0.0103    0.0231
          33    0.4085    0.1859    0.0619   -0.0534   -0.2121   -0.2793    0.0045   -0.0157
          34   -0.0082   -0.0072   -0.0639    0.0205   -0.0302   -0.0245    0.0015   -0.0711
          35    0.0087    0.0155    0.1644   -0.0201    0.0523    0.0545   -0.0120    0.0993
          36    0.0943    0.0430    0.0009   -0.0143    0.5108   -0.1918    0.0374    0.0154
          37    0.0157   -0.0227    0.1682   -0.1333    0.0121    0.0409    0.0151    0.4881
          38    0.2202    0.0226    0.1291   -0.0579    0.0258    0.0461   -0.0014    0.2466
          39   -0.0496   -0.0741    0.0746   -0.0178   -0.1701   -0.1612   -0.0302    0.0338
          40    0.0172    0.0029    0.1040   -0.0786    0.0671    0.0427    0.0142    0.0583
          41   -0.1692   -0.0050    0.0578   -0.0375   -0.0599   -0.0710   -0.0013    0.0407
          42   -0.0337   -0.0678    0.0599   -0.0079   -0.1177   -0.1169   -0.0304   -0.0088
          43    0.0178   -0.0054   -0.0316   -0.0270    0.0209    0.0009   -0.1498   -0.0016
          44    0.0352   -0.1300    0.0376    0.1137   -0.0099   -0.0123    0.2257   -0.0012
          45    0.0493   -0.0003    0.0259    0.0831   -0.0210    0.0003    0.1390    0.0058
          46   -0.0657    0.1456   -0.0635   -0.0917    0.0144   -0.0151    0.2413   -0.0157
          47    0.0393   -0.2663   -0.0870   -0.1331    0.0047   -0.0192   -0.0854   -0.0007
          48   -0.0237    0.1617    0.0265    0.0850   -0.0296   -0.0119    0.5595   -0.0063
          49    0.0391   -0.0579    0.1247    0.3135   -0.0223    0.0043    0.0600    0.0011
          50   -0.1240    0.4131    0.0343    0.0977    0.0158    0.0170   -0.4829   -0.0003
          51   -0.0037    0.1669   -0.0679   -0.1260    0.0123    0.0038   -0.1630    0.0052
          52    0.0385   -0.1362    0.0917    0.2294   -0.0286    0.0104   -0.0863    0.0078
          53   -0.0939    0.3221   -0.1283   -0.2925   -0.0140    0.0079    0.1358   -0.0041
          54    0.0065    0.1906   -0.0861   -0.1615    0.0107   -0.0023    0.0760   -0.0001
          55   -0.0948    0.2998    0.0265    0.0899   -0.0201    0.0156   -0.0930    0.0025
          56    0.1190   -0.3443    0.0198    0.0340   -0.0207   -0.0008    0.0870    0.0030
          57    0.1181   -0.0744    0.1911    0.4906    0.0312   -0.0065   -0.2629    0.0005
          58   -0.0371   -0.0045    0.5482   -0.2638    0.1271    0.0984    0.0183   -0.3533
          59   -0.2167   -0.0123    0.3074   -0.1453   -0.0513   -0.0648   -0.0036   -0.1913
          60    0.1742   -0.0382    0.0869   -0.0142    0.0738    0.0760   -0.0288   -0.0223
          61    0.0608    0.0246   -0.1964    0.0533    0.1297    0.0889    0.0106    0.4928
          62   -0.3514   -0.0237   -0.0891    0.0175   -0.2444   -0.2648   -0.0110    0.2576
          63   -0.1291   -0.0793    0.0293    0.0002   -0.2126   -0.2144   -0.0341    0.0356
          64    0.1120   -0.1570   -0.1246   -0.2755    0.0399    0.0112   -0.0539   -0.0193
          65    0.0564   -0.1680    0.0134    0.0610   -0.0037   -0.0088    0.2307   -0.0025
          66    0.1407   -0.3252   -0.1729   -0.3962    0.0166    0.0050   -0.2879   -0.0182


   Root No.      17        18        19        20        21        22        23        24

                17 A      18 A      19 A      20 A      21 A      22 A      23 A      24 A   

                   0.3       0.3       0.5       0.7       0.9       0.9       0.9       1.0
  
           1   -0.0140   -0.0004   -0.0079   -0.0577    0.0216    0.0183   -0.0128   -0.0974
           2    0.0229    0.0005   -0.0549   -0.0726    0.0143    0.0492   -0.0320   -0.0215
           3    0.0601    0.0039   -0.2083    0.0698   -0.1356   -0.0064   -0.0687   -0.0034
           4   -0.0118   -0.0004   -0.0196   -0.0786    0.0130    0.0088    0.0141   -0.0647
           5   -0.0008    0.0001    0.0337    0.1350   -0.0188   -0.0009   -0.0269   -0.0357
           6    0.0399   -0.0005   -0.3641    0.0509    0.0184    0.0081    0.0305   -0.0045
           7   -0.0241   -0.0012    0.0511    0.0886   -0.0083    0.0615    0.0045   -0.0636
           8    0.0096    0.0007   -0.0215    0.0119   -0.0063   -0.0089    0.0024   -0.0728
           9    0.0562    0.0017   -0.2173    0.0762   -0.1612   -0.0057   -0.0814   -0.0021
          10   -0.0178   -0.0016    0.0504    0.0923   -0.0115   -0.0170    0.0153   -0.1101
          11    0.0139    0.0006   -0.0324   -0.0080   -0.0120   -0.0762    0.0229   -0.1343
          12   -0.0821   -0.0026   -0.1596    0.0747   -0.2457   -0.0152   -0.1405    0.0019
          13   -0.0177   -0.0016    0.0444    0.0776   -0.0172   -0.0333    0.0357   -0.0816
          14    0.0304    0.0007   -0.0785   -0.1361    0.0296   -0.0316   -0.0409   -0.0510
          15    0.1051    0.0043   -0.1388    0.0747   -0.2675   -0.0192   -0.1517    0.0017
          16   -0.0112   -0.0009    0.0015   -0.0408    0.0146   -0.0784    0.0114   -0.1727
          17    0.0274    0.0003   -0.0592   -0.0844    0.0119    0.0209   -0.0153   -0.0309
          18   -0.0850   -0.0003   -0.1518    0.0749   -0.2270   -0.0167   -0.1286   -0.0007
          19   -0.0384   -0.0007    0.0909    0.2567   -0.1248   -0.0123    0.1941    0.3678
          20    0.0380    0.0008   -0.1137   -0.2675    0.1014    0.0726   -0.1550   -0.3131
          21    0.3082    0.0167    0.2976   -0.0486    0.0467    0.0007    0.0214    0.0045
          22    0.0046   -0.0003   -0.0345   -0.1256   -0.0052   -0.0024    0.0457   -0.0570
          23    0.0022   -0.0010    0.0564    0.2316    0.0185   -0.0239   -0.0624   -0.0294
          24   -0.0704   -0.0028   -0.0201   -0.0952    0.0362    0.0097    0.0539   -0.0068
          25   -0.0251   -0.0012    0.0541    0.0965   -0.0064    0.0667    0.0035   -0.0776
          26    0.0257    0.0022   -0.1384   -0.3580    0.1454   -0.1891   -0.1679    0.4992
          27    0.2871    0.0125    0.3160   -0.0501    0.0605    0.0038    0.0317   -0.0024
          28   -0.0089   -0.0021    0.0535    0.0328    0.1548   -0.5676   -0.3710    0.1224
          29    0.0096    0.0009   -0.0368    0.0265   -0.1081    0.2303    0.2483   -0.3046
          30   -0.4423   -0.0141    0.1386   -0.0821    0.2150    0.0096    0.1172    0.0022
          31   -0.0152   -0.0021    0.0457    0.0862    0.0224    0.5894   -0.1106    0.3854
          32    0.0357    0.0005   -0.0858   -0.1531    0.0589    0.3256   -0.1264    0.2151
          33    0.5384    0.0188    0.2048   -0.0677    0.2175    0.0176    0.1256   -0.0010
          34   -0.0112   -0.0009    0.0019   -0.0407    0.0124   -0.0904    0.0178   -0.2041
          35    0.0321   -0.0002   -0.0644   -0.0065   -0.2681   -0.3001    0.6724    0.2470
          36   -0.4716   -0.0102    0.1413   -0.0742    0.2003    0.0132    0.1097    0.0006
          37    0.0572   -0.0093   -0.2399   -0.0898    0.1938    0.0311    0.1430    0.0443
          38   -0.0614   -0.0022    0.4290    0.1625   -0.3444   -0.0297   -0.2602    0.0216
          39   -0.1034   -0.0022    0.1651   -0.1268   -0.1564    0.0019   -0.0500    0.0040
          40    0.0168    0.0064    0.0015   -0.1264   -0.0580   -0.0012    0.0242   -0.0427
          41   -0.0181    0.0015   -0.0184    0.2574    0.1507   -0.0212   -0.0217   -0.0208
          42   -0.0634   -0.0011    0.0366   -0.0950   -0.0356    0.0071    0.0237   -0.0047
          43   -0.0111    0.3718   -0.0028   -0.0048   -0.0047    0.0003    0.0007    0.0005
          44   -0.0053    0.1788   -0.0043    0.0018   -0.0008    0.0003   -0.0006    0.0010
          45   -0.0030    0.1199    0.0015    0.0044    0.0057   -0.0002    0.0007   -0.0003
          46    0.0095   -0.2291   -0.0010   -0.0060   -0.0050   -0.0001    0.0008   -0.0005
          47   -0.0068    0.0557    0.0011    0.0116    0.0052   -0.0016   -0.0027   -0.0018
          48    0.0155   -0.3713    0.0015    0.0008    0.0040   -0.0001    0.0013   -0.0006
          49    0.0047   -0.0760    0.0005    0.0002    0.0010    0.0001    0.0005   -0.0003
          50    0.0062   -0.3104    0.0073   -0.0007   -0.0025    0.0002   -0.0017   -0.0004
          51   -0.0154    0.4374    0.0012    0.0009    0.0026   -0.0000    0.0010    0.0004
          52   -0.0025    0.1028    0.0013    0.0018    0.0026   -0.0000   -0.0001   -0.0008
          53    0.0014   -0.0294    0.0014   -0.0018    0.0027    0.0008    0.0009   -0.0001
          54   -0.0100    0.3323   -0.0005    0.0002    0.0028    0.0001    0.0017    0.0006
          55    0.0014    0.0116    0.0017    0.0010    0.0026   -0.0000    0.0003   -0.0007
          56   -0.0018    0.0135    0.0018   -0.0013    0.0013    0.0008    0.0002   -0.0002
          57    0.0029   -0.1486    0.0029    0.0022    0.0008   -0.0007    0.0003   -0.0005
          58    0.0284    0.0121   -0.0092   -0.1617   -0.1105    0.0162    0.0085    0.0153
          59   -0.0299    0.0032    0.0154    0.2249    0.0992   -0.0129   -0.0430    0.0113
          60    0.0462   -0.0059   -0.1755    0.4517    0.4632   -0.0240    0.0431    0.0075
          61    0.0763   -0.0123   -0.0805   -0.0011   -0.0880    0.0110   -0.0260    0.0383
          62   -0.1300   -0.0092    0.1679    0.0274    0.1225   -0.0051    0.0094    0.0203
          63   -0.1225   -0.0044    0.1191   -0.2322   -0.0354    0.0159    0.0599    0.0036
          64    0.0102   -0.1642   -0.0032   -0.0006    0.0007   -0.0006    0.0002   -0.0001
          65   -0.0008    0.0925   -0.0058   -0.0005   -0.0008    0.0004    0.0002    0.0011
          66    0.0094   -0.3834    0.0096   -0.0092   -0.0094    0.0005   -0.0008   -0.0001


   Root No.      25        26        27        28        29        30        31        32

                25 A      26 A      27 A      28 A      29 A      30 A      31 A      32 A   

                   1.2       1.4       1.4       1.5       1.5       1.6       2.0       2.0
  
           1    0.0275    0.0335    0.0911    0.0287    0.0005   -0.0021    0.0909    0.0128
           2    0.1624    0.0099    0.2872    0.0791   -0.0032   -0.0010   -0.0336   -0.0074
           3    0.0086   -0.1027    0.0046   -0.0409   -0.4315   -0.0014   -0.2590    0.0677
           4   -0.0098    0.0273    0.1058    0.0527   -0.0014    0.0002    0.0597    0.0083
           5    0.0136   -0.0640    0.0600    0.0186   -0.0001    0.0050   -0.1171   -0.0167
           6    0.0668   -0.3046   -0.0140    0.0032    0.0020   -0.0026   -0.1939    0.0449
           7   -0.1601   -0.0600    0.2879    0.0776   -0.0017    0.0000   -0.0067   -0.0006
           8    0.0572   -0.0150   -0.0646   -0.0256    0.0013    0.0030   -0.0984   -0.0174
           9    0.0038   -0.0912   -0.0124    0.0467    0.4662   -0.0026   -0.2426    0.0639
          10   -0.1114   -0.0404   -0.0407   -0.0768    0.0052   -0.0046   -0.0852   -0.0151
          11    0.1079    0.0055   -0.2307   -0.1347    0.0090   -0.0027   -0.1467   -0.0256
          12   -0.0552    0.1770   -0.0020    0.0388    0.3967    0.0003    0.1031   -0.0264
          13   -0.1456   -0.0376   -0.0702   -0.0835    0.0071   -0.0049   -0.0609   -0.0094
          14    0.2557    0.0759   -0.0348   -0.0415    0.0044   -0.0054    0.1149    0.0196
          15   -0.0688    0.2780    0.0120    0.0002   -0.0444    0.0024    0.3083   -0.0782
          16   -0.0357    0.0433   -0.2223   -0.1415    0.0115   -0.0100    0.1753    0.0319
          17    0.1492    0.0281    0.0877    0.0029    0.0006   -0.0030    0.0143    0.0013
          18   -0.0479    0.1541    0.0155   -0.0392   -0.4309    0.0013    0.0476   -0.0108
          19    0.5122    0.0718    0.1669   -0.0077    0.0060   -0.0090    0.0202    0.0006
          20   -0.0758   -0.0013    0.3517    0.1395   -0.0046    0.0026    0.0215    0.0001
          21   -0.0149    0.0733   -0.0017    0.0225    0.2410    0.0012    0.1004   -0.0246
          22    0.0147    0.0620   -0.1563    0.3723   -0.0385    0.0394   -0.0060   -0.0098
          23   -0.0314   -0.0658   -0.0877    0.1931   -0.0226    0.0282   -0.0589   -0.0179
          24    0.0442   -0.1597   -0.0297    0.0419   -0.0090    0.0027    0.1928   -0.0410
          25   -0.2031   -0.0776    0.3832    0.1054   -0.0025    0.0005   -0.0110   -0.0020
          26   -0.4598   -0.0526   -0.0477   -0.0805    0.0049   -0.0072    0.0123    0.0034
          27   -0.0073    0.0682    0.0071   -0.0244   -0.2571    0.0008    0.0934   -0.0235
          28    0.2031   -0.0352   -0.1235   -0.0232    0.0001    0.0057   -0.2036   -0.0358
          29   -0.0609   -0.0026   -0.2634   -0.2318    0.0162   -0.0112   -0.1965   -0.0354
          30    0.0408   -0.1210    0.0009   -0.0215   -0.2299   -0.0020   -0.0500    0.0108
          31   -0.1860   -0.0393   -0.2197   -0.0018   -0.0080    0.0080   -0.1066   -0.0187
          32    0.3217    0.1043   -0.1179    0.0069   -0.0042    0.0007    0.1651    0.0287
          33    0.0444   -0.1791   -0.0075   -0.0003    0.0335   -0.0034   -0.1539    0.0356
          34   -0.0485    0.0561   -0.2930   -0.1934    0.0116   -0.0143    0.2822    0.0529
          35   -0.1881    0.0203    0.0337    0.0940   -0.0085    0.0068    0.0642    0.0103
          36    0.0373   -0.1022   -0.0120    0.0206    0.2524   -0.0016   -0.0189    0.0039
          37    0.0542    0.0562    0.1028   -0.1719    0.0140   -0.0171    0.0410   -0.0310
          38   -0.0968   -0.0645    0.0370   -0.0658    0.0106   -0.0106   -0.0999    0.0704
          39    0.0102   -0.1784   -0.0073   -0.0080   -0.0005   -0.0087    0.1836    0.0013
          40    0.0103    0.1393   -0.2240    0.5510   -0.0526    0.0535   -0.1365   -0.0004
          41   -0.0407   -0.1434   -0.1426    0.3130   -0.0354    0.0310    0.2016   -0.0325
          42    0.0404   -0.0920   -0.0311    0.0549   -0.0081    0.0066    0.0576   -0.0342
          43    0.0027   -0.0065    0.0120   -0.0396    0.0051    0.4069   -0.0037   -0.0955
          44    0.0020   -0.0082    0.0098   -0.0305    0.0042    0.2193   -0.0101   -0.2205
          45   -0.0009    0.0009   -0.0030    0.0059   -0.0013    0.0747    0.0210    0.2662
          46    0.0015   -0.0022    0.0023   -0.0080    0.0025    0.0655   -0.0125   -0.1548
          47   -0.0043    0.0079   -0.0184    0.0549   -0.0042   -0.4036    0.0276    0.4046
          48   -0.0002    0.0015   -0.0039    0.0106   -0.0014   -0.0474    0.0060    0.0897
          49    0.0009   -0.0031    0.0036   -0.0160    0.0010    0.2892    0.0309    0.3842
          50    0.0006   -0.0039    0.0029   -0.0139    0.0013    0.2597    0.0208    0.2462
          51   -0.0008    0.0016   -0.0036    0.0134   -0.0017   -0.2034   -0.0067   -0.0548
          52   -0.0011    0.0020   -0.0044    0.0145   -0.0033   -0.1656   -0.0075   -0.0909
          53    0.0009    0.0010   -0.0020    0.0080   -0.0021   -0.1594   -0.0156   -0.1896
          54    0.0009   -0.0012    0.0022   -0.0088    0.0014    0.1431    0.0163    0.2187
          55   -0.0010    0.0036   -0.0057    0.0207   -0.0041   -0.3102   -0.0247   -0.2970
          56    0.0006   -0.0014   -0.0007    0.0015   -0.0011   -0.0327   -0.0020   -0.0297
          57   -0.0010    0.0021   -0.0063    0.0206   -0.0005   -0.2623   -0.0208   -0.2411
          58    0.0314    0.0850    0.1143   -0.2321    0.0256   -0.0302   -0.1764    0.0338
          59   -0.0303   -0.2580    0.0377   -0.1186    0.0048   -0.0180    0.3249   -0.0324
          60   -0.1305    0.3447    0.0459   -0.0516    0.0123    0.0090    0.0083    0.0206
          61    0.0454   -0.2848    0.0964   -0.2514    0.0237   -0.0312    0.1268   -0.0121
          62   -0.0855    0.4291    0.0943   -0.1454    0.0251   -0.0054   -0.1725    0.0432
          63    0.0273    0.2383    0.0385   -0.0568    0.0076   -0.0001   -0.1733   -0.0110
          64   -0.0017    0.0064   -0.0065    0.0241   -0.0019   -0.2697    0.0144    0.2488
          65    0.0019   -0.0014    0.0084   -0.0232    0.0035    0.1039   -0.0158   -0.2026
          66    0.0028   -0.0077    0.0076   -0.0277    0.0030    0.2934   -0.0192   -0.2778


   Root No.      33        34        35        36        37        38        39        40

                33 A      34 A      35 A      36 A      37 A      38 A      39 A      40 A   

                   2.0       2.8       3.1       3.4       3.5       3.5       3.8       4.2
  
           1    0.0964   -0.1639    0.2129    0.0074   -0.0125   -0.0005   -0.0567   -0.2072
           2   -0.0649   -0.1563   -0.1498   -0.0055    0.0596    0.0127    0.0345    0.1082
           3    0.2340   -0.0126   -0.0323   -0.0001   -0.0340    0.4531   -0.2083   -0.0033
           4    0.0656   -0.0957    0.2373    0.0087   -0.0880   -0.0287   -0.0863   -0.1708
           5   -0.1063    0.1603    0.1429    0.0028    0.1620    0.0278    0.0768   -0.0960
           6    0.1475    0.0046    0.0341   -0.0014   -0.1161    0.0355    0.5651   -0.0393
           7   -0.0015    0.2168   -0.0220    0.0007   -0.0450   -0.0093   -0.0041   -0.0117
           8   -0.1101    0.0634    0.2624    0.0084    0.0449    0.0111    0.0034   -0.2305
           9    0.2228   -0.0161   -0.0311    0.0015    0.1355   -0.4574   -0.1603    0.0095
          10   -0.1198   -0.0191   -0.2278   -0.0066   -0.0566   -0.0023    0.0143    0.2139
          11   -0.1871   -0.0127    0.1016    0.0048   -0.0591   -0.0171   -0.0331   -0.1298
          12   -0.0866    0.0022   -0.0108    0.0017   -0.0504    0.5032   -0.2982    0.0270
          13   -0.0819   -0.0875   -0.2224   -0.0075    0.0290    0.0030    0.0349    0.2274
          14    0.1315    0.1513   -0.1277   -0.0034   -0.0560   -0.0127    0.0048    0.1289
          15   -0.2626    0.0158    0.0450    0.0016   -0.0884   -0.0413    0.4974   -0.0431
          16    0.2178    0.0210   -0.0231   -0.0011    0.0779    0.0177    0.0238   -0.0029
          17   -0.0018    0.0162   -0.2475   -0.0084    0.0087    0.0131    0.0516    0.2519
          18   -0.0329   -0.0085   -0.0189    0.0013    0.1336   -0.4695   -0.2817    0.0358
          19   -0.0146   -0.2468   -0.1931   -0.0065    0.0983    0.0236    0.0366    0.0608
          20   -0.0023   -0.4432    0.0548   -0.0001    0.1592    0.0319    0.0170   -0.0976
          21   -0.0868    0.0048    0.0068   -0.0013    0.0101   -0.1267    0.0624   -0.0032
          22    0.0272   -0.0749    0.3689    0.0035   -0.1672   -0.0292   -0.0505    0.5610
          23   -0.0332    0.1538    0.2260   -0.0019    0.3086    0.0663    0.1115    0.3253
          24   -0.1300   -0.0316    0.0423   -0.0025   -0.1091   -0.0296   -0.0753    0.0725
          25   -0.0066    0.5080   -0.0557    0.0023   -0.1842   -0.0380   -0.0414   -0.0551
          26    0.0024   -0.0105   -0.1933   -0.0052   -0.0067    0.0008    0.0142    0.1023
          27   -0.0815    0.0047    0.0096    0.0006   -0.0375    0.1273    0.0474   -0.0035
          28   -0.2434    0.0095    0.1238    0.0062   -0.1381   -0.0316   -0.0658   -0.1311
          29   -0.2815   -0.0381   -0.1561   -0.0002   -0.2704   -0.0591   -0.0957    0.0082
          30    0.0413   -0.0008    0.0046    0.0030    0.0155   -0.1465    0.0787   -0.0057
          31   -0.1178   -0.2085    0.1555    0.0033    0.1210    0.0231    0.0274   -0.1023
          32    0.2141    0.3603    0.0833    0.0056   -0.2051   -0.0466   -0.0872   -0.0613
          33    0.1256   -0.0072   -0.0150    0.0031    0.0269    0.0099   -0.1293    0.0095
          34    0.3620    0.0276   -0.0578   -0.0042    0.3043    0.0629    0.1121   -0.0520
          35    0.0858   -0.0271    0.1816    0.0058   -0.0150   -0.0040   -0.0323   -0.1171
          36    0.0159    0.0024    0.0052    0.0007   -0.0391    0.1372    0.0767   -0.0100
          37   -0.1689    0.0629   -0.1169   -0.0004    0.0769    0.0049   -0.0558   -0.1422
          38    0.2930   -0.0799   -0.0651   -0.0024   -0.0528    0.0062    0.1133   -0.0845
          39    0.0406   -0.1686   -0.0268   -0.0017   -0.3548   -0.0714   -0.0833   -0.0213
          40    0.0135    0.0200   -0.3608   -0.0089   -0.0003    0.0020    0.0312   -0.2986
          41   -0.0289   -0.0300   -0.2046   -0.0075    0.0018   -0.0052   -0.0361   -0.1651
          42   -0.1473    0.0959   -0.0436   -0.0041    0.1730    0.0240   -0.0287   -0.0370
          43    0.0238   -0.0035   -0.0121    0.4413    0.0009    0.0002    0.0017    0.0042
          44    0.0453   -0.0023   -0.0022   -0.0107    0.0007   -0.0003   -0.0029   -0.0017
          45   -0.0516   -0.0008   -0.0115    0.4998    0.0020    0.0010    0.0040    0.0045
          46    0.0317   -0.0004    0.0015   -0.1075   -0.0006   -0.0011   -0.0012   -0.0011
          47   -0.0843    0.0030    0.0031    0.0871    0.0022    0.0003    0.0011    0.0028
          48   -0.0182    0.0005   -0.0022    0.0956    0.0016    0.0001    0.0002    0.0008
          49   -0.0756    0.0030    0.0146   -0.4877   -0.0018   -0.0006   -0.0024   -0.0037
          50   -0.0467    0.0003   -0.0006    0.0384   -0.0003    0.0003    0.0006    0.0002
          51    0.0090    0.0020    0.0123   -0.4599   -0.0014   -0.0012   -0.0031   -0.0040
          52    0.0165   -0.0002   -0.0008    0.0464   -0.0004    0.0007    0.0012    0.0002
          53    0.0358   -0.0003   -0.0022    0.0706    0.0003    0.0007    0.0008    0.0001
          54   -0.0424    0.0014    0.0050   -0.1194    0.0004   -0.0007   -0.0008    0.0001
          55    0.0566   -0.0007   -0.0011    0.0510   -0.0001    0.0007    0.0011    0.0009
          56    0.0050    0.0002    0.0004    0.0015   -0.0002    0.0004    0.0004    0.0001
          57    0.0473   -0.0009   -0.0028    0.0716    0.0011   -0.0010   -0.0008    0.0006
          58    0.0335    0.0212    0.1051    0.0047   -0.0565   -0.0000    0.1065    0.0604
          59   -0.0676   -0.0315    0.0448    0.0076    0.1086    0.0017   -0.1884    0.0250
          60    0.1296   -0.0916    0.0173   -0.0043   -0.1145   -0.0226   -0.0353    0.0111
          61   -0.0625    0.0087    0.0678    0.0032    0.0406    0.0026   -0.0272    0.0456
          62    0.1597   -0.0764    0.0425    0.0027   -0.1886   -0.0278    0.0466    0.0304
          63   -0.1329    0.2072    0.0174    0.0004    0.4479    0.0774   -0.0261    0.0028
          64   -0.0520    0.0026    0.0061    0.0516    0.0023    0.0001    0.0005    0.0042
          65    0.0418   -0.0007    0.0057   -0.1900   -0.0023   -0.0007   -0.0010    0.0000
          66    0.0594   -0.0027   -0.0044   -0.0863   -0.0025   -0.0008   -0.0004   -0.0040


   Root No.      41        42        43        44        45        46        47        48

                41 A      42 A      43 A      44 A      45 A      46 A      47 A      48 A   

                   5.1       5.6       6.3       6.9       7.1       7.8       8.4       8.6
  
           1   -0.1155    0.1516   -0.2136    0.0539   -0.0013   -0.0013   -0.0981    0.0176
           2    0.0639   -0.1039   -0.0670   -0.1969    0.0138   -0.0009   -0.3511    0.0024
           3   -0.3033   -0.2774   -0.0027    0.0410   -0.0030    0.0005    0.0011    0.0007
           4   -0.1070    0.1161   -0.2659   -0.0411    0.0049   -0.0014   -0.1672    0.0112
           5    0.1902   -0.1913   -0.1601    0.0860   -0.0094    0.0021   -0.0932   -0.0213
           6    0.2312    0.4096    0.0095   -0.1094    0.0082   -0.0002    0.0033   -0.0025
           7   -0.0001    0.0188   -0.1562    0.1511   -0.0116    0.0013   -0.3492   -0.0126
           8    0.1406   -0.1840   -0.1724   -0.1280    0.0067    0.0005    0.0979   -0.0137
           9   -0.2555   -0.2409   -0.0011    0.0362   -0.0027   -0.0002    0.0006    0.0006
          10   -0.0677    0.0967   -0.2037    0.2036   -0.0149    0.0012    0.0937   -0.0161
          11    0.0653   -0.1040   -0.0712   -0.1589    0.0099   -0.0001    0.3514   -0.0099
          12    0.3135    0.1959   -0.0003   -0.0129    0.0004   -0.0015   -0.0017    0.0003
          13   -0.0176    0.0386   -0.2656    0.1287   -0.0098    0.0007    0.1651   -0.0139
          14    0.0086   -0.0429   -0.1599   -0.2144    0.0160   -0.0019    0.0917    0.0248
          15   -0.3515   -0.2039    0.0004    0.0149   -0.0016   -0.0016   -0.0011   -0.0002
          16   -0.0262    0.0450   -0.1583    0.0467   -0.0020   -0.0010    0.3471    0.0180
          17    0.0705   -0.1170   -0.1630   -0.2510    0.0173   -0.0014   -0.0984    0.0089
          18    0.3560    0.2246   -0.0008   -0.0166    0.0008   -0.0009    0.0025    0.0007
          19   -0.0001    0.0130    0.2171    0.0805   -0.0061    0.0004    0.1666   -0.0044
          20   -0.0365    0.0763    0.3222    0.2140   -0.0152    0.0015    0.2720   -0.0081
          21    0.0475    0.0465   -0.0004   -0.0080    0.0008    0.0009   -0.0012    0.0004
          22   -0.0671    0.0106    0.1099   -0.2023    0.0127   -0.0009   -0.0007   -0.0096
          23    0.0466   -0.0010    0.0744    0.3167   -0.0216    0.0013   -0.0064    0.0175
          24    0.1241   -0.1929    0.0078    0.1354   -0.0088    0.0018   -0.0032    0.0007
          25    0.0474   -0.0980    0.3685   -0.2410    0.0170   -0.0019    0.3161    0.0105
          26   -0.0225    0.0274    0.0278    0.0371   -0.0025    0.0004    0.0063   -0.0008
          27    0.0384    0.0386    0.0002   -0.0059    0.0004   -0.0002    0.0001   -0.0001
          28   -0.0548    0.0553    0.2172    0.0106   -0.0000   -0.0006   -0.1649    0.0062
          29   -0.1587    0.1704    0.3271    0.0690   -0.0029   -0.0002   -0.2709    0.0128
          30   -0.0540   -0.0296   -0.0000    0.0012   -0.0008   -0.0022    0.0003    0.0000
          31    0.0824   -0.1218    0.0387   -0.2014    0.0141   -0.0017    0.0116    0.0115
          32   -0.1365    0.2049    0.0432    0.3503   -0.0246    0.0024    0.0094   -0.0199
          33    0.0603    0.0294   -0.0004   -0.0029   -0.0007   -0.0026    0.0003    0.0005
          34    0.1790   -0.1962    0.3721   -0.0863    0.0040    0.0004   -0.3132   -0.0155
          35   -0.0260    0.0345    0.0257    0.0257   -0.0015    0.0001   -0.0060    0.0015
          36   -0.0614   -0.0333    0.0014    0.0010   -0.0005   -0.0010   -0.0010    0.0004
          37    0.0306   -0.0754   -0.0306    0.0458   -0.0036    0.0001   -0.0037   -0.0010
          38   -0.0689    0.1756   -0.0060   -0.0718    0.0070   -0.0003   -0.0002    0.0021
          39    0.1130   -0.1782   -0.0129   -0.0243    0.0008    0.0029    0.0013   -0.0066
          40   -0.0094    0.0344   -0.0395   -0.0982    0.0064    0.0008   -0.0011   -0.0183
          41    0.0347   -0.0364   -0.0204    0.1466   -0.0055   -0.0026   -0.0061    0.0265
          42    0.0449   -0.0859   -0.0062    0.2095   -0.0156    0.0045   -0.0027    0.0040
          43    0.0006   -0.0000    0.0003   -0.0167   -0.2400    0.0667    0.0004   -0.3914
          44   -0.0050    0.0042   -0.0004   -0.0299   -0.3650    0.2764   -0.0007    0.5098
          45    0.0039   -0.0033   -0.0001    0.0197    0.2226   -0.3001   -0.0006    0.3664
          46    0.0011   -0.0018    0.0000    0.0187    0.2400   -0.1926   -0.0003    0.3380
          47    0.0010   -0.0011    0.0001   -0.0033   -0.0634    0.0619    0.0001   -0.0795
          48   -0.0014    0.0017    0.0001   -0.0219   -0.2903    0.1925    0.0005   -0.3837
          49   -0.0020    0.0018    0.0000   -0.0113   -0.1481   -0.0406   -0.0001    0.0077
          50    0.0004   -0.0004   -0.0000    0.0039    0.0547    0.0077    0.0000   -0.0066
          51   -0.0025    0.0019   -0.0000   -0.0181   -0.2521   -0.1109   -0.0001    0.0025
          52    0.0005   -0.0000    0.0002   -0.0020   -0.0562   -0.3556   -0.0000   -0.0122
          53   -0.0001    0.0005    0.0000   -0.0159   -0.2578   -0.3476   -0.0002   -0.0025
          54    0.0005   -0.0011    0.0001    0.0249    0.3732    0.2537    0.0003    0.0011
          55    0.0004   -0.0000   -0.0001    0.0164    0.2728    0.4808    0.0001    0.0053
          56    0.0002   -0.0003   -0.0001    0.0110    0.1821    0.3102    0.0000    0.0062
          57   -0.0002   -0.0003    0.0001   -0.0021   -0.0389   -0.0567    0.0000   -0.0028
          58    0.1591   -0.1138    0.0033    0.1701   -0.0131    0.0013   -0.0033    0.0138
          59   -0.2840    0.2010   -0.0013   -0.2975    0.0255   -0.0057    0.0040   -0.0278
          60   -0.0372    0.0228   -0.0007   -0.0715    0.0043    0.0038    0.0006   -0.0011
          61   -0.0341    0.0257    0.0060   -0.0218    0.0008    0.0003    0.0012    0.0025
          62    0.1156   -0.1103    0.0009    0.0754   -0.0079    0.0000   -0.0003   -0.0040
          63   -0.2660    0.2755    0.0065   -0.1887    0.0175   -0.0015    0.0009    0.0054
          64    0.0005   -0.0004    0.0003   -0.0040   -0.0663    0.0437    0.0000    0.0525
          65    0.0008   -0.0022    0.0003    0.0318    0.4443   -0.3040    0.0006   -0.4185
          66   -0.0003    0.0003   -0.0003   -0.0013   -0.0140    0.0192   -0.0001    0.0133


   Root No.      49        50        51        52        53        54        55        56

                49 A      50 A      51 A      52 A      53 A      54 A      55 A      56 A   

                   8.7      10.0      10.9      11.1      14.3      14.8      16.5      16.5
  
           1    0.2453   -0.0115   -0.2157   -0.0004    0.3832    0.1372   -0.3175   -0.1944
           2    0.0310    0.0396   -0.3256   -0.0009   -0.1859    0.3362   -0.2766    0.3018
           3    0.0029    0.0043    0.0014    0.0000   -0.0040    0.0010    0.0003   -0.0028
           4    0.1513    0.0084   -0.1951    0.0000   -0.3635   -0.1719    0.3697   -0.1325
           5   -0.2726   -0.0142    0.3123    0.0004   -0.1748    0.3395   -0.2071   -0.3970
           6   -0.0241   -0.0341   -0.0064   -0.0003   -0.0045   -0.0058    0.0047    0.0065
           7   -0.1562   -0.0259    0.3928    0.0010   -0.0553   -0.3556   -0.0531    0.4272
           8   -0.1884    0.0295    0.0508    0.0004    0.4011    0.0072    0.3728    0.0646
           9    0.0047    0.0051   -0.0004    0.0000    0.0128   -0.0008   -0.0016    0.0006
          10   -0.2204    0.0442   -0.1526   -0.0003    0.3607   -0.2390   -0.3027   -0.1789
          11   -0.1537    0.0735   -0.2889   -0.0006   -0.2243   -0.3228   -0.2689    0.3128
          12    0.0031   -0.0014    0.0017    0.0006   -0.0048    0.0008   -0.0001   -0.0014
          13   -0.1881    0.0422   -0.1796   -0.0002   -0.3272    0.2212    0.3534   -0.1561
          14    0.3280   -0.0697    0.2841    0.0002   -0.2080   -0.3465   -0.1726   -0.3752
          15   -0.0067    0.0024   -0.0040    0.0008   -0.0072    0.0018    0.0017    0.0006
          16    0.2536   -0.0830    0.3265    0.0004   -0.0152    0.4027   -0.0690    0.4151
          17    0.1133   -0.0066    0.0161    0.0000    0.3987   -0.0033    0.3650    0.0613
          18    0.0050   -0.0014    0.0034    0.0006    0.0113   -0.0003   -0.0014    0.0014
          19   -0.0555   -0.0077    0.0974    0.0004    0.0056   -0.0548    0.0510    0.0069
          20   -0.1095   -0.0128    0.1645   -0.0000   -0.0164   -0.0967    0.0650   -0.0431
          21   -0.0005   -0.0006   -0.0009   -0.0002    0.0001   -0.0000    0.0001    0.0004
          22   -0.1749    0.0774    0.0904    0.0008    0.0053    0.0192   -0.0187    0.0335
          23    0.2935   -0.1418   -0.1586   -0.0003   -0.0023   -0.0349   -0.0166    0.0108
          24    0.0460    0.0102   -0.0010   -0.0009   -0.0011    0.0119   -0.0216   -0.0084
          25    0.1279    0.0154   -0.1927   -0.0004    0.0158    0.1112    0.0114   -0.0880
          26   -0.0071    0.0001    0.0004    0.0001    0.0147   -0.0029   -0.0290   -0.0028
          27   -0.0007   -0.0012   -0.0000   -0.0002   -0.0010   -0.0001    0.0004    0.0001
          28    0.0857   -0.0235    0.0813    0.0000    0.0117    0.0625    0.0486    0.0053
          29    0.1813   -0.0456    0.1336    0.0001   -0.0033    0.1048    0.0624   -0.0465
          30   -0.0002   -0.0001   -0.0003    0.0008    0.0002   -0.0002    0.0001    0.0001
          31    0.1523   -0.0238    0.0804    0.0001   -0.0172   -0.0614   -0.0487   -0.0056
          32   -0.2665    0.0419   -0.1431   -0.0005   -0.0022    0.1092    0.0490    0.0559
          33    0.0020   -0.0002    0.0010    0.0013    0.0002   -0.0006   -0.0006   -0.0002
          34   -0.2077    0.0493   -0.1568   -0.0000    0.0033   -0.1219    0.0152   -0.0838
          35    0.0183   -0.0023   -0.0013   -0.0003    0.0144   -0.0020   -0.0292   -0.0022
          36   -0.0017    0.0004   -0.0008    0.0008   -0.0013   -0.0003    0.0000   -0.0005
          37   -0.0001   -0.0247    0.0067    0.0006   -0.0052    0.0144   -0.0082   -0.0169
          38    0.0247    0.0241   -0.0321   -0.0006   -0.0046   -0.0456    0.0406    0.0320
          39   -0.1004    0.0903    0.0875   -0.0004    0.0050    0.0876   -0.0703   -0.0621
          40   -0.1301   -0.2762    0.0162   -0.0001   -0.0014    0.0478   -0.0405   -0.0375
          41    0.2097    0.5937    0.0046    0.0007   -0.0077   -0.0570    0.0568    0.0358
          42    0.1509   -0.4459   -0.1703   -0.0019   -0.0062   -0.1243    0.1071    0.0811
          43    0.0322    0.0111    0.0008   -0.1306    0.0002   -0.0005    0.0002    0.0002
          44   -0.0380   -0.0104   -0.0008    0.1573   -0.0002    0.0008   -0.0004   -0.0002
          45   -0.0295   -0.0085    0.0001   -0.3345   -0.0000    0.0002   -0.0000   -0.0001
          46   -0.0277   -0.0084   -0.0002   -0.0452    0.0003    0.0002   -0.0000   -0.0001
          47    0.0075    0.0026   -0.0001   -0.0013   -0.0001   -0.0002    0.0001    0.0001
          48    0.0316    0.0086    0.0000    0.0723   -0.0001   -0.0003    0.0001    0.0001
          49   -0.0005   -0.0001    0.0004   -0.2119    0.0003    0.0000    0.0001   -0.0000
          50    0.0002    0.0000   -0.0001    0.0792   -0.0000    0.0000   -0.0001   -0.0001
          51    0.0002   -0.0002    0.0004   -0.2880   -0.0000   -0.0000    0.0001   -0.0000
          52    0.0002   -0.0007   -0.0011    0.5934    0.0002    0.0001   -0.0003    0.0000
          53    0.0006    0.0003   -0.0002    0.0128   -0.0000   -0.0001    0.0001    0.0001
          54   -0.0011   -0.0019   -0.0009    0.5227   -0.0001    0.0001   -0.0002   -0.0001
          55   -0.0002    0.0006    0.0005   -0.2195    0.0003    0.0000    0.0001   -0.0001
          56   -0.0005    0.0002    0.0003   -0.1382    0.0001    0.0000    0.0000   -0.0001
          57    0.0004   -0.0001   -0.0001    0.0178   -0.0001   -0.0001    0.0001    0.0000
          58    0.1183    0.1746   -0.0108    0.0014   -0.0025   -0.0135    0.0106    0.0058
          59   -0.2068   -0.3120    0.0178   -0.0013    0.0011    0.0236   -0.0169   -0.0131
          60   -0.0462    0.0091    0.0177   -0.0013    0.0001    0.0062   -0.0031   -0.0026
          61   -0.0019    0.0652    0.0119    0.0001    0.0006    0.0019   -0.0014   -0.0001
          62    0.0069   -0.1965   -0.0349    0.0007   -0.0003   -0.0088    0.0051    0.0051
          63   -0.0349    0.3634    0.0717   -0.0008    0.0007    0.0230   -0.0160   -0.0129
          64   -0.0034   -0.0029   -0.0004    0.0102    0.0002    0.0001   -0.0001   -0.0001
          65    0.0282    0.0063    0.0010   -0.1077   -0.0002   -0.0004    0.0002    0.0000
          66   -0.0007    0.0017    0.0002    0.0108   -0.0001   -0.0000    0.0001    0.0000


   Root No.      57        58        59        60

                57 A      58 A      59 A      60 A   

                  17.4      20.4      20.4      22.8
  
           1   -0.0534    0.3648    0.2752   -0.0305
           2   -0.0235   -0.3255    0.0916    0.0052
           3   -0.0010    0.0031   -0.0000    0.0044
           4    0.0876   -0.1744   -0.4364    0.0421
           5   -0.1616    0.1546   -0.2889   -0.0673
           6   -0.0037   -0.0041    0.0029   -0.0215
           7    0.0516    0.1520    0.1859    0.0059
           8    0.0378   -0.4051    0.3189    0.0336
           9    0.0001    0.0019   -0.0005    0.0053
          10   -0.0185   -0.3871   -0.2825    0.0099
          11    0.0279    0.3237   -0.0833   -0.0092
          12   -0.0005   -0.0025   -0.0003    0.0023
          13    0.0026    0.1816    0.4381   -0.0039
          14   -0.0135   -0.1680    0.2887    0.0035
          15   -0.0001    0.0024   -0.0000   -0.0001
          16   -0.0114   -0.1400   -0.1819    0.0026
          17    0.0336    0.4231   -0.3301   -0.0077
          18   -0.0006   -0.0023   -0.0002    0.0023
          19    0.0099    0.0012   -0.0099    0.0029
          20    0.0085    0.0100   -0.0135    0.0021
          21    0.0006   -0.0004    0.0000   -0.0018
          22   -0.2683   -0.0040    0.0187   -0.1319
          23    0.5068    0.0046    0.0100    0.0565
          24   -0.1437    0.0409   -0.0021    0.7691
          25   -0.0138   -0.0129   -0.0139   -0.0025
          26   -0.0043    0.0035   -0.0029   -0.0007
          27    0.0003   -0.0001    0.0002   -0.0020
          28   -0.0010    0.0010    0.0098    0.0001
          29   -0.0063   -0.0087    0.0133   -0.0007
          30    0.0001    0.0000   -0.0000   -0.0004
          31    0.0007   -0.0090   -0.0028    0.0002
          32   -0.0007    0.0152   -0.0045   -0.0005
          33   -0.0001   -0.0003   -0.0000   -0.0003
          34    0.0051    0.0112    0.0139    0.0004
          35   -0.0023   -0.0044    0.0028   -0.0001
          36   -0.0003   -0.0000    0.0002   -0.0002
          37    0.0676    0.0008   -0.0073   -0.0441
          38   -0.2331   -0.0041    0.0004    0.1572
          39    0.5113   -0.0001   -0.0033   -0.3550
          40    0.1728    0.0161   -0.0057    0.1522
          41   -0.1999   -0.0212   -0.0024   -0.1776
          42   -0.4513   -0.0410    0.0042   -0.4127
          43   -0.0010   -0.0001   -0.0001   -0.0008
          44    0.0019    0.0001   -0.0000    0.0018
          45    0.0008    0.0001   -0.0000    0.0010
          46    0.0011    0.0001   -0.0001    0.0005
          47   -0.0009   -0.0001   -0.0000   -0.0004
          48   -0.0008   -0.0001   -0.0000   -0.0006
          49    0.0002    0.0001   -0.0000    0.0003
          50   -0.0003   -0.0000   -0.0000   -0.0002
          51    0.0004    0.0000   -0.0000    0.0002
          52   -0.0005    0.0000   -0.0001   -0.0000
          53    0.0000   -0.0000   -0.0000   -0.0004
          54    0.0000   -0.0000   -0.0000    0.0002
          55   -0.0001    0.0001   -0.0000    0.0001
          56   -0.0002   -0.0000    0.0000   -0.0001
          57   -0.0000   -0.0000   -0.0001   -0.0001
          58   -0.0315   -0.0022   -0.0014   -0.0094
          59    0.0539    0.0038   -0.0008    0.0209
          60   -0.0001    0.0003   -0.0003    0.0004
          61   -0.0003    0.0006    0.0005    0.0052
          62   -0.0236   -0.0013    0.0008   -0.0132
          63    0.0892    0.0023   -0.0005    0.0100
          64    0.0007    0.0001   -0.0000    0.0007
          65   -0.0004   -0.0002    0.0000   -0.0029
          66   -0.0007   -0.0001   -0.0000   -0.0005


          FORCE CONSTANTS IN MILLIDYNES/ANGSTROM (= 10**5 DYNES/CM)

  -0.38381  -0.04016  -0.03576  -0.01612  -0.00648  -0.00212   0.00058   0.00363
   0.02611   0.04162   0.07150   0.08776   0.16502   0.17077   0.19630   0.25045
   0.31111   0.32503   0.52658   0.71094   0.88074   0.89508   0.91123   0.99894
   1.15916   1.36523   1.41482   1.48168   1.52015   1.64567   1.97639   2.02380
   2.04568   2.82292   3.06447   3.39760   3.47788   3.51396   3.83520   4.15572
   5.11451   5.55585   6.25042   6.92348   7.08508   7.77733   8.38678   8.64914
   8.72517   9.98303  10.89489  11.12556  14.28780  14.83471  16.49796  16.53180
  17.39415  20.40057  20.44030  22.75043


           ASSOCIATED EIGENVECTORS




    ROOT NO.    1           2           3           4           5           6

            -0.38381    -0.04016    -0.03576    -0.01612    -0.00648    -0.00212
  
         1  -0.00371     0.00353     0.05118    -0.06941    -0.04165     0.04819
         2   0.00544     0.01968    -0.03228     0.08367     0.02294     0.02220
         3   0.00997    -0.01624    -0.01762    -0.03216     0.14063     0.02525
         4  -0.00370     0.00208     0.04980    -0.06900    -0.04213     0.04885
         5   0.00361     0.04044    -0.01077     0.02036    -0.00218     0.10726
         6   0.00796     0.05175     0.02492     0.01363    -0.02197     0.03155
         7  -0.00220    -0.00977     0.03288    -0.01375    -0.01933    -0.02457
         8   0.00268     0.04726    -0.00003    -0.01259    -0.01508     0.14913
         9  -0.00571     0.10358     0.05890     0.06077    -0.15974    -0.02877
        10  -0.00062    -0.02204     0.01785     0.04150     0.00227    -0.09954
        11   0.00354     0.03922    -0.00944     0.01970    -0.00303     0.10623
        12  -0.01716     0.06290     0.03254     0.04751    -0.08318    -0.07247
        13  -0.00060    -0.02197     0.01780     0.04254     0.00149    -0.10009
        14   0.00540     0.02097    -0.03020     0.08327     0.02187     0.02143
        15  -0.01538    -0.00190    -0.00946     0.00761     0.06361    -0.06700
        16  -0.00216    -0.00891     0.03520    -0.01330    -0.02064    -0.02655
        17   0.00627     0.01278    -0.04044     0.11483     0.03514    -0.02106
        18  -0.00202    -0.03349    -0.02896    -0.02596     0.15599    -0.02567
        19  -0.00532     0.01340     0.06087    -0.11075    -0.05778     0.10682
        20   0.00641     0.01340    -0.03825     0.10752     0.03204    -0.01183
        21   0.02107    -0.06238    -0.04443    -0.07433     0.25443     0.06631
        22  -0.00497     0.04667     0.10045    -0.12526    -0.06624     0.10314
        23   0.00281     0.06361     0.01570    -0.01054    -0.01563     0.13978
        24   0.02371    -0.01015    -0.01043     0.01762    -0.06990     0.15755
        25  -0.00212    -0.00951     0.03326    -0.01404    -0.01946    -0.02442
        26   0.00165     0.05523     0.01329    -0.06166    -0.03700     0.21576
        27  -0.00671     0.15537     0.09634     0.09981    -0.30740    -0.03124
        28   0.00039    -0.03067     0.00638     0.08488     0.01852    -0.15686
        29   0.00296     0.04393    -0.00267    -0.00557    -0.01258     0.13951
        30  -0.02615     0.07644     0.04222     0.06539    -0.13661    -0.09832
        31   0.00065    -0.03160     0.00533     0.08506     0.01885    -0.15700
        32   0.00606     0.01503    -0.03732     0.10752     0.03196    -0.01116
        33  -0.02342    -0.02706    -0.02532     0.00178     0.09728    -0.08728
        34  -0.00213    -0.00852     0.03523    -0.01291    -0.02085    -0.02680
        35   0.00784     0.00027    -0.05497     0.16498     0.05263    -0.08918
        36  -0.00041    -0.07491    -0.05608    -0.04675     0.23925    -0.02494
        37  -0.00340     0.31420     0.41856    -0.16477    -0.14059     0.10438
        38   0.01921     0.13188     0.14618    -0.02185    -0.10255     0.26466
        39   0.03098    -0.01692     0.00536     0.01868    -0.09991     0.21578
        40  -0.00609    -0.17100    -0.14963    -0.11591    -0.01616     0.11863
        41  -0.01351     0.06260    -0.06126    -0.01848     0.06424     0.01173
        42   0.03011    -0.08906    -0.07066     0.02523    -0.08571     0.22043
        43   0.02810     0.04520     0.09199     0.17438     0.22897     0.02974
        44  -0.02737    -0.04678     0.01055    -0.37217    -0.01285    -0.17284
        45  -0.04040     0.02639    -0.08062    -0.08672    -0.15294    -0.19005
        46  -0.15896    -0.10834     0.33337     0.28169     0.39457     0.15652
        47   0.14141    -0.42642     0.42041    -0.11245     0.04701    -0.15572
        48  -0.23412    -0.02924     0.04586    -0.04573    -0.01823    -0.08333
        49   0.37478     0.05155    -0.07561     0.15429    -0.05531    -0.09497
        50  -0.30128    -0.11758     0.04286    -0.19791    -0.05660    -0.12443
        51  -0.39842     0.00388     0.04681    -0.01979     0.03487    -0.09290
        52  -0.25257    -0.02884    -0.09094     0.18912    -0.20040    -0.10672
        53   0.45621    -0.05284    -0.07274     0.13155    -0.15290    -0.15545
        54   0.23756     0.07590     0.02845     0.02192     0.11306    -0.09261
        55   0.14076    -0.01910    -0.08910    -0.02022    -0.20003    -0.10227
        56  -0.25871    -0.05540    -0.04595     0.42842    -0.08346    -0.14897
        57   0.26104     0.11887     0.11912    -0.10091     0.34643    -0.07475
        58  -0.00822    -0.14570    -0.09811    -0.14832    -0.02800     0.11507
        59  -0.01399     0.08421    -0.02620    -0.03379     0.06040     0.00241
        60   0.04061    -0.18766    -0.11617     0.03770    -0.13080     0.33688
        61  -0.00655    -0.39739    -0.39811    -0.07368     0.04263     0.11554
        62  -0.02450     0.04059    -0.13956    -0.00723     0.13847    -0.10670
        63   0.02390    -0.06444    -0.07193     0.02438    -0.05705     0.16117
        64  -0.08137     0.53671    -0.38865    -0.10213     0.22125    -0.02711
        65  -0.03215     0.00794    -0.04691    -0.40757    -0.01283    -0.18278
        66   0.08298    -0.06162     0.03115    -0.00966    -0.12212    -0.24560




    ROOT NO.    7           8           9          10          11          12

             0.00058     0.00363     0.02611     0.04162     0.07150     0.08776
  
         1   0.09069     0.02843     0.00957    -0.00643    -0.16254     0.04707
         2  -0.06762    -0.05081     0.03199     0.01598     0.00500     0.02569
         3   0.02095     0.01956    -0.18159    -0.06624    -0.03546     0.00484
         4   0.09065     0.02835     0.00992    -0.00641    -0.16925     0.05033
         5   0.00685    -0.07323     0.04687     0.01566    -0.08882     0.04652
         6  -0.01537     0.03718    -0.22917    -0.07304    -0.02002     0.01296
         7   0.02565     0.04815    -0.00745    -0.00706    -0.08269     0.02808
         8   0.04517    -0.08506     0.05768     0.01620    -0.13228     0.05644
         9  -0.00137     0.02011    -0.15955    -0.01942    -0.04401     0.04006
        10  -0.04015     0.06819    -0.02410    -0.00769     0.02319    -0.00200
        11   0.00746    -0.07376     0.04898     0.01618    -0.07975     0.04329
        12   0.04159    -0.01134     0.08868     0.07717    -0.01167     0.00801
        13  -0.04099     0.06842    -0.02478    -0.00782     0.02290    -0.00142
        14  -0.06738    -0.05102     0.03327     0.01646     0.01900     0.01951
        15   0.06535    -0.02244     0.20795     0.10982     0.02073    -0.02321
        16   0.02447     0.04855    -0.00760    -0.00714    -0.06316     0.02005
        17  -0.10490    -0.03936     0.02382     0.01606     0.06966     0.00648
        18   0.05399    -0.00769     0.04113     0.02982    -0.00643    -0.01082
        19   0.14089     0.01286     0.01886    -0.00676    -0.25118     0.07331
        20  -0.09674    -0.04154     0.02633     0.01602     0.05765     0.01003
        21   0.02076     0.02948    -0.31127    -0.13717    -0.07026     0.01200
        22   0.14850     0.01062     0.01295    -0.00906    -0.01964    -0.03341
        23   0.03865    -0.08305     0.05048     0.01400    -0.00398    -0.00192
        24  -0.09940     0.08857    -0.13203    -0.08157     0.03813    -0.00548
        25   0.02597     0.04802    -0.00737    -0.00705    -0.08263     0.02800
        26   0.10416    -0.10267     0.07347     0.01707    -0.24060     0.09153
        27  -0.02669     0.03236    -0.26269    -0.04860    -0.08892     0.08593
        28  -0.09095     0.08353    -0.03676    -0.00806     0.10344    -0.02463
        29   0.03697    -0.08275     0.05672     0.01641    -0.12745     0.05707
        30   0.04998    -0.02333     0.18682     0.12061    -0.01210     0.00796
        31  -0.09185     0.08367    -0.03839    -0.00872     0.09835    -0.02194
        32  -0.09644    -0.04253     0.02680     0.01626     0.06229     0.00782
        33   0.08699    -0.03880     0.40848     0.18594     0.06190    -0.05337
        34   0.02422     0.04858    -0.00822    -0.00719    -0.06392     0.02045
        35  -0.16444    -0.01998     0.00870     0.01553     0.16439    -0.02014
        36   0.06586    -0.01744     0.09428     0.04295     0.00089    -0.01425
        37   0.16209     0.02973     0.01572    -0.02270     0.16821    -0.13328
        38  -0.04204    -0.01905     0.22022     0.02258     0.12907    -0.05793
        39  -0.13770     0.11403    -0.04964    -0.07413     0.07455    -0.01782
        40   0.15793    -0.02001     0.01718     0.00293     0.10397    -0.07857
        41   0.13426    -0.15094    -0.16916    -0.00496     0.05775    -0.03746
        42  -0.13802     0.10643    -0.03374    -0.06778     0.05989    -0.00787
        43  -0.14018    -0.01960     0.01775    -0.00538    -0.03164    -0.02701
        44  -0.18458     0.14519     0.03518    -0.13002     0.03756     0.11371
        45   0.04012    -0.17369     0.04927    -0.00029     0.02588     0.08312
        46  -0.20111    -0.02484    -0.06568     0.14562    -0.06350    -0.09175
        47  -0.15856    -0.07099     0.03926    -0.26626    -0.08702    -0.13308
        48  -0.01844    -0.12868    -0.02365     0.16170     0.02651     0.08502
        49  -0.04013    -0.12901     0.03908    -0.05786     0.12471     0.31352
        50  -0.04793     0.30412    -0.12395     0.41310     0.03432     0.09774
        51   0.01835    -0.06297    -0.00370     0.16686    -0.06789    -0.12595
        52  -0.09426    -0.22590     0.03850    -0.13615     0.09172     0.22936
        53   0.11557     0.34346    -0.09393     0.32205    -0.12831    -0.29250
        54   0.08263     0.01140     0.00649     0.19056    -0.08614    -0.16147
        55  -0.25271    -0.24329    -0.09485     0.29977     0.02646     0.08988
        56   0.37890     0.40632     0.11898    -0.34435     0.01979     0.03404
        57   0.19056     0.11291     0.11807    -0.07441     0.19113     0.49062
        58   0.21062    -0.05189    -0.03709    -0.00448     0.54821    -0.26377
        59   0.16937    -0.17426    -0.21671    -0.01229     0.30738    -0.14531
        60  -0.20554     0.14452     0.17424    -0.03823     0.08689    -0.01418
        61   0.14645    -0.04804     0.06078     0.02462    -0.19644     0.05327
        62   0.19939    -0.20521    -0.35139    -0.02365    -0.08906     0.01750
        63  -0.10308     0.08322    -0.12909    -0.07930     0.02935     0.00016
        64  -0.25579     0.15549     0.11197    -0.15698    -0.12455    -0.27555
        65  -0.20614     0.16713     0.05638    -0.16803     0.01339     0.06097
        66   0.00848    -0.31341     0.14070    -0.32524    -0.17294    -0.39625




    ROOT NO.   13          14          15          16          17          18

             0.16502     0.17077     0.19630     0.25045     0.31111     0.32503
  
         1  -0.03601    -0.03299     0.00385    -0.13229    -0.01396    -0.00043
         2   0.03373     0.03390    -0.00962    -0.02578     0.02288     0.00051
         3  -0.02797     0.14059     0.00003     0.00189     0.06011     0.00385
         4  -0.03070    -0.03206     0.00390    -0.13342    -0.01182    -0.00041
         5   0.01154     0.01192    -0.00684    -0.07349    -0.00084     0.00010
         6  -0.08141    -0.07835    -0.01673     0.00166     0.03994    -0.00045
         7  -0.03465    -0.03217     0.00144    -0.09123    -0.02414    -0.00125
         8   0.01357     0.01580    -0.00541    -0.09722     0.00961     0.00070
[...]
 EFFECTIVE MASS     13.1127
 FORCE CONSTANT      0.4735

 VIBRATION         26   26A           ATOM PAIR      ENERGY CONTRIBUTION    RADIAL
 FREQUENCY           831.52         C  5 -- H 11         +24.6% ( 61.0%)      0.1%
 TRANSITION DIPOLE   1.0051         C  4 -- H 10         +20.2% ( 55.1%)      0.3%
 TRAVEL (Ang.)       0.4294         C  6 -- H 12         +17.5% ( 51.4%)      0.2%
 REDUCED MASS        0.4398         C  2 -- C  3          +7.5% ( 33.5%)      0.0%
 EFFECTIVE MASS      3.5643
 FORCE CONSTANT      0.1792

 VIBRATION         27   27A           ATOM PAIR      ENERGY CONTRIBUTION    RADIAL
 FREQUENCY           885.35         C  1 -- H  7         +26.5% ( 57.0%)      0.0%
 TRANSITION DIPOLE   0.0547         C  3 -- H  9         +25.6% ( 56.0%)      0.0%
 TRAVEL (Ang.)       0.4910         C  6 -- H 12         +19.2% ( 48.4%)      0.0%
 REDUCED MASS        0.3159         C  4 -- H 10         +16.9% ( 45.5%)      0.0%
 EFFECTIVE MASS      2.3575
 FORCE CONSTANT      0.1459

 VIBRATION         28   28A           ATOM PAIR      ENERGY CONTRIBUTION    RADIAL
 FREQUENCY           940.36         C 14 -- H 20         +38.4% ( 66.1%)      0.3%
 TRANSITION DIPOLE   1.7638         C 14 -- H 21         +35.0% ( 63.0%)      0.8%
 TRAVEL (Ang.)       0.2495         C  8 -- C 14         +14.9% ( 41.1%)      0.0%
 REDUCED MASS        1.1518         C  2 -- C  8          +3.4% ( 19.6%)      0.3%
 EFFECTIVE MASS      3.9661
 FORCE CONSTANT      0.6001

 VIBRATION         29   29A           ATOM PAIR      ENERGY CONTRIBUTION    RADIAL
 FREQUENCY           961.31         C  5 -- H 11         +23.7% ( 55.4%)      0.1%
 TRANSITION DIPOLE   0.4351         C  3 -- H  9         +20.3% ( 51.2%)      0.1%
 TRAVEL (Ang.)       0.3395         C  1 -- H  7         +18.5% ( 48.9%)      0.1%
 REDUCED MASS        0.6086         C  1 -- C  2          +9.5% ( 35.0%)      0.0%
 EFFECTIVE MASS      4.5272
 FORCE CONSTANT      0.3314

 VIBRATION         30   30A           ATOM PAIR      ENERGY CONTRIBUTION    RADIAL
 FREQUENCY           986.31         C  2 -- C  3         +11.2% ( 55.6%)      4.9%
 TRANSITION DIPOLE   0.7344         C  1 -- C  2         +11.0% ( 55.0%)      3.4%
 TRAVEL (Ang.)       0.2605         C 14 -- H 20         +10.7% ( 54.2%)     14.5%
 REDUCED MASS        1.0077         C 14 -- H 21         +10.1% ( 52.7%)     14.6%
 EFFECTIVE MASS      9.7520         C  3 -- C  4         +10.0% ( 52.5%)      0.4%
 FORCE CONSTANT      0.5776

 VIBRATION         31   31A           ATOM PAIR      ENERGY CONTRIBUTION    RADIAL
 FREQUENCY          1007.28         C  4 -- H 10         +25.0% ( 53.8%)      0.0%
 TRANSITION DIPOLE   0.0615         C  6 -- H 12         +20.5% ( 48.7%)      0.0%
 TRAVEL (Ang.)       0.3515         C  3 -- H  9         +14.3% ( 40.7%)      0.0%
 REDUCED MASS        0.5418         C  1 -- H  7         +13.1% ( 39.0%)      0.0%
 EFFECTIVE MASS      3.9097
 FORCE CONSTANT      0.3239

 VIBRATION         32   32A           ATOM PAIR      ENERGY CONTRIBUTION    RADIAL
 FREQUENCY          1045.70         C 14 -- H 21         +16.5% ( 60.9%)     37.3%
 TRANSITION DIPOLE   0.8554         C 14 -- H 20         +13.9% ( 55.8%)      5.3%
 TRAVEL (Ang.)       0.2395         C  8 -- C 14         +10.2% ( 47.8%)      4.8%
 REDUCED MASS        1.1239         C  3 -- C  4          +7.8% ( 41.9%)      2.9%
 EFFECTIVE MASS      9.6371
 FORCE CONSTANT      0.7241

 VIBRATION         33   33A           ATOM PAIR      ENERGY CONTRIBUTION    RADIAL
 FREQUENCY          1048.36         C  5 -- H 11         +22.0% ( 51.7%)      0.0%
 TRANSITION DIPOLE   0.1932         C  6 -- H 12         +18.8% ( 47.8%)      0.0%
 TRAVEL (Ang.)       0.2983         C  4 -- H 10         +13.6% ( 40.6%)      0.0%
 REDUCED MASS        0.7228         C  5 -- C  6         +11.1% ( 36.7%)      0.0%
 EFFECTIVE MASS      5.2591
 FORCE CONSTANT      0.4681

 VIBRATION         34   34A           ATOM PAIR      ENERGY CONTRIBUTION    RADIAL
 FREQUENCY          1148.56         O 15 -- H 16         +74.8% ( 77.1%)      5.1%
 TRANSITION DIPOLE   1.1318         O 15 -- H 22         +22.4% ( 42.2%)     22.6%
 TRAVEL (Ang.)       0.2675         H 17 -- O 18          +1.4% ( 10.4%)      0.0%
 REDUCED MASS        0.8203         O 18 -- H 19          +0.9% (  8.5%)     38.0%
 EFFECTIVE MASS      2.7716
 FORCE CONSTANT      0.6376

 VIBRATION         35   35A           ATOM PAIR      ENERGY CONTRIBUTION    RADIAL
 FREQUENCY          1171.65         C  1 -- H  7         +21.0% ( 60.1%)      3.1%
 TRANSITION DIPOLE   0.4115         C  5 -- C  6         +17.2% ( 54.5%)     96.2%
 TRAVEL (Ang.)       0.3343         C  4 -- H 10         +15.1% ( 51.1%)      8.8%
 REDUCED MASS        0.5151         C  4 -- C  5         +11.5% ( 44.6%)     57.0%
 EFFECTIVE MASS      5.4066
 FORCE CONSTANT      0.4166

 VIBRATION         36   36A           ATOM PAIR      ENERGY CONTRIBUTION    RADIAL
 FREQUENCY          1183.20         C  3 -- H  9         +22.5% ( 59.8%)      7.7%
 TRANSITION DIPOLE   0.1615         C  6 -- H 12         +15.2% ( 49.1%)      1.1%
 TRAVEL (Ang.)       0.4411         C  5 -- H 11         +11.2% ( 42.0%)     19.5%
 REDUCED MASS        0.2929         C  4 -- C  5         +11.1% ( 41.9%)     89.9%
 EFFECTIVE MASS      4.1005
 FORCE CONSTANT      0.2416

 VIBRATION         37   37A           ATOM PAIR      ENERGY CONTRIBUTION    RADIAL
 FREQUENCY          1227.81         C  5 -- H 11         +44.4% ( 78.4%)      0.0%
 TRANSITION DIPOLE   0.1305         C  4 -- H 10         +15.7% ( 46.6%)      0.2%
 TRAVEL (Ang.)       0.3584         C  6 -- H 12          +8.1% ( 33.5%)      0.6%
 REDUCED MASS        0.4276         C  1 -- C  6          +5.8% ( 28.3%)     99.4%
 EFFECTIVE MASS      2.5126
 FORCE CONSTANT      0.3798

 VIBRATION         38   38A           ATOM PAIR      ENERGY CONTRIBUTION    RADIAL
 FREQUENCY          1250.29         C  1 -- H  7         +25.3% ( 51.5%)      2.2%
 TRANSITION DIPOLE   0.4489         C  6 -- H 12         +22.4% ( 48.5%)      3.2%
 TRAVEL (Ang.)       0.4894         C  3 -- H  9         +21.5% ( 47.5%)      1.2%
 REDUCED MASS        0.2252         C  4 -- H 10         +17.8% ( 43.2%)      2.1%
 EFFECTIVE MASS      1.6775
 FORCE CONSTANT      0.2074

 VIBRATION         39   39A           ATOM PAIR      ENERGY CONTRIBUTION    RADIAL
 FREQUENCY          1287.39         C  1 -- C  2         +14.6% ( 52.3%)     71.0%
 TRANSITION DIPOLE   0.8366         C  2 -- C  3         +14.4% ( 51.9%)     67.6%
 TRAVEL (Ang.)       0.2178         C  2 -- C  8         +11.0% ( 45.3%)     99.9%
 REDUCED MASS        1.1037         C  3 -- C  4          +8.2% ( 39.2%)     93.2%
 EFFECTIVE MASS      9.2367
 FORCE CONSTANT      1.0778

 VIBRATION         40   40A           ATOM PAIR      ENERGY CONTRIBUTION    RADIAL
 FREQUENCY          1344.17         C  3 -- H  9         +23.2% ( 54.0%)      0.4%
 TRANSITION DIPOLE   0.2739         C  1 -- H  7         +15.9% ( 44.8%)      0.1%
 TRAVEL (Ang.)       0.4471         C  4 -- H 10         +12.8% ( 40.2%)      1.5%
 REDUCED MASS        0.2509         C  6 -- H 12         +12.3% ( 39.4%)      0.3%
 EFFECTIVE MASS      2.6085
 FORCE CONSTANT      0.2671

 VIBRATION         41   41A           ATOM PAIR      ENERGY CONTRIBUTION    RADIAL
 FREQUENCY          1347.41         C 14 -- H 20         +22.7% ( 52.9%)      0.7%
 TRANSITION DIPOLE   1.0700         C 14 -- H 21         +20.7% ( 50.6%)      2.2%
 TRAVEL (Ang.)       0.3526         C  2 -- C  8         +13.0% ( 40.1%)     98.6%
 REDUCED MASS        0.4026         C  1 -- C  2          +6.5% ( 28.3%)     63.0%
 EFFECTIVE MASS      4.1372
 FORCE CONSTANT      0.4306

 VIBRATION         42   42A           ATOM PAIR      ENERGY CONTRIBUTION    RADIAL
 FREQUENCY          1446.19         C  1 -- C  6         +14.8% ( 60.6%)     99.9%
 TRANSITION DIPOLE   0.1843         C  3 -- C  4         +14.5% ( 59.9%)     99.6%
 TRAVEL (Ang.)       0.1694         C  4 -- C  5         +11.0% ( 52.1%)     96.2%
 REDUCED MASS        1.6253         C  5 -- C  6         +10.6% ( 51.2%)     95.1%
 EFFECTIVE MASS     10.3046         C  1 -- C  2         +10.4% ( 50.7%)     99.1%
 FORCE CONSTANT      2.0028         C  2 -- C  3         +10.0% ( 49.8%)     98.4%

 VIBRATION         43   43A           ATOM PAIR      ENERGY CONTRIBUTION    RADIAL
 FREQUENCY          1452.03         H 17 -- O 18         +80.0% ( 74.0%)      4.8%
 TRANSITION DIPOLE   1.1903         O 18 -- H 19         +18.9% ( 36.0%)     12.7%
 TRAVEL (Ang.)       0.2799         O 15 -- H 22          +0.7% (  7.0%)     72.6%
 REDUCED MASS        0.5927         O 15 -- H 16          +0.3% (  4.8%)      5.9%
 EFFECTIVE MASS      1.6255
 FORCE CONSTANT      0.7362

 VIBRATION         44   44A           ATOM PAIR      ENERGY CONTRIBUTION    RADIAL
 FREQUENCY          1481.22         C  8 -- O 13         +33.7% ( 78.0%)     80.9%
 TRANSITION DIPOLE   4.6218         C  8 -- C 14         +26.0% ( 68.4%)     34.3%
 TRAVEL (Ang.)       0.1125         C  2 -- C  8         +16.1% ( 53.9%)     90.7%
 REDUCED MASS        3.5964         C 14 -- H 21         +10.7% ( 44.0%)      1.9%
 EFFECTIVE MASS     12.0145
 FORCE CONSTANT      4.6490

 VIBRATION         45   45A           ATOM PAIR      ENERGY CONTRIBUTION    RADIAL
 FREQUENCY          1527.87         C  4 -- C  5         +12.9% ( 50.1%)     37.7%
 TRANSITION DIPOLE   0.6725         C  5 -- C  6         +12.6% ( 49.5%)     31.2%
 TRAVEL (Ang.)       0.1699         C  5 -- H 11         +12.5% ( 49.4%)      0.0%
 REDUCED MASS        1.5287         C  1 -- C  2         +11.8% ( 48.0%)     44.4%
 EFFECTIVE MASS      9.6409         C  2 -- C  3         +11.4% ( 47.0%)     37.6%
 FORCE CONSTANT      2.1026

 VIBRATION         46   46A           ATOM PAIR      ENERGY CONTRIBUTION    RADIAL
 FREQUENCY          1560.70         C  2 -- C  3         +14.5% ( 53.0%)     70.2%
 TRANSITION DIPOLE   0.7830         C  1 -- C  2         +13.4% ( 51.0%)     61.7%
 TRAVEL (Ang.)       0.1781         C  5 -- C  6          +9.5% ( 42.9%)     76.1%
 REDUCED MASS        1.3614         C  2 -- C  8          +8.9% ( 41.4%)     97.7%
 EFFECTIVE MASS      9.6835
 FORCE CONSTANT      1.9537

 VIBRATION         47   47A           ATOM PAIR      ENERGY CONTRIBUTION    RADIAL
 FREQUENCY          1658.88         O 15 -- H 22         +95.3% ( 97.1%)     98.0%
 TRANSITION DIPOLE   1.8362         O 15 -- H 16          +3.9% ( 19.6%)     50.5%
 TRAVEL (Ang.)       0.1313         C  8 -- C 14          +0.2% (  4.4%)     88.2%
 REDUCED MASS        2.3575         H 17 -- O 18          +0.2% (  4.3%)      4.5%
 EFFECTIVE MASS      4.1243
 FORCE CONSTANT      3.8224

 VIBRATION         48   48A           ATOM PAIR      ENERGY CONTRIBUTION    RADIAL
 FREQUENCY          1695.08         C  1 -- C  6         +17.6% ( 59.8%)     99.7%
 TRANSITION DIPOLE   1.0543         C  3 -- C  4         +17.5% ( 59.7%)     99.8%
 TRAVEL (Ang.)       0.1284         C  2 -- C  3         +10.1% ( 45.3%)     51.2%
 REDUCED MASS        2.4131         C  5 -- C  6          +9.8% ( 44.7%)     53.9%
 EFFECTIVE MASS     11.9580
 FORCE CONSTANT      4.0851

 VIBRATION         49   49A           ATOM PAIR      ENERGY CONTRIBUTION    RADIAL
 FREQUENCY          1697.64         C  4 -- C  5         +16.2% ( 57.3%)     91.4%
 TRANSITION DIPOLE   0.4349         C  1 -- C  2         +15.6% ( 56.2%)     91.6%
 TRAVEL (Ang.)       0.1256         C  5 -- C  6         +14.5% ( 54.2%)     83.5%
 REDUCED MASS        2.5161         C  2 -- C  3         +14.2% ( 53.5%)     84.0%
 EFFECTIVE MASS     11.9765
 FORCE CONSTANT      4.2723

 VIBRATION         50   50A           ATOM PAIR      ENERGY CONTRIBUTION    RADIAL
 FREQUENCY          1761.34         C  8 -- C 14         +39.2% ( 92.3%)     96.6%
 TRANSITION DIPOLE   9.2222         C  8 -- O 13         +26.8% ( 76.3%)     76.9%
 TRAVEL (Ang.)       0.0807         C  2 -- C  8         +20.7% ( 67.0%)     10.2%
 REDUCED MASS        5.8742         C 14 -- H 20          +6.2% ( 36.7%)     20.2%
 EFFECTIVE MASS     12.2463
 FORCE CONSTANT     10.7371

 VIBRATION         51   51A           ATOM PAIR      ENERGY CONTRIBUTION    RADIAL
 FREQUENCY          2584.41         H 17 -- O 18         +86.5% ( 95.1%)     98.3%
 TRANSITION DIPOLE   2.5566         O 18 -- H 19         +10.2% ( 32.7%)     79.6%
 TRAVEL (Ang.)       0.1838         O 15 -- H 16          +3.3% ( 18.5%)     86.0%
 REDUCED MASS        0.7719
 EFFECTIVE MASS      1.5169
 FORCE CONSTANT      3.0378

 VIBRATION         52   52A           ATOM PAIR      ENERGY CONTRIBUTION    RADIAL
 FREQUENCY          2735.80         C  4 -- H 10         +46.6% ( 69.0%)    100.0%
 TRANSITION DIPOLE   0.1395         C  5 -- H 11         +28.5% ( 54.0%)    100.0%
 TRAVEL (Ang.)       0.2797         C  6 -- H 12         +14.1% ( 38.0%)     99.9%
 REDUCED MASS        0.3149         C  3 -- H  9          +8.1% ( 28.7%)     99.8%
 EFFECTIVE MASS      1.3716
 FORCE CONSTANT      1.3888

 VIBRATION         53   53A           ATOM PAIR      ENERGY CONTRIBUTION    RADIAL
 FREQUENCY          2740.48         C  6 -- H 12         +34.9% ( 59.7%)    100.0%
 TRANSITION DIPOLE   0.4970         C  4 -- H 10         +21.9% ( 47.3%)     99.9%
 TRAVEL (Ang.)       0.3395         C  3 -- H  9         +16.7% ( 41.3%)    100.0%
 REDUCED MASS        0.2135         C  5 -- H 11         +12.9% ( 36.4%)     99.6%
 EFFECTIVE MASS      1.3660
 FORCE CONSTANT      0.9445

 VIBRATION         54   54A           ATOM PAIR      ENERGY CONTRIBUTION    RADIAL
 FREQUENCY          2740.60         C 14 -- H 20         +53.9% ( 75.4%)     99.3%
 TRANSITION DIPOLE   1.0777         C 14 -- H 21         +30.5% ( 56.7%)     97.4%
 TRAVEL (Ang.)       0.2488         C  6 -- H 12          +3.8% ( 19.9%)     99.9%
 REDUCED MASS        0.3974         C  1 -- H  7          +3.2% ( 18.3%)     99.9%
 EFFECTIVE MASS      1.4759
 FORCE CONSTANT      1.7584

 VIBRATION         55   55A           ATOM PAIR      ENERGY CONTRIBUTION    RADIAL
 FREQUENCY          2742.57         C  1 -- H  7         +79.9% ( 90.4%)    100.0%
 TRANSITION DIPOLE   1.2263         C  5 -- H 11          +8.7% ( 29.8%)    100.0%
 TRAVEL (Ang.)       0.1972         C 14 -- H 20          +3.7% ( 19.5%)     99.6%
 REDUCED MASS        0.6323         C  4 -- H 10          +2.4% ( 15.7%)    100.0%
 EFFECTIVE MASS      1.3775
 FORCE CONSTANT      2.8019

 VIBRATION         56   56A           ATOM PAIR      ENERGY CONTRIBUTION    RADIAL
 FREQUENCY          2743.40         C  3 -- H  9         +46.2% ( 68.6%)    100.0%
 TRANSITION DIPOLE   1.6824         C  6 -- H 12         +28.6% ( 54.1%)    100.0%
 TRAVEL (Ang.)       0.2784         C  5 -- H 11         +16.3% ( 40.8%)     99.9%
 REDUCED MASS        0.3171         C  4 -- H 10          +6.6% ( 25.9%)     99.6%
 EFFECTIVE MASS      1.3780
 FORCE CONSTANT      1.4063

 VIBRATION         57   57A           ATOM PAIR      ENERGY CONTRIBUTION    RADIAL
 FREQUENCY          2753.74         C  5 -- H 11         +28.6% ( 54.0%)    100.0%
 TRANSITION DIPOLE   0.7482         C  3 -- H  9         +22.8% ( 48.2%)    100.0%
 TRAVEL (Ang.)       0.3481         C  4 -- H 10         +18.8% ( 43.7%)    100.0%
 REDUCED MASS        0.2021         C  6 -- H 12         +16.1% ( 40.5%)    100.0%
 EFFECTIVE MASS      1.4658         C  1 -- H  7         +10.2% ( 32.3%)    100.0%
 FORCE CONSTANT      0.9031

 VIBRATION         58   58A           ATOM PAIR      ENERGY CONTRIBUTION    RADIAL
 FREQUENCY          2774.72         O 15 -- H 16         +91.9% ( 95.5%)     99.3%
 TRANSITION DIPOLE   1.6539         O 18 -- H 19          +4.5% ( 21.1%)     96.0%
 TRAVEL (Ang.)       0.1738         C 14 -- H 21          +1.8% ( 13.2%)     99.9%
 REDUCED MASS        0.8048         H 17 -- O 18          +1.2% ( 10.8%)     95.0%
 EFFECTIVE MASS      1.3376
 FORCE CONSTANT      3.6505

 VIBRATION         59   59A           ATOM PAIR      ENERGY CONTRIBUTION    RADIAL
 FREQUENCY          2809.07         C 14 -- H 21         +63.8% ( 78.6%)     97.5%
 TRANSITION DIPOLE   1.2398         C 14 -- H 20         +34.5% ( 57.8%)     93.1%
 TRAVEL (Ang.)       0.2169         C  8 -- C 14          +0.7% (  8.4%)     98.2%
 REDUCED MASS        0.5104         O 15 -- H 16          +0.5% (  6.9%)     99.3%
 EFFECTIVE MASS      1.2641
 FORCE CONSTANT      2.3728

 VIBRATION         60   60A           ATOM PAIR      ENERGY CONTRIBUTION    RADIAL
 FREQUENCY          2845.27         O 18 -- H 19         +88.7% ( 91.6%)     99.2%
 TRANSITION DIPOLE   0.9062         H 17 -- O 18          +8.4% ( 28.2%)     91.0%
 TRAVEL (Ang.)       0.1806         O 15 -- H 16          +2.8% ( 16.2%)     94.3%
 REDUCED MASS        0.7263
 EFFECTIVE MASS      1.2301
 FORCE CONSTANT      3.4641

      SYMMETRY NUMBER FOR POINT-GROUP C1  =  1


          SYSTEM IS A GROUND STATE



 Title: ASE calculation


          MOLECULE IS NOT LINEAR

          THERE ARE 60 GENUINE VIBRATIONS IN THIS SYSTEM
          THIS THERMODYNAMICS CALCULATION IS LIMITED TO
          MOLECULES WHICH HAVE NO INTERNAL ROTATIONS




                    CALCULATED THERMODYNAMIC PROPERTIES
                                          *
   TEMP. (K)   PARTITION FUNCTION   H.O.F.    ENTHALPY  HEAT CAPACITY ENTROPY
                                   KCAL/MOL   CAL/MOLE    CAL/K/MOL  CAL/K/MOL


 298.00  VIB.     0.1095D+06                  6861.3743    42.2083    46.0837
         ROT.     0.1894D+07                   888.2803     2.9808    31.7044
         INT.     0.2074D+12                  7749.6546    45.1891    77.7882
         TRA.     0.1905D+28                  1480.4672     4.9680    41.0638
         TOT.                     -234.789    9230.1218    50.1571   118.8520

   *: NOTE: HEATS OF FORMATION ARE RELATIVE TO THE
            ELEMENTS IN THEIR STANDARD STATE AT 298K
              (=  Standard Enthalpy of Formation).

            Hvib:  Zero-point energy is not included.
                   frequencies of less than zero cm-1 are not included.
            Hrot = (3/2)RT
            Htra = (3/2)RT + pV = (5/2)RT

            Heat capacity is Cp, not Cv

          For more information, see: HTTP://OpenMOPAC.net/Manual/thermochemistry.html


           FORCE CONSTANT IN CARTESIAN COORDINATES (Millidynes/A)

    ATOM   CHEMICAL       X               Y               Z
   NUMBER   SYMBOL  FORCE CONSTANT  FORCE CONSTANT  FORCE CONSTANT

      1       C       11.053603       10.274680        2.431422
      2       C       11.517169       11.035430        2.925769
      3       C        9.753160       11.588577        2.249261
      4       C       11.234548       10.284281        2.376314
      5       C       11.323689       10.348139        2.463136
      6       C        9.725635       11.767206        2.469213
      7       H        1.731877        3.380944        0.355708
      8       C        4.704181        7.786998       14.563980
      9       H        4.217569        0.924388        0.369624
     10       H        1.734841        3.375469        0.395221
     11       H        1.726638        3.395677        0.395986
     12       H        4.213274        0.917973        0.402198
     13       O        0.567381        2.430957        8.909935
     14       C        3.470226        6.248081       11.124545
     15       O        2.977833        4.267108        4.413753
     16       H        1.794829        0.764636        2.398764
     17       H        1.905327        0.425366        2.324579
     18       O        4.840127        1.309378        4.749775
     19       H        3.322155        1.325243        0.267887
     20       H        1.235073        3.267186        0.705559
     21       H        0.419586        1.229516        3.666432
     22       H        0.383677        4.006056        0.432999

 **********************
 *                    *
 * JOB ENDED NORMALLY *
 *                    *
 **********************



 TOTAL JOB TIME:             1.37 SECONDS

 == MOPAC DONE ==
