 *******************************************************************************
 **                                                                           **
 **                              MOPAC v22.1.0                                **
 **                                                                           **
 *******************************************************************************
 **          Digital Object Identifier (DOI): 10.5281/zenodo.6511958          **
 **    Visit the DOI location for information on how to cite this program.    **
 *******************************************************************************

                              PM7 CALCULATION RESULTS

 *******************************************************************************
 *  CALCULATION DONE:                                Sun Mar 24 13:25:00 2024  *
 *  PM7        - The PM7 Hamiltonian to be used
 *  SINGLET    - SPIN STATE DEFINED AS A SINGLET
 *
 *
 *
 *                 CHARGE ON SYSTEM = 0
 *
 *
 *
 *  EPS=78.4   - USE ANDREAS KLAMT'S COSMO IMPLICIT SOLVATION MODEL
 *  THREADS    - USE A MAXIMUM OF 40 THREADS
 *  T=         - A TIME OF 14.0 DAYS REQUESTED
 *  DUMP=N     - RESTART FILE WRITTEN EVERY 30.0 MINUTES REQUESTED
 *  ITRY=      - DO A MAXIMUM OF 15000 ITERATIONS FOR SCF
 *  AUX        - OUTPUT AUXILIARY INFORMATION
 *  PL         - MONITOR CONVERGENCE IN DENSITY MATRIX
 *******************************************************************************
PM7 CHARGE=0 SINGLET AUX DUMP=30M ITRY=15000 eps=78.4 T=14D PL THREADS=40

 Mopac file generated by Gabedit
   ATOM   CHEMICAL          X               Y               Z
  NUMBER   SYMBOL      (ANGSTROMS)     (ANGSTROMS)     (ANGSTROMS)

     1       C         -0.10189000  *   0.05190000  *   0.14134000  *
     2       H         -1.14386000  *   0.17402000  *   0.44525000  *
     3       N         -0.22720000  *  -2.37867000  *   0.18199000  *
     4       O         -1.41804000  *  -2.57110000  *   0.35820000  *
     5       O          0.62529000  *  -3.12396000  *   0.64517000  *
     6       H          1.87775000  *   0.85951000  *   0.10187000  *
     7       C          0.20305000  *  -1.20609000  *  -0.61092000  *
     8       H         -0.34017000  *  -1.21506000  *  -1.59621000  *
     9       H          1.29163000  *  -1.30062000  *  -0.86766000  *
    10       C          0.83768000  *   0.96210000  *   0.38844000  *
    11       H          0.64114000  *   1.89565000  *   0.90081000  *
    12       C          6.41268500  *  -2.45402700  *  -0.17956900  *
    13       C          7.74926500  *  -2.73822000  *   0.14309500  *
    14       C          8.69281900  *  -1.71867400  *  -0.01024200  *
    15       C          8.28122100  *  -0.46931100  *  -0.46585600  *
    16       C          6.92592300  *  -0.26605500  *  -0.75188900  *
    17       N          6.01083500  *  -1.24554000  *  -0.61703900  *
    18       H          5.62676400  *  -3.21680300  *  -0.09447800  *
    19       H          8.99818100  *   0.33957500  *  -0.60163300  *
    20       H          6.55245600  *   0.70497400  *  -1.10110700  *
    21       C          8.13925900  *  -4.09243300  *   0.60549100  *
    22       H          9.04162200  *  -4.08536800  *   1.23661200  *
    23       H          8.35827200  *  -4.75418400  *  -0.25075900  *
    24       H          7.34936200  *  -4.58729100  *   1.19150100  *
    25       H          9.74421600  *  -1.90158400  *   0.22457400  *
    26       H          3.33078500  *  -1.86412700  *  -0.45735400  *
    27       O          3.98278500  *  -1.54008700  *  -1.08347400  *
    28       H          4.69632500  *  -1.17868700  *  -0.53833400  *



          CARTESIAN COORDINATES 

    NO.       ATOM           X           Y           Z

     1         C         -0.1019      0.0519      0.1413
     2         H         -1.1439      0.1740      0.4452
     3         N         -0.2272     -2.3787      0.1820
     4         O         -1.4180     -2.5711      0.3582
     5         O          0.6253     -3.1240      0.6452
     6         H          1.8778      0.8595      0.1019
     7         C          0.2031     -1.2061     -0.6109
     8         H         -0.3402     -1.2151     -1.5962
     9         H          1.2916     -1.3006     -0.8677
    10         C          0.8377      0.9621      0.3884
    11         H          0.6411      1.8957      0.9008
    12         C          6.4127     -2.4540     -0.1796
    13         C          7.7493     -2.7382      0.1431
    14         C          8.6928     -1.7187     -0.0102
    15         C          8.2812     -0.4693     -0.4659
    16         C          6.9259     -0.2661     -0.7519
    17         N          6.0108     -1.2455     -0.6170
    18         H          5.6268     -3.2168     -0.0945
    19         H          8.9982      0.3396     -0.6016
    20         H          6.5525      0.7050     -1.1011
    21         C          8.1393     -4.0924      0.6055
    22         H          9.0416     -4.0854      1.2366
    23         H          8.3583     -4.7542     -0.2508
    24         H          7.3494     -4.5873      1.1915
    25         H          9.7442     -1.9016      0.2246
    26         H          3.3308     -1.8641     -0.4574
    27         O          3.9828     -1.5401     -1.0835
    28         H          4.6963     -1.1787     -0.5383

 General Reference for PM7:
 "Optimization of Parameters for Semiempirical Methods VI: More Modifications to the 
 NDDO Approximations and Re-optimization of Parameters", J. J. P. Stewart, J. Mol. Mod., 1:32, 19 (2013)
 https://link.springer.com/article/10.1007/s00894-012-1667-x

           Empirical Formula: C9 H14 N2 O3  =    28 atoms



      MOLECULAR POINT GROUP   :   C1  


 SINGLET STATE CALCULATION


      RHF CALCULATION, NO. OF DOUBLY OCCUPIED LEVELS = 39


          Geometry optimization using EF
 ITERATION   1 PLS= 0.100E+01 0.000E+00 ENERGY    12948.963546 DELTAE    0.0000000
 ITERATION   2 PLS= 0.118E+01 0.000E+00 ENERGY      146.075616 DELTAE    0.0000000
 ITERATION   3 PLS= 0.961E-01 0.000E+00 ENERGY       63.660368 DELTAE  -82.4152479
 ITERATION   4 PLS= 0.617E-01 0.000E+00 ENERGY     -100.672361 DELTAE -164.3327285
 ITERATION   5 PLS= 0.235E-01 0.000E+00 ENERGY       -3.287917 DELTAE   97.3844437
 ITERATION   6 PLS= 0.271E-01 0.000E+00 ENERGY       -7.060354 DELTAE   -3.7724374
 ITERATION   7 PLS= 0.183E-01 0.000E+00 ENERGY      -10.591784 DELTAE   -3.5314298
 ITERATION   8 PLS= 0.462E-02 0.000E+00 ENERGY       -8.465944 DELTAE    2.1258401
 ITERATION   9 PLS= 0.205E-02 0.000E+00 ENERGY       -8.478560 DELTAE   -0.0126156
 ITERATION  10 PLS= 0.865E-03 0.000E+00 ENERGY       -8.484664 DELTAE   -0.0061047
 ITERATION  11 PLS= 0.189E-03 0.000E+00 ENERGY       -8.481834 DELTAE    0.0028303
 ITERATION  12 PLS= 0.106E-03 0.000E+00 ENERGY       -8.481857 DELTAE   -0.0000230
 ITERATION   1 PLS= 0.625E-04 0.000E+00 ENERGY      -24.588560 DELTAE -124.5885598
 ITERATION   2 PLS= 0.258E-01 0.000E+00 ENERGY      -26.180709 DELTAE   -1.5921492
 ITERATION   3 PLS= 0.970E-02 0.000E+00 ENERGY      -26.521371 DELTAE   -0.3406622
 ITERATION   4 PLS= 0.575E-02 0.000E+00 ENERGY      -26.777933 DELTAE   -0.2565623
 ITERATION   5 PLS= 0.106E-02 0.000E+00 ENERGY      -26.657202 DELTAE    0.1207317
 ITERATION   6 PLS= 0.633E-03 0.000E+00 ENERGY      -26.658216 DELTAE   -0.0010145
 ITERATION   7 PLS= 0.413E-03 0.000E+00 ENERGY      -26.659959 DELTAE   -0.0017431
 ITERATION   8 PLS= 0.635E-04 0.000E+00 ENERGY      -26.658857 DELTAE    0.0011020

          DIAGONAL MATRIX USED AS START HESSIAN

 CYCLE:     1 TIME:   0.109 TIME LEFT:  2.00W  GRAD.:   156.992 HEAT: -26.65886
 ITERATION   1 PLS= 0.413E-04 0.000E+00 ENERGY      -23.541738 DELTAE -123.5417376
 ITERATION   2 PLS= 0.397E-01 0.000E+00 ENERGY      -33.211552 DELTAE   -9.6698142
 ITERATION   3 PLS= 0.171E-01 0.000E+00 ENERGY      -34.597071 DELTAE   -1.3855193
 ITERATION   4 PLS= 0.863E-02 0.000E+00 ENERGY      -35.271631 DELTAE   -0.6745600
 ITERATION   5 PLS= 0.201E-02 0.000E+00 ENERGY      -34.973050 DELTAE    0.2985812
 ITERATION   6 PLS= 0.136E-02 0.000E+00 ENERGY      -34.976941 DELTAE   -0.0038908
 ITERATION   7 PLS= 0.968E-03 0.000E+00 ENERGY      -34.988301 DELTAE   -0.0113601
 CYCLE:     2 TIME:   0.043 TIME LEFT:  2.00W  GRAD.:   111.498 HEAT: -34.98047
 ITERATION   1 PLS= 0.113E-03 0.000E+00 ENERGY      -27.836177 DELTAE -127.8361774
 ITERATION   2 PLS= 0.237E-01 0.000E+00 ENERGY      -34.585418 DELTAE   -6.7492407
 ITERATION   3 PLS= 0.654E-02 0.000E+00 ENERGY      -35.470990 DELTAE   -0.8855719
 ITERATION   4 PLS= 0.338E-02 0.000E+00 ENERGY      -35.975600 DELTAE   -0.5046102
 ITERATION   5 PLS= 0.210E-02 0.000E+00 ENERGY      -35.724260 DELTAE    0.2513403
 ITERATION   6 PLS= 0.149E-02 0.000E+00 ENERGY      -35.728628 DELTAE   -0.0043686
 ITERATION   7 PLS= 0.106E-02 0.000E+00 ENERGY      -35.741611 DELTAE   -0.0129827
 CYCLE:     3 TIME:   0.047 TIME LEFT:  2.00W  GRAD.:   169.826 HEAT: -35.73252
 ITERATION   1 PLS= 0.125E-03 0.000E+00 ENERGY      -19.364849 DELTAE -119.3648492
 ITERATION   2 PLS= 0.234E-01 0.000E+00 ENERGY      -35.802818 DELTAE  -16.4379687
 ITERATION   3 PLS= 0.111E-01 0.000E+00 ENERGY      -38.223696 DELTAE   -2.4208780
 ITERATION   4 PLS= 0.632E-02 0.000E+00 ENERGY      -39.601138 DELTAE   -1.3774422
 ITERATION   5 PLS= 0.248E-02 0.000E+00 ENERGY      -38.894426 DELTAE    0.7067120
 ITERATION   6 PLS= 0.174E-02 0.000E+00 ENERGY      -38.901262 DELTAE   -0.0068364
 ITERATION   7 PLS= 0.127E-02 0.000E+00 ENERGY      -38.918353 DELTAE   -0.0170905
 ITERATION   8 PLS= 0.152E-03 0.000E+00 ENERGY      -38.906562 DELTAE    0.0117905
 CYCLE:     4 TIME:   0.043 TIME LEFT:  2.00W  GRAD.:   185.870 HEAT: -38.90662
 ITERATION   1 PLS= 0.110E-03 0.000E+00 ENERGY      -15.747904 DELTAE -115.7479043
 ITERATION   2 PLS= 0.316E-01 0.000E+00 ENERGY      -34.526015 DELTAE  -18.7781106
 ITERATION   3 PLS= 0.105E-01 0.000E+00 ENERGY      -37.335292 DELTAE   -2.8092773
 ITERATION   4 PLS= 0.731E-02 0.000E+00 ENERGY      -39.306625 DELTAE   -1.9713331
 ITERATION   5 PLS= 0.373E-02 0.000E+00 ENERGY      -38.107506 DELTAE    1.1991197
 ITERATION   6 PLS= 0.236E-02 0.000E+00 ENERGY      -38.120580 DELTAE   -0.0130739
 ITERATION   7 PLS= 0.165E-02 0.000E+00 ENERGY      -38.144551 DELTAE   -0.0239717
 ITERATION   8 PLS= 0.244E-03 0.000E+00 ENERGY      -38.127413 DELTAE    0.0171386
 ITERATION   1 PLS= 0.160E-03 0.000E+00 ENERGY      -41.004259 DELTAE -141.0042585
 ITERATION   2 PLS= 0.109E-01 0.000E+00 ENERGY      -44.897327 DELTAE   -3.8930690
 ITERATION   3 PLS= 0.401E-02 0.000E+00 ENERGY      -45.505198 DELTAE   -0.6078709
 ITERATION   4 PLS= 0.212E-02 0.000E+00 ENERGY      -45.833530 DELTAE   -0.3283316
 ITERATION   5 PLS= 0.693E-03 0.000E+00 ENERGY      -45.658180 DELTAE    0.1753501
 ITERATION   6 PLS= 0.453E-03 0.000E+00 ENERGY      -45.659010 DELTAE   -0.0008299
 CYCLE:     5 TIME:   0.086 TIME LEFT:  2.00W  GRAD.:   127.319 HEAT: -45.66022
 ITERATION   1 PLS= 0.320E-03 0.000E+00 ENERGY      -39.385738 DELTAE -139.3857376
 ITERATION   2 PLS= 0.150E-01 0.000E+00 ENERGY      -45.747249 DELTAE   -6.3615110
 ITERATION   3 PLS= 0.822E-02 0.000E+00 ENERGY      -46.741404 DELTAE   -0.9941552
 ITERATION   4 PLS= 0.448E-02 0.000E+00 ENERGY      -47.388187 DELTAE   -0.6467835
 ITERATION   5 PLS= 0.170E-02 0.000E+00 ENERGY      -47.079074 DELTAE    0.3091131
 ITERATION   6 PLS= 0.118E-02 0.000E+00 ENERGY      -47.086260 DELTAE   -0.0071863
 ITERATION   7 PLS= 0.833E-03 0.000E+00 ENERGY      -47.105449 DELTAE   -0.0191885
 ITERATION   8 PLS= 0.946E-04 0.000E+00 ENERGY      -47.092989 DELTAE    0.0124601
 CYCLE:     6 TIME:   0.047 TIME LEFT:  2.00W  GRAD.:   115.073 HEAT: -47.09303
 ITERATION   1 PLS= 0.756E-04 0.000E+00 ENERGY      -35.906556 DELTAE -135.9065557
 ITERATION   2 PLS= 0.167E-01 0.000E+00 ENERGY      -45.506044 DELTAE   -9.5994882
 ITERATION   3 PLS= 0.690E-02 0.000E+00 ENERGY      -46.980085 DELTAE   -1.4740413
 ITERATION   4 PLS= 0.393E-02 0.000E+00 ENERGY      -47.922646 DELTAE   -0.9425606
 ITERATION   5 PLS= 0.165E-02 0.000E+00 ENERGY      -47.404202 DELTAE    0.5184436
 ITERATION   6 PLS= 0.120E-02 0.000E+00 ENERGY      -47.408680 DELTAE   -0.0044782
 CYCLE:     7 TIME:   0.039 TIME LEFT:  2.00W  GRAD.:   166.235 HEAT: -47.41812
 ITERATION   1 PLS= 0.886E-03 0.000E+00 ENERGY      -30.314280 DELTAE -130.3142803
 ITERATION   2 PLS= 0.156E-01 0.000E+00 ENERGY      -43.741622 DELTAE  -13.4273421
 ITERATION   3 PLS= 0.758E-02 0.000E+00 ENERGY      -45.835448 DELTAE   -2.0938251
 ITERATION   4 PLS= 0.423E-02 0.000E+00 ENERGY      -47.189348 DELTAE   -1.3539002
 ITERATION   5 PLS= 0.177E-02 0.000E+00 ENERGY      -46.517516 DELTAE    0.6718315
 ITERATION   6 PLS= 0.137E-02 0.000E+00 ENERGY      -46.528921 DELTAE   -0.0114050
 ITERATION   7 PLS= 0.101E-02 0.000E+00 ENERGY      -46.558906 DELTAE   -0.0299847
 ITERATION   8 PLS= 0.172E-03 0.000E+00 ENERGY      -46.538971 DELTAE    0.0199351
 ITERATION   1 PLS= 0.126E-03 0.000E+00 ENERGY      -48.104709 DELTAE -148.1047086
 ITERATION   2 PLS= 0.726E-02 0.000E+00 ENERGY      -51.557070 DELTAE   -3.4523615
 ITERATION   3 PLS= 0.474E-02 0.000E+00 ENERGY      -52.144901 DELTAE   -0.5878308
 ITERATION   4 PLS= 0.257E-02 0.000E+00 ENERGY      -52.526136 DELTAE   -0.3812353
 ITERATION   5 PLS= 0.747E-03 0.000E+00 ENERGY      -52.336704 DELTAE    0.1894325
 ITERATION   6 PLS= 0.515E-03 0.000E+00 ENERGY      -52.339160 DELTAE   -0.0024564
 CYCLE:     8 TIME:   0.086 TIME LEFT:  2.00W  GRAD.:    78.507 HEAT: -52.34460
 ITERATION   1 PLS= 0.358E-03 0.000E+00 ENERGY      -43.197602 DELTAE -143.1976019
 ITERATION   2 PLS= 0.109E-01 0.000E+00 ENERGY      -48.232478 DELTAE   -5.0348761
 ITERATION   3 PLS= 0.604E-02 0.000E+00 ENERGY      -48.936381 DELTAE   -0.7039028
 ITERATION   4 PLS= 0.337E-02 0.000E+00 ENERGY      -49.294531 DELTAE   -0.3581506
 ITERATION   5 PLS= 0.557E-03 0.000E+00 ENERGY      -49.122379 DELTAE    0.1721527
 ITERATION   6 PLS= 0.432E-03 0.000E+00 ENERGY      -49.124606 DELTAE   -0.0022274
 ITERATION   1 PLS= 0.335E-03 0.000E+00 ENERGY      -52.464881 DELTAE -152.4648813
 ITERATION   2 PLS= 0.564E-02 0.000E+00 ENERGY      -53.681404 DELTAE   -1.2165228
 ITERATION   3 PLS= 0.233E-02 0.000E+00 ENERGY      -53.858102 DELTAE   -0.1766981
 ITERATION   4 PLS= 0.135E-02 0.000E+00 ENERGY      -53.943560 DELTAE   -0.0854582
 ITERATION   5 PLS= 0.251E-03 0.000E+00 ENERGY      -53.901420 DELTAE    0.0421403
 CYCLE:     9 TIME:   0.078 TIME LEFT:  2.00W  GRAD.:    71.946 HEAT: -53.90164
 ITERATION   1 PLS= 0.165E-03 0.000E+00 ENERGY      -52.179700 DELTAE -152.1797001
 ITERATION   2 PLS= 0.772E-02 0.000E+00 ENERGY      -53.938375 DELTAE   -1.7586749
 ITERATION   3 PLS= 0.425E-02 0.000E+00 ENERGY      -54.227441 DELTAE   -0.2890662
 ITERATION   4 PLS= 0.258E-02 0.000E+00 ENERGY      -54.461637 DELTAE   -0.2341960
 ITERATION   5 PLS= 0.670E-03 0.000E+00 ENERGY      -54.325729 DELTAE    0.1359082
 ITERATION   6 PLS= 0.441E-03 0.000E+00 ENERGY      -54.327355 DELTAE   -0.0016255
 CYCLE:    10 TIME:   0.043 TIME LEFT:  2.00W  GRAD.:    58.066 HEAT: -54.32992
 ITERATION   1 PLS= 0.311E-03 0.000E+00 ENERGY      -51.757521 DELTAE -151.7575207
 ITERATION   2 PLS= 0.986E-02 0.000E+00 ENERGY      -53.901174 DELTAE   -2.1436537
 ITERATION   3 PLS= 0.377E-02 0.000E+00 ENERGY      -54.217600 DELTAE   -0.3164259
 ITERATION   4 PLS= 0.170E-02 0.000E+00 ENERGY      -54.403111 DELTAE   -0.1855108
 ITERATION   5 PLS= 0.729E-03 0.000E+00 ENERGY      -54.311860 DELTAE    0.0912506
 ITERATION   1 PLS= 0.545E-03 0.000E+00 ENERGY      -54.530712 DELTAE -154.5307117
 ITERATION   2 PLS= 0.355E-02 0.000E+00 ENERGY      -54.957054 DELTAE   -0.4263421
 ITERATION   3 PLS= 0.139E-02 0.000E+00 ENERGY      -55.025493 DELTAE   -0.0684397
 ITERATION   4 PLS= 0.708E-03 0.000E+00 ENERGY      -55.061567 DELTAE   -0.0360737
 ITERATION   5 PLS= 0.172E-03 0.000E+00 ENERGY      -55.043941 DELTAE    0.0176266
 CYCLE:    11 TIME:   0.074 TIME LEFT:  2.00W  GRAD.:    57.371 HEAT: -55.04401
 ITERATION   1 PLS= 0.105E-03 0.000E+00 ENERGY      -53.948202 DELTAE -153.9482025
 ITERATION   2 PLS= 0.562E-02 0.000E+00 ENERGY      -55.066971 DELTAE   -1.1187685
 ITERATION   3 PLS= 0.221E-02 0.000E+00 ENERGY      -55.245262 DELTAE   -0.1782914
 ITERATION   4 PLS= 0.177E-02 0.000E+00 ENERGY      -55.381919 DELTAE   -0.1366562
 ITERATION   5 PLS= 0.828E-03 0.000E+00 ENERGY      -55.317473 DELTAE    0.0644452
 CYCLE:    12 TIME:   0.043 TIME LEFT:  2.00W  GRAD.:    52.679 HEAT: -55.31942
 ITERATION   1 PLS= 0.556E-03 0.000E+00 ENERGY      -55.365980 DELTAE -155.3659801
 ITERATION   2 PLS= 0.653E-02 0.000E+00 ENERGY      -56.058848 DELTAE   -0.6928675
 ITERATION   3 PLS= 0.249E-02 0.000E+00 ENERGY      -56.171820 DELTAE   -0.1129720
 ITERATION   4 PLS= 0.165E-02 0.000E+00 ENERGY      -56.262131 DELTAE   -0.0903118
 ITERATION   5 PLS= 0.639E-03 0.000E+00 ENERGY      -56.216168 DELTAE    0.0459638
 CYCLE:    13 TIME:   0.039 TIME LEFT:  2.00W  GRAD.:    32.541 HEAT: -56.21710
 ITERATION   1 PLS= 0.452E-03 0.000E+00 ENERGY      -54.560274 DELTAE -154.5602741
 ITERATION   2 PLS= 0.875E-02 0.000E+00 ENERGY      -56.027223 DELTAE   -1.4669486
 ITERATION   3 PLS= 0.504E-02 0.000E+00 ENERGY      -56.259759 DELTAE   -0.2325359
 ITERATION   4 PLS= 0.288E-02 0.000E+00 ENERGY      -56.399460 DELTAE   -0.1397015
 ITERATION   5 PLS= 0.581E-03 0.000E+00 ENERGY      -56.327948 DELTAE    0.0715120
 CYCLE:    14 TIME:   0.039 TIME LEFT:  2.00W  GRAD.:    53.134 HEAT: -56.32873
 ITERATION   1 PLS= 0.367E-03 0.000E+00 ENERGY      -56.144167 DELTAE -156.1441667
 ITERATION   2 PLS= 0.486E-02 0.000E+00 ENERGY      -57.104986 DELTAE   -0.9608197
 ITERATION   3 PLS= 0.220E-02 0.000E+00 ENERGY      -57.268885 DELTAE   -0.1638990
 ITERATION   4 PLS= 0.124E-02 0.000E+00 ENERGY      -57.372387 DELTAE   -0.1035019
 ITERATION   5 PLS= 0.477E-03 0.000E+00 ENERGY      -57.315949 DELTAE    0.0564380
 CYCLE:    15 TIME:   0.039 TIME LEFT:  2.00W  GRAD.:    28.919 HEAT: -57.31638
 ITERATION   1 PLS= 0.300E-03 0.000E+00 ENERGY      -53.828104 DELTAE -153.8281042
 ITERATION   2 PLS= 0.125E-01 0.000E+00 ENERGY      -55.887020 DELTAE   -2.0589161
 ITERATION   3 PLS= 0.538E-02 0.000E+00 ENERGY      -56.245064 DELTAE   -0.3580438
 ITERATION   4 PLS= 0.354E-02 0.000E+00 ENERGY      -56.535813 DELTAE   -0.2907488
 ITERATION   5 PLS= 0.102E-02 0.000E+00 ENERGY      -56.377141 DELTAE    0.1586719
 ITERATION   6 PLS= 0.469E-03 0.000E+00 ENERGY      -56.379220 DELTAE   -0.0020788
 ITERATION   1 PLS= 0.326E-03 0.000E+00 ENERGY      -56.609028 DELTAE -156.6090283
 ITERATION   2 PLS= 0.505E-02 0.000E+00 ENERGY      -56.970605 DELTAE   -0.3615765
 ITERATION   3 PLS= 0.294E-02 0.000E+00 ENERGY      -57.039739 DELTAE   -0.0691338
 ITERATION   4 PLS= 0.167E-02 0.000E+00 ENERGY      -57.087481 DELTAE   -0.0477425
 ITERATION   5 PLS= 0.290E-03 0.000E+00 ENERGY      -57.060570 DELTAE    0.0269110
 ITERATION   1 PLS= 0.134E-03 0.000E+00 ENERGY      -57.263122 DELTAE -157.2631221
 ITERATION   2 PLS= 0.381E-02 0.000E+00 ENERGY      -57.420716 DELTAE   -0.1575943
 ITERATION   3 PLS= 0.151E-02 0.000E+00 ENERGY      -57.449704 DELTAE   -0.0289872
 ITERATION   4 PLS= 0.937E-03 0.000E+00 ENERGY      -57.475198 DELTAE   -0.0254942
 ITERATION   5 PLS= 0.289E-03 0.000E+00 ENERGY      -57.460985 DELTAE    0.0142124
 CYCLE:    16 TIME:   0.117 TIME LEFT:  2.00W  GRAD.:    29.043 HEAT: -57.46116
 ITERATION   1 PLS= 0.153E-03 0.000E+00 ENERGY      -57.420651 DELTAE -157.4206506
 ITERATION   2 PLS= 0.349E-02 0.000E+00 ENERGY      -57.628626 DELTAE   -0.2079756
 ITERATION   3 PLS= 0.117E-02 0.000E+00 ENERGY      -57.660748 DELTAE   -0.0321217
 ITERATION   4 PLS= 0.634E-03 0.000E+00 ENERGY      -57.682234 DELTAE   -0.0214857
 CYCLE:    17 TIME:   0.039 TIME LEFT:  2.00W  GRAD.:    14.119 HEAT: -57.67269
 ITERATION   1 PLS= 0.325E-03 0.000E+00 ENERGY      -57.168189 DELTAE -157.1681886
 ITERATION   2 PLS= 0.326E-02 0.000E+00 ENERGY      -57.541800 DELTAE   -0.3736117
 ITERATION   3 PLS= 0.190E-02 0.000E+00 ENERGY      -57.602511 DELTAE   -0.0607106
 ITERATION   4 PLS= 0.106E-02 0.000E+00 ENERGY      -57.638721 DELTAE   -0.0362105
 ITERATION   5 PLS= 0.227E-03 0.000E+00 ENERGY      -57.619277 DELTAE    0.0194445
 ITERATION   1 PLS= 0.155E-03 0.000E+00 ENERGY      -57.626297 DELTAE -157.6262971
 ITERATION   2 PLS= 0.177E-02 0.000E+00 ENERGY      -57.691802 DELTAE   -0.0655045
 ITERATION   3 PLS= 0.886E-03 0.000E+00 ENERGY      -57.703711 DELTAE   -0.0119093
 ITERATION   4 PLS= 0.444E-03 0.000E+00 ENERGY      -57.710794 DELTAE   -0.0070827
 CYCLE:    18 TIME:   0.070 TIME LEFT:  2.00W  GRAD.:    18.700 HEAT: -57.70703
 ITERATION   1 PLS= 0.398E-04 0.000E+00 ENERGY      -57.730739 DELTAE -157.7307387
 ITERATION   2 PLS= 0.154E-02 0.000E+00 ENERGY      -57.803453 DELTAE   -0.0727143
 ITERATION   3 PLS= 0.816E-03 0.000E+00 ENERGY      -57.815050 DELTAE   -0.0115968
 ITERATION   4 PLS= 0.495E-03 0.000E+00 ENERGY      -57.822609 DELTAE   -0.0075592
 CYCLE:    19 TIME:   0.039 TIME LEFT:  2.00W  GRAD.:     9.436 HEAT: -57.81835
 ITERATION   1 PLS= 0.120E-03 0.000E+00 ENERGY      -57.669784 DELTAE -157.6697839
 ITERATION   2 PLS= 0.158E-02 0.000E+00 ENERGY      -57.812293 DELTAE   -0.1425089
 ITERATION   3 PLS= 0.914E-03 0.000E+00 ENERGY      -57.837392 DELTAE   -0.0250993
 ITERATION   4 PLS= 0.504E-03 0.000E+00 ENERGY      -57.852587 DELTAE   -0.0151952
 CYCLE:    20 TIME:   0.039 TIME LEFT:  2.00W  GRAD.:    14.196 HEAT: -57.84476
 ITERATION   1 PLS= 0.927E-04 0.000E+00 ENERGY      -57.840116 DELTAE -157.8401161
 ITERATION   2 PLS= 0.207E-02 0.000E+00 ENERGY      -57.925969 DELTAE   -0.0858532
 ITERATION   3 PLS= 0.112E-02 0.000E+00 ENERGY      -57.941526 DELTAE   -0.0155565
 ITERATION   4 PLS= 0.609E-03 0.000E+00 ENERGY      -57.950787 DELTAE   -0.0092610
 CYCLE:    21 TIME:   0.035 TIME LEFT:  2.00W  GRAD.:     5.837 HEAT: -57.94610
 ITERATION   1 PLS= 0.780E-04 0.000E+00 ENERGY      -57.670097 DELTAE -157.6700967
 ITERATION   2 PLS= 0.609E-02 0.000E+00 ENERGY      -57.989625 DELTAE   -0.3195279
 ITERATION   3 PLS= 0.343E-02 0.000E+00 ENERGY      -58.051106 DELTAE   -0.0614815
 ITERATION   4 PLS= 0.185E-02 0.000E+00 ENERGY      -58.092528 DELTAE   -0.0414215
 ITERATION   5 PLS= 0.201E-03 0.000E+00 ENERGY      -58.070972 DELTAE    0.0215551
 CYCLE:    22 TIME:   0.043 TIME LEFT:  2.00W  GRAD.:    17.538 HEAT: -58.07117
 ITERATION   1 PLS= 0.148E-03 0.000E+00 ENERGY      -57.989923 DELTAE -157.9899230
 ITERATION   2 PLS= 0.182E-02 0.000E+00 ENERGY      -58.131507 DELTAE   -0.1415841
 ITERATION   3 PLS= 0.988E-03 0.000E+00 ENERGY      -58.156767 DELTAE   -0.0252599
 ITERATION   4 PLS= 0.595E-03 0.000E+00 ENERGY      -58.174818 DELTAE   -0.0180516
 CYCLE:    23 TIME:   0.035 TIME LEFT:  2.00W  GRAD.:     9.313 HEAT: -58.16603
 ITERATION   1 PLS= 0.220E-03 0.000E+00 ENERGY      -57.991099 DELTAE -157.9910990
 ITERATION   2 PLS= 0.281E-02 0.000E+00 ENERGY      -58.144024 DELTAE   -0.1529248
 ITERATION   3 PLS= 0.116E-02 0.000E+00 ENERGY      -58.170537 DELTAE   -0.0265130
 ITERATION   4 PLS= 0.571E-03 0.000E+00 ENERGY      -58.185770 DELTAE   -0.0152336
 CYCLE:    24 TIME:   0.039 TIME LEFT:  2.00W  GRAD.:    14.036 HEAT: -58.17860
 ITERATION   1 PLS= 0.888E-04 0.000E+00 ENERGY      -57.933870 DELTAE -157.9338703
 ITERATION   2 PLS= 0.219E-02 0.000E+00 ENERGY      -58.006321 DELTAE   -0.0724509
 ITERATION   3 PLS= 0.824E-03 0.000E+00 ENERGY      -58.018423 DELTAE   -0.0121022
 ITERATION   4 PLS= 0.448E-03 0.000E+00 ENERGY      -58.025194 DELTAE   -0.0067708
 ITERATION   1 PLS= 0.131E-03 0.000E+00 ENERGY      -58.047317 DELTAE -158.0473175
 ITERATION   2 PLS= 0.969E-03 0.000E+00 ENERGY      -58.060872 DELTAE   -0.0135542
 ITERATION   3 PLS= 0.524E-03 0.000E+00 ENERGY      -58.063446 DELTAE   -0.0025744
 ITERATION   4 PLS= 0.279E-03 0.000E+00 ENERGY      -58.064867 DELTAE   -0.0014210
 ITERATION   1 PLS= 0.317E-04 0.000E+00 ENERGY      -58.123118 DELTAE -158.1231181
 ITERATION   2 PLS= 0.105E-02 0.000E+00 ENERGY      -58.132262 DELTAE   -0.0091438
 ITERATION   3 PLS= 0.296E-03 0.000E+00 ENERGY      -58.133909 DELTAE   -0.0016470
 ITERATION   4 PLS= 0.161E-03 0.000E+00 ENERGY      -58.134886 DELTAE   -0.0009773
 ITERATION   1 PLS= 0.550E-04 0.000E+00 ENERGY      -58.116750 DELTAE -158.1167499
 ITERATION   2 PLS= 0.613E-03 0.000E+00 ENERGY      -58.120491 DELTAE   -0.0037415
 ITERATION   3 PLS= 0.245E-03 0.000E+00 ENERGY      -58.121073 DELTAE   -0.0005816
 ITERATION   4 PLS= 0.122E-03 0.000E+00 ENERGY      -58.121497 DELTAE   -0.0004241
 ITERATION   1 PLS= 0.424E-04 0.000E+00 ENERGY      -58.195409 DELTAE -158.1954093
 ITERATION   2 PLS= 0.460E-03 0.000E+00 ENERGY      -58.196700 DELTAE   -0.0012909
 ITERATION   3 PLS= 0.183E-03 0.000E+00 ENERGY      -58.196877 DELTAE   -0.0001771
 ITERATION   4 PLS= 0.860E-04 0.000E+00 ENERGY      -58.197010 DELTAE   -0.0001332
 CYCLE:    25 TIME:   0.152 TIME LEFT:  2.00W  GRAD.:    11.036 HEAT: -58.19695
 ITERATION   1 PLS= 0.242E-04 0.000E+00 ENERGY      -58.126888 DELTAE -158.1268880
 ITERATION   2 PLS= 0.114E-02 0.000E+00 ENERGY      -58.135317 DELTAE   -0.0084287
 ITERATION   3 PLS= 0.459E-03 0.000E+00 ENERGY      -58.136376 DELTAE   -0.0010595
 ITERATION   4 PLS= 0.215E-03 0.000E+00 ENERGY      -58.136946 DELTAE   -0.0005692
 ITERATION   1 PLS= 0.374E-04 0.000E+00 ENERGY      -58.125456 DELTAE -158.1254560
 ITERATION   2 PLS= 0.453E-03 0.000E+00 ENERGY      -58.127273 DELTAE   -0.0018166
 ITERATION   3 PLS= 0.185E-03 0.000E+00 ENERGY      -58.127519 DELTAE   -0.0002462
 ITERATION   4 PLS= 0.859E-04 0.000E+00 ENERGY      -58.127648 DELTAE   -0.0001292
 ITERATION   1 PLS= 0.133E-04 0.000E+00 ENERGY      -58.117850 DELTAE -158.1178499
 ITERATION   2 PLS= 0.313E-03 0.000E+00 ENERGY      -58.118423 DELTAE   -0.0005732
 ITERATION   3 PLS= 0.126E-03 0.000E+00 ENERGY      -58.118496 DELTAE   -0.0000730
 ITERATION   4 PLS= 0.595E-04 0.000E+00 ENERGY      -58.118540 DELTAE   -0.0000443
 ITERATION   1 PLS= 0.102E-04 0.000E+00 ENERGY      -58.113577 DELTAE -158.1135775
 ITERATION   2 PLS= 0.180E-03 0.000E+00 ENERGY      -58.113743 DELTAE   -0.0001651
 ITERATION   3 PLS= 0.717E-04 0.000E+00 ENERGY      -58.113763 DELTAE   -0.0000201
 ITERATION   4 PLS= 0.337E-04 0.000E+00 ENERGY      -58.113775 DELTAE   -0.0000128
 ITERATION   1 PLS= 0.640E-05 0.000E+00 ENERGY      -58.199466 DELTAE -158.1994664
 ITERATION   2 PLS= 0.300E-03 0.000E+00 ENERGY      -58.199608 DELTAE   -0.0001412
 ITERATION   3 PLS= 0.149E-03 0.000E+00 ENERGY      -58.199641 DELTAE   -0.0000338
 ITERATION   4 PLS= 0.876E-04 0.000E+00 ENERGY      -58.199678 DELTAE   -0.0000365
 CYCLE:    26 TIME:   0.152 TIME LEFT:  2.00W  GRAD.:    10.519 HEAT: -58.19966
 ITERATION   1 PLS= 0.848E-05 0.000E+00 ENERGY      -58.116123 DELTAE -158.1161228
 ITERATION   2 PLS= 0.305E-03 0.000E+00 ENERGY      -58.116413 DELTAE   -0.0002902
 ITERATION   3 PLS= 0.146E-03 0.000E+00 ENERGY      -58.116461 DELTAE   -0.0000477
 ITERATION   4 PLS= 0.838E-04 0.000E+00 ENERGY      -58.116502 DELTAE   -0.0000411
 ITERATION   1 PLS= 0.104E-04 0.000E+00 ENERGY      -58.113862 DELTAE -158.1138617
 ITERATION   2 PLS= 0.989E-04 0.000E+00 ENERGY      -58.113912 DELTAE   -0.0000500
 ITERATION   3 PLS= 0.387E-04 0.000E+00 ENERGY      -58.113917 DELTAE   -0.0000054
 ITERATION   4 PLS= 0.180E-04 0.000E+00 ENERGY      -58.113920 DELTAE   -0.0000027

     TRUST RADIUS NOW LESS THAN  0.00010 OPTIMIZATION TERMINATING
      THE GEOMETRY MAY NOT BE COMPLETELY OPTIMIZED
      (TO CONTINUE, ADD 'LET DDMIN=0.0' TO THE KEYWORD LINE)
 ITERATION   1 PLS= 0.305E-05 0.000E+00 ENERGY      -58.199460 DELTAE -158.1994605
 ITERATION   2 PLS= 0.300E-03 0.000E+00 ENERGY      -58.199607 DELTAE   -0.0001470
 ITERATION   3 PLS= 0.149E-03 0.000E+00 ENERGY      -58.199642 DELTAE   -0.0000341
 ITERATION   4 PLS= 0.875E-04 0.000E+00 ENERGY      -58.199678 DELTAE   -0.0000361

 -------------------------------------------------------------------------------
 PM7 CHARGE=0 SINGLET AUX DUMP=30M ITRY=15000 eps=78.4 T=14D PL THREADS=40

 Mopac file generated by Gabedit


     GEOMETRY OPTIMISED USING EIGENVECTOR FOLLOWING (EF).     
     SCF FIELD WAS ACHIEVED                                   


                              PM7 CALCULATION
                                                       MOPAC v22.1.0 Linux
                                                       Sun Mar 24 13:25:01 2024




          FINAL HEAT OF FORMATION =        -58.19966 KCAL/MOL =    -243.50737 KJ/MOL
          VAN DER WAALS AREA      =        270.07 SQUARE ANGSTROMS



          DIELECTRIC ENERGY       =         -0.67034 EV
          COSMO AREA              =        270.07 SQUARE ANGSTROMS
          COSMO VOLUME            =        265.47 CUBIC ANGSTROMS

          GRADIENT NORM           =         10.51878          =       1.98786 PER ATOM
          IONIZATION POTENTIAL    =          9.984835 EV
          HOMO LUMO ENERGIES (EV) =         -9.985 -0.529
          NO. OF FILLED LEVELS    =         39
          MOLECULAR WEIGHT        =        198.2212         POINT GROUP:  C1  

          MOLECULAR DIMENSIONS (Angstroms)

            Atom       Atom       Distance
            H    25    O     4    11.27501
            H    23    H    11     7.15783
            H    22    H     8     3.45867


          SCF CALCULATIONS        =         45

          WALL-CLOCK TIME         =      1.730 SECONDS
          COMPUTATION TIME        =          2 MINUTES AND 21.465 SECONDS



       FINAL  POINT  AND  DERIVATIVES

   PARAMETER     ATOM    TYPE            VALUE        GRADIENT
      1          1  C    CARTESIAN X    -0.094695      0.340519  KCAL/ANGSTROM
      2          1  C    CARTESIAN Y     0.050837     -0.208463  KCAL/ANGSTROM
      3          1  C    CARTESIAN Z     0.146873     -0.635632  KCAL/ANGSTROM
      4          2  H    CARTESIAN X    -1.134575      0.012016  KCAL/ANGSTROM
      5          2  H    CARTESIAN Y     0.173829     -0.031955  KCAL/ANGSTROM
      6          2  H    CARTESIAN Z     0.458138      0.077126  KCAL/ANGSTROM
      7          3  N    CARTESIAN X    -0.212613      4.473360  KCAL/ANGSTROM
      8          3  N    CARTESIAN Y    -2.380603      0.402136  KCAL/ANGSTROM
      9          3  N    CARTESIAN Z     0.196926     -1.384188  KCAL/ANGSTROM
     10          4  O    CARTESIAN X    -1.405626     -3.503594  KCAL/ANGSTROM
     11          4  O    CARTESIAN Y    -2.587161     -0.872308  KCAL/ANGSTROM
     12          4  O    CARTESIAN Z     0.373692      0.952307  KCAL/ANGSTROM
     13          5  O    CARTESIAN X     0.647807     -1.275613  KCAL/ANGSTROM
     14          5  O    CARTESIAN Y    -3.103497      0.438389  KCAL/ANGSTROM
     15          5  O    CARTESIAN Z     0.670945     -0.091553  KCAL/ANGSTROM
     16          6  H    CARTESIAN X     1.881409      0.194002  KCAL/ANGSTROM
     17          6  H    CARTESIAN Y     0.870393      0.042840  KCAL/ANGSTROM
     18          6  H    CARTESIAN Z     0.098492     -0.007088  KCAL/ANGSTROM
     19          7  C    CARTESIAN X     0.201349     -0.468343  KCAL/ANGSTROM
     20          7  C    CARTESIAN Y    -1.209066     -0.374075  KCAL/ANGSTROM
     21          7  C    CARTESIAN Z    -0.605761     -1.565273  KCAL/ANGSTROM
     22          8  H    CARTESIAN X    -0.350282      1.390400  KCAL/ANGSTROM
     23          8  H    CARTESIAN Y    -1.224294     -0.133391  KCAL/ANGSTROM
     24          8  H    CARTESIAN Z    -1.580595      2.103752  KCAL/ANGSTROM
     25          9  H    CARTESIAN X     1.286078      0.169841  KCAL/ANGSTROM
     26          9  H    CARTESIAN Y    -1.302915     -0.204158  KCAL/ANGSTROM
     27          9  H    CARTESIAN Z    -0.871823      0.344166  KCAL/ANGSTROM
     28         10  C    CARTESIAN X     0.842619      0.100971  KCAL/ANGSTROM
     29         10  C    CARTESIAN Y     0.964011     -0.069419  KCAL/ANGSTROM
     30         10  C    CARTESIAN Z     0.392122      0.339523  KCAL/ANGSTROM
     31         11  H    CARTESIAN X     0.642132     -0.107838  KCAL/ANGSTROM
     32         11  H    CARTESIAN Y     1.895189      0.122775  KCAL/ANGSTROM
     33         11  H    CARTESIAN Z     0.908217     -0.112144  KCAL/ANGSTROM
     34         12  C    CARTESIAN X     6.490875      0.673331  KCAL/ANGSTROM
     35         12  C    CARTESIAN Y    -2.421789      2.227049  KCAL/ANGSTROM
     36         12  C    CARTESIAN Z    -0.076597      0.704027  KCAL/ANGSTROM
     37         13  C    CARTESIAN X     7.833625     -1.359648  KCAL/ANGSTROM
     38         13  C    CARTESIAN Y    -2.740791      0.683926  KCAL/ANGSTROM
     39         13  C    CARTESIAN Z     0.177324     -1.773020  KCAL/ANGSTROM
     40         14  C    CARTESIAN X     8.792313     -0.031074  KCAL/ANGSTROM
     41         14  C    CARTESIAN Y    -1.741456      0.922852  KCAL/ANGSTROM
     42         14  C    CARTESIAN Z    -0.006411      1.631954  KCAL/ANGSTROM
     43         15  C    CARTESIAN X     8.389604     -0.252498  KCAL/ANGSTROM
     44         15  C    CARTESIAN Y    -0.478105     -0.339244  KCAL/ANGSTROM
     45         15  C    CARTESIAN Z    -0.433590     -2.314461  KCAL/ANGSTROM
     46         16  C    CARTESIAN X     7.029649      0.492757  KCAL/ANGSTROM
     47         16  C    CARTESIAN Y    -0.242817      0.877469  KCAL/ANGSTROM
     48         16  C    CARTESIAN Z    -0.659542      1.880536  KCAL/ANGSTROM
     49         17  N    CARTESIAN X     6.100640     -0.318163  KCAL/ANGSTROM
     50         17  N    CARTESIAN Y    -1.205482     -3.293230  KCAL/ANGSTROM
     51         17  N    CARTESIAN Z    -0.493812     -0.027927  KCAL/ANGSTROM
     52         18  H    CARTESIAN X     5.697633      0.421870  KCAL/ANGSTROM
     53         18  H    CARTESIAN Y    -3.171866     -0.595713  KCAL/ANGSTROM
     54         18  H    CARTESIAN Z     0.049983      0.021244  KCAL/ANGSTROM
     55         19  H    CARTESIAN X     9.116410     -0.500425  KCAL/ANGSTROM
     56         19  H    CARTESIAN Y     0.319684     -0.121535  KCAL/ANGSTROM
     57         19  H    CARTESIAN Z    -0.579829      0.348274  KCAL/ANGSTROM
     58         20  H    CARTESIAN X     6.660433     -0.039863  KCAL/ANGSTROM
     59         20  H    CARTESIAN Y     0.735004      0.090180  KCAL/ANGSTROM
     60         20  H    CARTESIAN Z    -0.994893     -0.170003  KCAL/ANGSTROM
     61         21  C    CARTESIAN X     8.191646      0.001632  KCAL/ANGSTROM
     62         21  C    CARTESIAN Y    -4.113912     -2.227868  KCAL/ANGSTROM
     63         21  C    CARTESIAN Z     0.612504     -2.255663  KCAL/ANGSTROM
     64         22  H    CARTESIAN X     9.091339      0.209829  KCAL/ANGSTROM
     65         22  H    CARTESIAN Y    -4.141787     -0.386436  KCAL/ANGSTROM
     66         22  H    CARTESIAN Z     1.247780      0.493977  KCAL/ANGSTROM
     67         23  H    CARTESIAN X     8.395461     -0.869809  KCAL/ANGSTROM
     68         23  H    CARTESIAN Y    -4.761052      1.894968  KCAL/ANGSTROM
     69         23  H    CARTESIAN Z    -0.251831      1.900785  KCAL/ANGSTROM
     70         24  H    CARTESIAN X     7.384113     -0.801419  KCAL/ANGSTROM
     71         24  H    CARTESIAN Y    -4.597959      0.019364  KCAL/ANGSTROM
     72         24  H    CARTESIAN Z     1.187056      0.185300  KCAL/ANGSTROM
     73         25  H    CARTESIAN X     9.849529     -0.027093  KCAL/ANGSTROM
     74         25  H    CARTESIAN Y    -1.950029      0.211470  KCAL/ANGSTROM
     75         25  H    CARTESIAN Z     0.169975     -0.657825  KCAL/ANGSTROM
     76         26  H    CARTESIAN X     3.244571      1.457903  KCAL/ANGSTROM
     77         26  H    CARTESIAN Y    -1.990627      0.577866  KCAL/ANGSTROM
     78         26  H    CARTESIAN Z    -0.528576      1.121084  KCAL/ANGSTROM
     79         27  O    CARTESIAN X     3.378081     -0.339423  KCAL/ANGSTROM
     80         27  O    CARTESIAN Y    -1.526095      1.076634  KCAL/ANGSTROM
     81         27  O    CARTESIAN Z    -1.362067     -0.482660  KCAL/ANGSTROM
     82         28  H    CARTESIAN X     4.287488     -0.043616  KCAL/ANGSTROM
     83         28  H    CARTESIAN Y    -1.191110     -0.730041  KCAL/ANGSTROM
     84         28  H    CARTESIAN Z    -1.279360     -0.626517  KCAL/ANGSTROM




   ATOM   CHEMICAL          X               Y               Z
  NUMBER   SYMBOL      (ANGSTROMS)     (ANGSTROMS)     (ANGSTROMS)

     1       C         -0.09469549  *   0.05083661  *   0.14687296  *
     2       H         -1.13457511  *   0.17382899  *   0.45813829  *
     3       N         -0.21261255  *  -2.38060310  *   0.19692575  *
     4       O         -1.40562560  *  -2.58716120  *   0.37369230  *
     5       O          0.64780710  *  -3.10349716  *   0.67094464  *
     6       H          1.88140933  *   0.87039274  *   0.09849193  *
     7       C          0.20134948  *  -1.20906555  *  -0.60576080  *
     8       H         -0.35028181  *  -1.22429361  *  -1.58059530  *
     9       H          1.28607753  *  -1.30291494  *  -0.87182270  *
    10       C          0.84261853  *   0.96401142  *   0.39212231  *
    11       H          0.64213239  *   1.89518921  *   0.90821738  *
    12       C          6.49087514  *  -2.42178910  *  -0.07659684  *
    13       C          7.83362455  *  -2.74079092  *   0.17732419  *
    14       C          8.79231301  *  -1.74145560  *  -0.00641144  *
    15       C          8.38960379  *  -0.47810531  *  -0.43359041  *
    16       C          7.02964865  *  -0.24281721  *  -0.65954196  *
    17       N          6.10063993  *  -1.20548235  *  -0.49381245  *
    18       H          5.69763281  *  -3.17186639  *   0.04998323  *
    19       H          9.11640984  *   0.31968436  *  -0.57982935  *
    20       H          6.66043350  *   0.73500414  *  -0.99489307  *
    21       C          8.19164617  *  -4.11391202  *   0.61250405  *
    22       H          9.09133943  *  -4.14178726  *   1.24778002  *
    23       H          8.39546097  *  -4.76105187  *  -0.25183098  *
    24       H          7.38411308  *  -4.59795913  *   1.18705587  *
    25       H          9.84952884  *  -1.95002897  *   0.16997500  *
    26       H          3.24457063  *  -1.99062699  *  -0.52857615  *
    27       O          3.37808146  *  -1.52609481  *  -1.36206717  *
    28       H          4.28748824  *  -1.19111043  *  -1.27935959  *

                             CARTESIAN COORDINATES

   1    C       -0.094695486     0.050836612     0.146872964
   2    H       -1.134575115     0.173828994     0.458138289
   3    N       -0.212612554    -2.380603099     0.196925748
   4    O       -1.405625597    -2.587161200     0.373692302
   5    O        0.647807098    -3.103497161     0.670944639
   6    H        1.881409329     0.870392737     0.098491931
   7    C        0.201349481    -1.209065553    -0.605760796
   8    H       -0.350281808    -1.224293608    -1.580595303
   9    H        1.286077527    -1.302914938    -0.871822702
  10    C        0.842618528     0.964011425     0.392122309
  11    H        0.642132388     1.895189208     0.908217376
  12    C        6.490875136    -2.421789104    -0.076596838
  13    C        7.833624546    -2.740790924     0.177324189
  14    C        8.792313012    -1.741455605    -0.006411439
  15    C        8.389603785    -0.478105307    -0.433590410
  16    C        7.029648646    -0.242817206    -0.659541956
  17    N        6.100639934    -1.205482353    -0.493812450
  18    H        5.697632810    -3.171866391     0.049983230
  19    H        9.116409840     0.319684356    -0.579829352
  20    H        6.660433499     0.735004145    -0.994893071
  21    C        8.191646167    -4.113912018     0.612504055
  22    H        9.091339430    -4.141787255     1.247780018
  23    H        8.395460969    -4.761051872    -0.251830976
  24    H        7.384113082    -4.597959132     1.187055865
  25    H        9.849528840    -1.950028966     0.169975003
  26    H        3.244570633    -1.990626991    -0.528576153
  27    O        3.378081460    -1.526094809    -1.362067170
  28    H        4.287488240    -1.191110430    -1.279359593


           Empirical Formula: C9 H14 N2 O3  =    28 atoms



      MOLECULAR POINT GROUP   :   C1  


                  EIGENVALUES  
 -37.48452 -36.21777 -30.88989 -29.31326 -29.09277 -28.88312 -27.20558 -26.44483
 -24.41643 -23.03577 -22.43076 -21.18885 -20.20345 -18.62046 -18.42725 -17.89793
 -17.72123 -17.39311 -16.92140 -15.94277 -15.73188 -15.22015 -14.96853 -14.57157
 -14.38881 -13.86891 -13.79418 -13.70575 -13.43109 -12.63647 -12.59445 -12.23148
 -12.03673 -11.97562 -11.85346 -10.96023 -10.86414 -10.73143  -9.98484  -0.52910
  -0.32938  -0.27491   0.04586   0.84227   2.12683   3.18671   3.25686   3.76150
   3.80918   3.95437   4.06100   4.32380   4.47440   4.61990   4.83979   4.99856
   5.15060   5.23108   5.36285   5.48038   5.57402   5.61478   5.62940   5.80291
   5.85828   6.00526   6.04353   6.13168   6.69149   6.79245


              NET ATOMIC CHARGES AND DIPOLE CONTRIBUTIONS

  ATOM NO.   TYPE          CHARGE      No. of ELECS.   s-Pop       p-Pop       
    1          C          -0.174015        4.1740     1.08668     3.08734
    2          H           0.174433        0.8256     0.82557
    3          N           0.660822        4.3392     1.46335     2.87583
    4          O          -0.464936        6.4649     1.94036     4.52458
    5          O          -0.452363        6.4524     1.93944     4.51292
    6          H           0.164173        0.8358     0.83583
    7          C          -0.244418        4.2444     1.09244     3.15198
    8          H           0.220900        0.7791     0.77910
    9          H           0.213545        0.7865     0.78646
   10          C          -0.260925        4.2609     1.10585     3.15508
   11          H           0.161497        0.8385     0.83850
   12          C           0.004686        3.9953     1.10013     2.89519
   13          C          -0.033030        4.0330     1.07387     2.95916
   14          C          -0.116459        4.1165     1.09407     3.02239
   15          C          -0.219157        4.2192     1.09225     3.12691
   16          C           0.025655        3.9743     1.09735     2.87699
   17          N          -0.438017        5.4380     1.73139     3.70663
   18          H           0.189052        0.8109     0.81095
   19          H           0.181654        0.8183     0.81835
   20          H           0.185775        0.8142     0.81423
   21          C          -0.463283        4.4633     1.04824     3.41504
   22          H           0.173047        0.8270     0.82695
   23          H           0.176799        0.8232     0.82320
   24          H           0.173730        0.8263     0.82627
   25          H           0.177456        0.8225     0.82254
   26          H           0.362925        0.6371     0.63708
   27          O          -0.760636        6.7606     1.81912     4.94152
   28          H           0.381094        0.6189     0.61891
 DIPOLE           X         Y         Z       TOTAL
 POINT-CHG.     6.255     3.314    -0.627     7.106
 HYBRID         0.727    -0.646     0.523     1.104
 SUM            6.982     2.668    -0.104     7.475


          ATOMIC ORBITAL ELECTRON POPULATIONS

     Atom    s        px        py        pz   
    1  C   1.08668   1.09400   0.96757   1.02576
    2  H   0.82557
    3  N   1.46335   0.95548   0.98057   0.93978
    4  O   1.94036   1.05465   1.79665   1.67327
    5  O   1.93944   1.44974   1.51377   1.54942
    6  H   0.83583
    7  C   1.09244   1.19602   0.90005   1.05592
    8  H   0.77910
    9  H   0.78646
   10  C   1.10585   1.09169   1.06690   0.99649
   11  H   0.83850
   12  C   1.10013   1.01882   0.93881   0.93757
   13  C   1.07387   0.98380   0.98707   0.98828
   14  C   1.09407   1.09025   0.98053   0.95161
   15  C   1.09225   1.04503   1.05539   1.02648
   16  C   1.09735   0.92727   1.00548   0.94425
   17  N   1.73139   1.41979   1.09751   1.18934
   18  H   0.81095
   19  H   0.81835
   20  H   0.81423
   21  C   1.04824   1.19577   1.03800   1.18128
   22  H   0.82695
   23  H   0.82320
   24  H   0.82627
   25  H   0.82254
   26  H   0.63708
   27  O   1.81912   1.54441   1.82847   1.56864
   28  H   0.61891

 **********************
 *                    *
 * JOB ENDED NORMALLY *
 *                    *
 **********************



 TOTAL JOB TIME:             1.74 SECONDS

 == MOPAC DONE ==
