28
	Energy:     -57.8678300
C         -0.09004        0.05056        0.13719
H         -1.13158        0.17194        0.44379
N         -0.21088       -2.37724        0.20132
O         -1.40281       -2.57538        0.37542
O          0.64861       -3.10060        0.67897
H          1.88333        0.87760        0.09493
C          0.21182       -1.21183       -0.60859
H         -0.34215       -1.23019       -1.58800
H          1.29621       -1.31269       -0.87146
C          0.84313        0.96750        0.38291
H          0.63498        1.89961        0.89433
C          6.63469       -2.69149        0.45977
C          7.96747       -2.71675        0.02307
C          8.57256       -1.50543       -0.32245
C          7.84929       -0.32170       -0.21224
C          6.51682       -0.38761        0.21001
N          5.91780       -1.55337        0.52580
H          6.12135       -3.61649        0.75570
H          8.30718        0.63711       -0.45502
H          5.89563        0.51330        0.29136
C          8.70262       -3.99986       -0.07833
H          9.77458       -3.87808        0.14065
H          8.63503       -4.42264       -1.09552
H          8.32422       -4.77038        0.61085
H          9.60398       -1.48935       -0.68040
H          3.25991       -2.73771       -0.66742
O          3.66790       -2.31615       -1.43187
H          4.41350       -1.83011       -1.06034
