 *******************************************************************************
 **                                                                           **
 **                              MOPAC v22.0.6                                **
 **                                                                           **
 *******************************************************************************
 **          Digital Object Identifier (DOI): 10.5281/zenodo.6511958          **
 **    Visit the DOI location for information on how to cite this program.    **
 *******************************************************************************

                              PM7 CALCULATION RESULTS

 *******************************************************************************
 *  CALCULATION DONE:                                Tue Mar 26 11:13:49 2024  *
 *  PM7        - The PM7 Hamiltonian to be used
 *  SINGLET    - SPIN STATE DEFINED AS A SINGLET
 *
 *
 *
 *                 CHARGE ON SYSTEM = 0
 *
 *
 *
 *  EPS=78.4   - USE ANDREAS KLAMT'S COSMO IMPLICIT SOLVATION MODEL
 *  LET        - OVERRIDE SOME SAFETY CHECKS
 *  THREADS    - USE A MAXIMUM OF 30 THREADS
 *  T=         - A TIME OF 14.0 DAYS REQUESTED
 *  DUMP=N     - RESTART FILE WRITTEN EVERY 30.0 MINUTES REQUESTED
 *  RELSCF     - DEFAULT SCF CRITERION MULTIPLIED BY 1.0000
 *              (DEFAULT SCF CRITERION = 0.00010)
 *  ITRY=      - DO A MAXIMUM OF 15000 ITERATIONS FOR SCF
 *  AUX        - OUTPUT AUXILIARY INFORMATION
 *  ISOTOPE    - SAVE THE FORCE MATRIX FOR USE LATER
 *  BONDS      - FINAL BOND-ORDER MATRIX TO BE PRINTED
 *  LARGE      - EXPANDED OUTPUT TO BE PRINTED
 *  THERMO     - THERMODYNAMIC QUANTITIES TO BE CALCULATED
 *******************************************************************************
PM7 AUX LARGE THERMO(298,298) LET ISOTOPE BONDS DUMP=30M ITRY=15000 T=14D THREADS=30 CHARGE=0 SINGLET eps=78.4 RELSCF=1
 Title: ASE calculation

   ATOM   CHEMICAL          X               Y               Z
  NUMBER   SYMBOL      (ANGSTROMS)     (ANGSTROMS)     (ANGSTROMS)

     1       C          1.84650886  *   2.71005035  *   2.16939496  *
     2       C          1.91454888  *   1.32098432  *   2.08994562  *
     3       C          0.77903864  *   0.58927140  *   1.73963478  *
     4       C         -0.42101722  *   1.24756939  *   1.46459121  *
     5       C         -0.48360965  *   2.63631226  *   1.54162622  *
     6       C          0.64909687  *   3.36807293  *   1.89484064  *
     7       H          2.73344959  *   3.28186430  *   2.44492595  *
     8       H          2.85727863  *   0.80982899  *   2.30185017  *
     9       H         -1.31050762  *   0.67717875  *   1.18719724  *
    10       H          0.59776597  *   4.45616527  *   1.95435936  *
    11       C          0.86895557  *  -0.91304389  *   1.68685282  *
    12       C         -0.11657619  *  -1.58199930  *   2.63297637  *
    13       H         -0.01190817  *  -2.67725833  *   2.63597702  *
    14       H         -1.16447758  *  -1.35333778  *   2.39322593  *
    15       H          0.05308960  *  -1.24431312  *   3.67017162  *
    16       N          0.59264058  *  -1.34731530  *   0.27567294  *
    17       O          1.54155891  *  -1.60162955  *  -0.44811625  *
    18       O         -0.56072241  *  -1.41922955  *  -0.11614641  *
    19       N          4.36826742  *  -0.74976259  *   5.27855804  *
    20       C          4.52866046  *  -2.21874596  *   5.44324493  *
    21       C          5.23021515  *  -2.54421842  *   6.77278480  *
    22       C          6.59381427  *  -1.84756962  *   6.83185591  *
    23       C          6.39682178  *  -0.33750247  *   6.66037689  *
    24       C          5.67709216  *  -0.04595159  *   5.33393288  *
    25       H          5.47148598  *   1.04339924  *   5.23996228  *
    26       H          6.33566038  *  -0.32280270  *   4.48225563  *
    27       H          7.36890025  *   0.18848087  *   6.68307659  *
    28       H          5.80706864  *   0.06373504  *   7.50602735  *
    29       H          5.34555297  *  -3.63888027  *   6.87749151  *
    30       H          4.60164010  *  -2.21695400  *   7.62170165  *
    31       H          5.09711398  *  -2.67728460  *   4.60432089  *
    32       D          1.92256135  *  -1.25890456  *   1.93424815  *
    33       H          3.93092247  *  -0.56069940  *   4.36737912  *
    34       H          3.51080918  *  -2.66843803  *   5.42859332  *
    35       H          7.09995313  *  -2.06707080  *   7.78944540  *
    36       H          7.25954734  *  -2.23997345  *   6.03970220  *
    37       H         -1.42121712  *   3.15056126  *   1.32635885  *
    38       H          4.35943758  *  -1.96197911  *   2.63304076  *
    39       H          4.16820004  *  -1.39951323  *   1.22440525  *
    40       O          4.07820895  *  -1.17711623  *   2.15627988  *


                                Isotopes Used

              Atom:   32  H  Default mass  1.0079,  mass used:  2.0140 amu


          CARTESIAN COORDINATES 

    NO.       ATOM           X           Y           Z

     1         C          1.8465      2.7101      2.1694
     2         C          1.9145      1.3210      2.0899
     3         C          0.7790      0.5893      1.7396
     4         C         -0.4210      1.2476      1.4646
     5         C         -0.4836      2.6363      1.5416
     6         C          0.6491      3.3681      1.8948
     7         H          2.7334      3.2819      2.4449
     8         H          2.8573      0.8098      2.3019
     9         H         -1.3105      0.6772      1.1872
    10         H          0.5978      4.4562      1.9544
    11         C          0.8690     -0.9130      1.6869
    12         C         -0.1166     -1.5820      2.6330
    13         H         -0.0119     -2.6773      2.6360
    14         H         -1.1645     -1.3533      2.3932
    15         H          0.0531     -1.2443      3.6702
    16         N          0.5926     -1.3473      0.2757
    17         O          1.5416     -1.6016     -0.4481
    18         O         -0.5607     -1.4192     -0.1161
    19         N          4.3683     -0.7498      5.2786
    20         C          4.5287     -2.2187      5.4432
    21         C          5.2302     -2.5442      6.7728
    22         C          6.5938     -1.8476      6.8319
    23         C          6.3968     -0.3375      6.6604
    24         C          5.6771     -0.0460      5.3339
    25         H          5.4715      1.0434      5.2400
    26         H          6.3357     -0.3228      4.4823
    27         H          7.3689      0.1885      6.6831
    28         H          5.8071      0.0637      7.5060
    29         H          5.3456     -3.6389      6.8775
    30         H          4.6016     -2.2170      7.6217
    31         H          5.0971     -2.6773      4.6043
    32         H          1.9226     -1.2589      1.9342
    33         H          3.9309     -0.5607      4.3674
    34         H          3.5108     -2.6684      5.4286
    35         H          7.1000     -2.0671      7.7894
    36         H          7.2595     -2.2400      6.0397
    37         H         -1.4212      3.1506      1.3264
    38         H          4.3594     -1.9620      2.6330
    39         H          4.1682     -1.3995      1.2244
    40         O          4.0782     -1.1771      2.1563

 General Reference for PM7:
 "Optimization of Parameters for Semiempirical Methods VI: More Modifications to the 
 NDDO Approximations and Re-optimization of Parameters", J. J. P. Stewart, J. Mol. Mod., 1:32, 19 (2013)
 https://link.springer.com/article/10.1007/s00894-012-1667-x

           Empirical Formula: C13 H22 N2 O3  =    40 atoms



      MOLECULAR POINT GROUP   :   C1  


 SINGLET STATE CALCULATION


      RHF CALCULATION, NO. OF DOUBLY OCCUPIED LEVELS = 51

  SCF CRITERION =    0.1000E-03


          HEAT OF FORMATION =     -86.066658 KCALS/MOLE


          CARTESIAN COORDINATE DERIVATIVES

   NUMBER  ATOM         X            Y            Z

     1       C     -0.108602     0.094464     0.031974
     2       C      0.230515    -0.126164     0.053137
     3       C     -0.006950    -0.146895     0.080569
     4       C     -0.065686     0.190303     0.053117
     5       C     -0.236607    -0.212841     0.009855
     6       C      0.047702     0.125097    -0.058959
     7       H      0.067972     0.104648     0.001018
     8       H     -0.034724     0.254449    -0.000451
     9       H      0.039594     0.075712    -0.009516
    10       H     -0.048768     0.077552     0.029238
    11       C      0.066407     0.098007    -0.687063
    12       C     -0.054964     0.585657     2.544661
    13       H      0.069896    -0.019242    -0.209136
    14       H      0.061616    -0.170378    -0.268399
    15       H     -0.393496    -0.398043    -1.028164
    16       N      0.572938    -1.282158     0.698690
    17       O     -0.311612     1.188830    -0.676675
    18       O     -0.210249     0.018996    -0.164325
    19       N      0.274974     0.548505    -0.307107
    20       C      0.063624    -0.101670     0.096089
    21       C      0.050745    -0.272774    -0.135894
    22       C     -0.040020    -0.002930    -0.127678
    23       C      0.187521     0.075035     0.347452
    24       C     -0.126235    -0.506417     0.131586
    25       H      0.067301     0.087933    -0.012250
    26       H     -0.078077     0.091480    -0.085460
    27       H     -0.023780    -0.140639     0.038362
    28       H      0.081357    -0.056575    -0.029445
    29       H      0.210024    -0.108975    -0.046405
    30       H      0.077654    -0.106343     0.008873
    31       H      0.180289    -0.007691    -0.009709
    32       H      0.093087     0.142973     0.108874
    33       H     -0.197925     0.464035    -0.533803
    34       H      0.076918    -0.022485    -0.079737
    35       H      0.129826    -0.099344     0.155157
    36       H      0.031516    -0.003284     0.211554
    37       H      0.094366     0.027583    -0.061506
    38       H     -2.463720     0.176874    -1.529251
    39       H      0.087614     0.079088    -1.036135
    40       O      1.539816    -0.719541     2.496889

 DIPOLE           X         Y         Z       TOTAL
 POINT-CHG.     0.293    -3.858    -3.478     5.202
 HYBRID         0.742     0.233     1.398     1.600
 SUM            1.035    -3.625    -2.080     4.306


          GRADIENT NORM =   5.85709


                              **** WARNING ****

           GRADIENT IS VERY LARGE FOR A THERMO CALCULATION
           RESULTS ARE LIKELY TO BE INACCURATE IF THERE ARE
           ANY LOW-LYING VIBRATIONS (LESS THAN ABOUT 400CM-1)
           GRADIENT NORM SHOULD BE LESS THAN ABOUT 1.3 FOR THERMO
           TO GIVE ACCURATE RESULTS


          TIME FOR SCF CALCULATION =    0.13

          TIME FOR DERIVATIVES     =    0.04

          MOLECULAR WEIGHT =  255.33



          ROTATIONAL CONSTANTS IN CM(-1)

          A =    0.01921905   B =    0.00544952   C =    0.00472163



           PRINCIPAL MOMENTS OF INERTIA IN UNITS OF 10**(-40)*GRAM-CM**2

          A =     1456.5110   B =     5136.7325   C =     5928.6162


          ORIENTATION OF MOLECULE IN FORCE CALCULATION

    NO.       ATOM         X         Y         Z

     1          C      -3.0082    0.6979    0.7959
     2          C      -1.6152    0.6979    0.7959
     3          C      -0.9211    1.9086    0.7959
     4          C      -1.6204    3.1169    0.8009
     5          C      -3.0127    3.1122    0.8046
     6          C      -3.7072    1.9035    0.8011
     7          H      -3.5508   -0.2482    0.7941
     8          H      -1.0716   -0.2504    0.7964
     9          H      -1.0793    4.0659    0.8040
    10          H      -4.7981    1.9023    0.8042
    11          C       0.5844    1.8843    0.7681
    12          C       1.1494    2.6152   -0.4404
    13          H       2.2465    2.5491   -0.4908
    14          H       0.8838    3.6815   -0.4598
    15          H       0.7618    2.1741   -1.3751
    16          N       1.0844    2.5275    2.0301
    17          O       1.4257    1.8050    2.9523
    18          O       1.1222    3.7445    2.1102
    19          N       0.3877   -2.4231   -1.7971
    20          C       1.8509   -2.5723   -2.0146
    21          C       2.1339   -3.5806   -3.1411
    22          C       1.5025   -4.9357   -2.8046
    23          C      -0.0032   -4.7507   -2.5871
    24          C      -0.2534   -3.7245   -1.4704
    25          H      -1.3444   -3.5373   -1.3583
    26          H       0.1034   -4.1330   -0.5001
    27          H      -0.4815   -5.7126   -2.3264
    28          H      -0.4803   -4.4111   -3.5257
    29          H       3.2252   -3.6832   -3.2869
    30          H       1.7285   -3.2020   -4.0978
    31          H       2.3838   -2.8911   -1.0918
    32          H       0.9666    0.8143    0.7737
    33          H       0.2297   -1.7729   -1.0163
    34          H       2.2505   -1.5707   -2.2895
    35          H       1.6915   -5.6632   -3.6147
    36          H       1.9715   -5.3626   -1.8977
    37          H      -3.5590    4.0564    0.8089
    38          H       1.7469   -1.6960    0.6711
    39          H       1.2570   -1.1681    2.0196
    40          O       0.9777   -1.3276    1.1127


    FIRST DERIVATIVES WILL BE USED IN THE CALCULATION OF SECOND DERIVATIVES

          ESTIMATED TIME TO COMPLETE CALCULATION =       42.19 SECONDS

    FOR POINT-GROUP C1   THERE ARE   1 UNIQUE SYMMETRY FUNCTIONS.

 STEP:   1 TIME =     0.12 SECS, INTEGRAL =      0.12 TIME LEFT:1209599.70
 STEP:   2 TIME =     0.12 SECS, INTEGRAL =      0.24 TIME LEFT:1209599.58
 STEP:   3 TIME =     0.12 SECS, INTEGRAL =      0.36 TIME LEFT:1209599.46
 STEP:   4 TIME =     0.14 SECS, INTEGRAL =      0.50 TIME LEFT:1209599.32
 STEP:   5 TIME =     0.12 SECS, INTEGRAL =      0.62 TIME LEFT:1209599.20
 STEP:   6 TIME =     0.14 SECS, INTEGRAL =      0.77 TIME LEFT:1209599.05
 STEP:   7 TIME =     0.12 SECS, INTEGRAL =      0.89 TIME LEFT:1209598.93
 STEP:   8 TIME =     0.12 SECS, INTEGRAL =      1.01 TIME LEFT:1209598.81
 STEP:   9 TIME =     0.12 SECS, INTEGRAL =      1.13 TIME LEFT:1209598.69
 STEP:  10 TIME =     0.12 SECS, INTEGRAL =      1.25 TIME LEFT:1209598.57
 STEP:  11 TIME =     0.12 SECS, INTEGRAL =      1.38 TIME LEFT:1209598.45
 STEP:  12 TIME =     0.15 SECS, INTEGRAL =      1.52 TIME LEFT:1209598.30
 STEP:  13 TIME =     0.12 SECS, INTEGRAL =      1.64 TIME LEFT:1209598.18
 STEP:  14 TIME =     0.13 SECS, INTEGRAL =      1.77 TIME LEFT:1209598.05
 STEP:  15 TIME =     0.12 SECS, INTEGRAL =      1.89 TIME LEFT:1209597.93
 STEP:  16 TIME =     0.12 SECS, INTEGRAL =      2.01 TIME LEFT:1209597.81
 STEP:  17 TIME =     0.12 SECS, INTEGRAL =      2.13 TIME LEFT:1209597.70
 STEP:  18 TIME =     0.12 SECS, INTEGRAL =      2.25 TIME LEFT:1209597.58
 STEP:  19 TIME =     0.12 SECS, INTEGRAL =      2.37 TIME LEFT:1209597.46
 STEP:  20 TIME =     0.17 SECS, INTEGRAL =      2.54 TIME LEFT:1209597.29
 STEP:  21 TIME =     0.12 SECS, INTEGRAL =      2.66 TIME LEFT:1209597.16
 STEP:  22 TIME =     0.12 SECS, INTEGRAL =      2.78 TIME LEFT:1209597.05
 STEP:  23 TIME =     0.12 SECS, INTEGRAL =      2.90 TIME LEFT:1209596.93
 STEP:  24 TIME =     0.12 SECS, INTEGRAL =      3.02 TIME LEFT:1209596.80
 STEP:  25 TIME =     0.12 SECS, INTEGRAL =      3.14 TIME LEFT:1209596.68
 STEP:  26 TIME =     0.12 SECS, INTEGRAL =      3.26 TIME LEFT:1209596.56
 STEP:  27 TIME =     0.12 SECS, INTEGRAL =      3.38 TIME LEFT:1209596.44
 STEP:  28 TIME =     0.16 SECS, INTEGRAL =      3.55 TIME LEFT:1209596.28
 STEP:  29 TIME =     0.12 SECS, INTEGRAL =      3.67 TIME LEFT:1209596.16
 STEP:  30 TIME =     0.12 SECS, INTEGRAL =      3.79 TIME LEFT:1209596.04
 STEP:  31 TIME =     0.12 SECS, INTEGRAL =      3.91 TIME LEFT:1209595.92
 STEP:  32 TIME =     0.12 SECS, INTEGRAL =      4.03 TIME LEFT:1209595.80
 STEP:  33 TIME =     0.12 SECS, INTEGRAL =      4.15 TIME LEFT:1209595.68
 STEP:  34 TIME =     0.12 SECS, INTEGRAL =      4.27 TIME LEFT:1209595.55
 STEP:  35 TIME =     0.12 SECS, INTEGRAL =      4.39 TIME LEFT:1209595.43
 STEP:  36 TIME =     0.14 SECS, INTEGRAL =      4.53 TIME LEFT:1209595.29
 STEP:  37 TIME =     0.12 SECS, INTEGRAL =      4.65 TIME LEFT:1209595.17
 STEP:  38 TIME =     0.12 SECS, INTEGRAL =      4.77 TIME LEFT:1209595.05
 STEP:  39 TIME =     0.12 SECS, INTEGRAL =      4.89 TIME LEFT:1209594.93
 STEP:  40 TIME =     0.12 SECS, INTEGRAL =      5.02 TIME LEFT:1209594.81
 STEP:  41 TIME =     0.12 SECS, INTEGRAL =      5.13 TIME LEFT:1209594.69
 STEP:  42 TIME =     0.12 SECS, INTEGRAL =      5.25 TIME LEFT:1209594.57
 STEP:  43 TIME =     0.12 SECS, INTEGRAL =      5.37 TIME LEFT:1209594.45
 STEP:  44 TIME =     0.14 SECS, INTEGRAL =      5.51 TIME LEFT:1209594.32
 STEP:  45 TIME =     0.12 SECS, INTEGRAL =      5.63 TIME LEFT:1209594.20
 STEP:  46 TIME =     0.14 SECS, INTEGRAL =      5.77 TIME LEFT:1209594.05
 STEP:  47 TIME =     0.12 SECS, INTEGRAL =      5.89 TIME LEFT:1209593.93
 STEP:  48 TIME =     0.12 SECS, INTEGRAL =      6.01 TIME LEFT:1209593.81
 STEP:  49 TIME =     0.12 SECS, INTEGRAL =      6.13 TIME LEFT:1209593.69
 STEP:  50 TIME =     0.12 SECS, INTEGRAL =      6.25 TIME LEFT:1209593.57
 STEP:  51 TIME =     0.12 SECS, INTEGRAL =      6.38 TIME LEFT:1209593.45
 STEP:  52 TIME =     0.18 SECS, INTEGRAL =      6.55 TIME LEFT:1209593.27
 STEP:  53 TIME =     0.12 SECS, INTEGRAL =      6.67 TIME LEFT:1209593.16
 STEP:  54 TIME =     0.12 SECS, INTEGRAL =      6.79 TIME LEFT:1209593.04
 STEP:  55 TIME =     0.12 SECS, INTEGRAL =      6.91 TIME LEFT:1209592.91
 STEP:  56 TIME =     0.12 SECS, INTEGRAL =      7.03 TIME LEFT:1209592.79
 STEP:  57 TIME =     0.12 SECS, INTEGRAL =      7.15 TIME LEFT:1209592.67
 STEP:  58 TIME =     0.12 SECS, INTEGRAL =      7.27 TIME LEFT:1209592.55
 STEP:  59 TIME =     0.12 SECS, INTEGRAL =      7.39 TIME LEFT:1209592.43
 STEP:  60 TIME =     0.16 SECS, INTEGRAL =      7.55 TIME LEFT:1209592.27
 STEP:  61 TIME =     0.12 SECS, INTEGRAL =      7.67 TIME LEFT:1209592.15
 STEP:  62 TIME =     0.12 SECS, INTEGRAL =      7.79 TIME LEFT:1209592.03
 STEP:  63 TIME =     0.12 SECS, INTEGRAL =      7.91 TIME LEFT:1209591.91
 STEP:  64 TIME =     0.12 SECS, INTEGRAL =      8.03 TIME LEFT:1209591.79
 STEP:  65 TIME =     0.12 SECS, INTEGRAL =      8.15 TIME LEFT:1209591.67
 STEP:  66 TIME =     0.12 SECS, INTEGRAL =      8.27 TIME LEFT:1209591.55
 STEP:  67 TIME =     0.12 SECS, INTEGRAL =      8.39 TIME LEFT:1209591.43
 STEP:  68 TIME =     0.12 SECS, INTEGRAL =      8.51 TIME LEFT:1209591.31
 STEP:  69 TIME =     0.12 SECS, INTEGRAL =      8.63 TIME LEFT:1209591.20
 STEP:  70 TIME =     0.14 SECS, INTEGRAL =      8.77 TIME LEFT:1209591.05
 STEP:  71 TIME =     0.12 SECS, INTEGRAL =      8.89 TIME LEFT:1209590.93
 STEP:  72 TIME =     0.10 SECS, INTEGRAL =      8.99 TIME LEFT:1209590.84
 STEP:  73 TIME =     0.09 SECS, INTEGRAL =      9.08 TIME LEFT:1209590.74
 STEP:  74 TIME =     0.12 SECS, INTEGRAL =      9.20 TIME LEFT:1209590.62
 STEP:  75 TIME =     0.12 SECS, INTEGRAL =      9.32 TIME LEFT:1209590.50
 STEP:  76 TIME =     0.12 SECS, INTEGRAL =      9.44 TIME LEFT:1209590.38
 STEP:  77 TIME =     0.13 SECS, INTEGRAL =      9.57 TIME LEFT:1209590.25
 STEP:  78 TIME =     0.14 SECS, INTEGRAL =      9.71 TIME LEFT:1209590.11
 STEP:  79 TIME =     0.12 SECS, INTEGRAL =      9.83 TIME LEFT:1209589.99
 STEP:  80 TIME =     0.12 SECS, INTEGRAL =      9.95 TIME LEFT:1209589.87
 STEP:  81 TIME =     0.12 SECS, INTEGRAL =     10.07 TIME LEFT:1209589.75
 STEP:  82 TIME =     0.12 SECS, INTEGRAL =     10.20 TIME LEFT:1209589.63
 STEP:  83 TIME =     0.12 SECS, INTEGRAL =     10.32 TIME LEFT:1209589.51
 STEP:  84 TIME =     0.12 SECS, INTEGRAL =     10.44 TIME LEFT:1209589.39
 STEP:  85 TIME =     0.12 SECS, INTEGRAL =     10.56 TIME LEFT:1209589.26
 STEP:  86 TIME =     0.12 SECS, INTEGRAL =     10.68 TIME LEFT:1209589.14
 STEP:  87 TIME =     0.12 SECS, INTEGRAL =     10.80 TIME LEFT:1209589.02
 STEP:  88 TIME =     0.12 SECS, INTEGRAL =     10.92 TIME LEFT:1209588.90
 STEP:  89 TIME =     0.12 SECS, INTEGRAL =     11.04 TIME LEFT:1209588.79
 STEP:  90 TIME =     0.12 SECS, INTEGRAL =     11.16 TIME LEFT:1209588.66
 STEP:  91 TIME =     0.12 SECS, INTEGRAL =     11.28 TIME LEFT:1209588.54
 STEP:  92 TIME =     0.12 SECS, INTEGRAL =     11.40 TIME LEFT:1209588.42
 STEP:  93 TIME =     0.15 SECS, INTEGRAL =     11.55 TIME LEFT:1209588.27
 STEP:  94 TIME =     0.12 SECS, INTEGRAL =     11.67 TIME LEFT:1209588.15
 STEP:  95 TIME =     0.12 SECS, INTEGRAL =     11.79 TIME LEFT:1209588.04
 STEP:  96 TIME =     0.12 SECS, INTEGRAL =     11.91 TIME LEFT:1209587.91
 STEP:  97 TIME =     0.12 SECS, INTEGRAL =     12.03 TIME LEFT:1209587.79
 STEP:  98 TIME =     0.12 SECS, INTEGRAL =     12.15 TIME LEFT:1209587.68
 STEP:  99 TIME =     0.12 SECS, INTEGRAL =     12.27 TIME LEFT:1209587.55
 STEP: 100 TIME =     0.12 SECS, INTEGRAL =     12.39 TIME LEFT:1209587.43
 STEP: 101 TIME =     0.17 SECS, INTEGRAL =     12.56 TIME LEFT:1209587.27
 STEP: 102 TIME =     0.12 SECS, INTEGRAL =     12.68 TIME LEFT:1209587.15
 STEP: 103 TIME =     0.12 SECS, INTEGRAL =     12.80 TIME LEFT:1209587.03
 STEP: 104 TIME =     0.12 SECS, INTEGRAL =     12.91 TIME LEFT:1209586.91
 STEP: 105 TIME =     0.12 SECS, INTEGRAL =     13.04 TIME LEFT:1209586.79
 STEP: 106 TIME =     0.12 SECS, INTEGRAL =     13.15 TIME LEFT:1209586.67
 STEP: 107 TIME =     0.12 SECS, INTEGRAL =     13.27 TIME LEFT:1209586.55
 STEP: 108 TIME =     0.12 SECS, INTEGRAL =     13.39 TIME LEFT:1209586.43
 STEP: 109 TIME =     0.16 SECS, INTEGRAL =     13.55 TIME LEFT:1209586.27
 STEP: 110 TIME =     0.12 SECS, INTEGRAL =     13.68 TIME LEFT:1209586.15
 STEP: 111 TIME =     0.12 SECS, INTEGRAL =     13.79 TIME LEFT:1209586.03
 STEP: 112 TIME =     0.12 SECS, INTEGRAL =     13.91 TIME LEFT:1209585.91
 STEP: 113 TIME =     0.12 SECS, INTEGRAL =     14.04 TIME LEFT:1209585.79
 STEP: 114 TIME =     0.12 SECS, INTEGRAL =     14.16 TIME LEFT:1209585.67
 STEP: 115 TIME =     0.12 SECS, INTEGRAL =     14.28 TIME LEFT:1209585.55
 STEP: 116 TIME =     0.12 SECS, INTEGRAL =     14.40 TIME LEFT:1209585.43
 STEP: 117 TIME =     0.14 SECS, INTEGRAL =     14.54 TIME LEFT:1209585.28
 STEP: 118 TIME =     0.12 SECS, INTEGRAL =     14.66 TIME LEFT:1209585.16
 STEP: 119 TIME =     0.13 SECS, INTEGRAL =     14.80 TIME LEFT:1209585.03
 STEP: 120 TIME =     0.12 SECS, INTEGRAL =     14.92 TIME LEFT:1209584.91

(To convert to Hartree/Bohr^2, multiply by (10^(-21) x N x a0^2)/(4.184 x 627.51) =  0.0642)


           FORCE MATRIX IN MILLIDYNES/ANGSTROM


                  C  1       C  2       C  3       C  4       C  5       C  6
 ------------------------------------------------------------------------------
     C    1  15.377649
     C    2   6.255693  15.422490
     C    3   1.914111   6.164876  16.015506
     C    4   1.248389   1.900333   6.071414  15.380139
     C    5   1.944895   1.162569   1.886241   6.309022  15.436630
     C    6   6.231516   1.933933   1.178849   1.951432   6.266414  15.415793
     H    7   3.413328   0.752777   0.083998   0.009967   0.085429   0.745847
     H    8   0.742427   3.393966   0.744980   0.083228   0.011784   0.088033
     H    9   0.011188   0.083961   0.749456   3.411022   0.749891   0.090134
     H   10   0.745480   0.083127   0.013060   0.084683   0.744660   3.411148
     C   11   0.092886   0.800649   3.157010   0.755322   0.098291   0.008136
     C   12   0.017074   0.025494   0.687978   0.043881   0.009695   0.004225
     H   13   0.001916   0.004073   0.044662   0.001758   0.002541   0.001031
     H   14   0.002656   0.002245   0.017011   0.011558   0.003136   0.001475
     H   15   0.003005   0.002177   0.020005   0.003550   0.002664   0.002074
     N   16   0.021880   0.067210   0.932430   0.043218   0.027379   0.012915
     O   17   0.007825   0.045025   0.075199   0.012467   0.010759   0.005372
     O   18   0.007849   0.018737   0.076192   0.023045   0.009463   0.004612
     N   19   0.002133   0.002689   0.002949   0.002106   0.001101   0.001721
     C   20   0.001157   0.000719   0.001112   0.000906   0.000780   0.000783
     C   21   0.000667   0.001044   0.000698   0.000629   0.000528   0.000473
     C   22   0.000451   0.000262   0.000371   0.000340   0.000566   0.000447
     C   23   0.000730   0.001013   0.000479   0.000515   0.000444   0.000828
     C   24   0.001037   0.000778   0.001066   0.000956   0.000786   0.000865
     H   25   0.000790   0.001035   0.000220   0.000634   0.000215   0.000385
     H   26   0.000282   0.000615   0.000250   0.000211   0.000231   0.000189
     H   27   0.000340   0.000410   0.000305   0.000250   0.000355   0.000420
     H   28   0.000313   0.000265   0.000241   0.000207   0.000233   0.000251
     H   29   0.000390   0.000270   0.000319   0.000360   0.000387   0.000188
     H   30   0.000307   0.000682   0.000215   0.000231   0.000284   0.000239
     H   31   0.000287   0.000654   0.000268   0.000267   0.000219   0.000223
     H   32   0.006745   0.054432   0.676098   0.037425   0.007385   0.002836
     H   33   0.002842   0.005329   0.002111   0.001979   0.000806   0.000990
     H   34   0.000730   0.000805   0.000513   0.000331   0.000169   0.000425
     H   35   0.000286   0.000422   0.000245   0.000158   0.000416   0.000252
     H   36   0.000185   0.000154   0.000144   0.000191   0.000123   0.000136
     H   37   0.082766   0.010822   0.084599   0.748717   3.411436   0.744653
     H   38   0.002109   0.004614   0.003537   0.002002   0.001961   0.000449
     H   39   0.003324   0.021243   0.012383   0.002543   0.000938   0.000843
     O   40   0.008884   0.025270   0.014971   0.006399   0.001932   0.002109


                  H  7       H  8       H  9       H 10       C 11       C 12
 ------------------------------------------------------------------------------
     H    7   4.318436
     H    8   0.031397   4.299461
     H    9   0.010667   0.008121   4.311494
     H   10   0.027480   0.007806   0.007863   4.312946
     C   11   0.008945   0.039656   0.029798   0.010984  11.963192
     C   12   0.004199   0.008010   0.008369   0.003422   2.947759  11.042240
     H   13   0.000520   0.001834   0.002765   0.000695   0.697089   3.342844
     H   14   0.001278   0.001295   0.016483   0.001088   0.683478   3.352422
     H   15   0.001959   0.002596   0.002969   0.001449   0.692496   3.310127
     N   16   0.011485   0.018290   0.064011   0.007195   2.531593   0.731277
     O   17   0.005583   0.009168   0.016726   0.003579   1.008539   0.120096
     O   18   0.003668   0.008449   0.028280   0.003016   1.029565   0.087613
     N   19   0.001526   0.002231   0.000864   0.001090   0.003455   0.002793
     C   20   0.000718   0.000944   0.000674   0.000548   0.001236   0.001697
     C   21   0.000318   0.002008   0.000466   0.000366   0.001279   0.001416
     C   22   0.000513   0.000383   0.000397   0.000376   0.000593   0.001099
     C   23   0.000533   0.001668   0.000322   0.000432   0.000658   0.000941
     C   24   0.000984   0.001193   0.000618   0.000655   0.001078   0.002125
     H   25   0.000724   0.001740   0.000416   0.000310   0.000553   0.000744
     H   26   0.000265   0.000792   0.000158   0.000183   0.000479   0.000686
     H   27   0.000384   0.000371   0.000186   0.000329   0.000566   0.000826
     H   28   0.000255   0.000355   0.000135   0.000197   0.000390   0.000781
     H   29   0.000284   0.000342   0.000325   0.000204   0.000337   0.000864
     H   30   0.000195   0.000934   0.000180   0.000211   0.000557   0.000808
     H   31   0.000207   0.000814   0.000182   0.000124   0.000824   0.001229
     H   32   0.003075   0.029010   0.003690   0.001418   2.940628   0.646095
     H   33   0.001788   0.008680   0.000714   0.000781   0.002476   0.004295
     H   34   0.000574   0.001370   0.000329   0.000262   0.001472   0.002399
     H   35   0.000181   0.000529   0.000244   0.000265   0.000555   0.000717
     H   36   0.000199   0.000268   0.000123   0.000094   0.000154   0.000709
     H   37   0.009458   0.010611   0.034083   0.035552   0.008848   0.004519
     H   38   0.000917   0.008738   0.000667   0.000501   0.009596   0.004355
     H   39   0.001277   0.014662   0.001061   0.000583   0.014445   0.005911
     O   40   0.004203   0.014771   0.002559   0.001471   0.073008   0.016029


                  H 13       H 14       H 15       N 16       O 17       O 18
 ------------------------------------------------------------------------------
     H   13   4.136232
     H   14   0.454655   4.151038
     H   15   0.453317   0.450458   4.120766
     N   16   0.056092   0.080317   0.075250  18.834299
     O   17   0.019268   0.026680   0.016484   9.609284  12.240003
     O   18   0.016261   0.022409   0.014819   9.636629   2.683393  12.264918
     N   19   0.001233   0.001690   0.002550   0.012907   0.006220   0.010500
     C   20   0.000813   0.000642   0.000821   0.002821   0.001624   0.001568
     C   21   0.000693   0.000642   0.000541   0.002926   0.001965   0.001144
     C   22   0.000648   0.000428   0.000559   0.000939   0.000777   0.000631
     C   23   0.000471   0.000385   0.000373   0.003017   0.001621   0.001402
     C   24   0.000705   0.000898   0.001153   0.002739   0.002057   0.001215
     H   25   0.000461   0.000224   0.000224   0.002104   0.001075   0.001001
     H   26   0.000260   0.000201   0.000386   0.002588   0.001563   0.001101
     H   27   0.000220   0.000333   0.000463   0.001833   0.000985   0.001063
     H   28   0.000359   0.000212   0.000409   0.001602   0.000948   0.000791
     H   29   0.000601   0.000185   0.000374   0.001801   0.000982   0.000976
     H   30   0.000378   0.000207   0.000676   0.002039   0.001248   0.001026
     H   31   0.000680   0.000330   0.000478   0.003301   0.002143   0.001101
     H   32   0.024885   0.042748   0.022611   0.857386   0.074453   0.086424
     H   33   0.001465   0.000992   0.002705   0.004986   0.001954   0.004201
     H   34   0.001436   0.000347   0.000885   0.002979   0.001753   0.001068
     H   35   0.000189   0.000351   0.000248   0.001307   0.000694   0.000865
     H   36   0.000300   0.000109   0.000397   0.001229   0.000747   0.000547
     H   37   0.000408   0.002019   0.001625   0.011192   0.004940   0.005137
     H   38   0.002138   0.000715   0.002109   0.010905   0.002586   0.005887
     H   39   0.002118   0.000918   0.001921   0.047274   0.029929   0.020655
     O   40   0.005886   0.002632   0.006557   0.050925   0.021756   0.027534


                  N 19       C 20       C 21       C 22       C 23       C 24
 ------------------------------------------------------------------------------
     N   19  11.624992
     C   20   3.829637  12.058568
     C   21   0.806277   2.779840  11.810367
     C   22   0.046604   0.679775   2.951060  11.862316
     C   23   0.801141   0.057679   0.695530   2.950379  11.814755
     C   24   3.829492   0.822875   0.054522   0.680463   2.805129  12.051556
     H   25   0.816795   0.079794   0.005034   0.046504   0.664265   3.220498
     H   26   0.840438   0.025448   0.002413   0.011649   0.693155   3.189175
     H   27   0.080732   0.009382   0.034049   0.668261   3.288033   0.671740
     H   28   0.038664   0.004291   0.028635   0.694805   3.363321   0.689265
     H   29   0.057116   0.670379   3.295566   0.669332   0.047409   0.005621
     H   30   0.037448   0.694411   3.303182   0.685123   0.064652   0.010356
     H   31   0.833503   3.178339   0.696549   0.012483   0.001587   0.024936
     H   32   0.002650   0.002316   0.002743   0.000665   0.001467   0.001023
     H   33   3.660164   0.864988   0.074055   0.009704   0.075879   0.861779
     H   34   0.795441   3.220078   0.658100   0.045743   0.004316   0.077428
     H   35   0.005210   0.045950   0.673454   3.304994   0.672655   0.046333
     H   36   0.002760   0.015322   0.685195   3.301060   0.683871   0.015157
     H   37   0.001735   0.000665   0.000647   0.001306   0.000445   0.000702
     H   38   0.018895   0.019369   0.007016   0.003001   0.003370   0.006578
     H   39   0.019284   0.005461   0.002803   0.001077   0.001721   0.002146
     O   40   0.056769   0.014617   0.010043   0.002897   0.005934   0.008884


                  H 25       H 26       H 27       H 28       H 29       H 30
 ------------------------------------------------------------------------------
     H   25   4.184266
     H   26   0.454810   4.160083
     H   27   0.016030   0.017806   4.222821
     H   28   0.015174   0.045154   0.464027   4.327275
     H   29   0.000703   0.001507   0.007419   0.002497   4.222392
     H   30   0.006345   0.004566   0.023773   0.093464   0.455991   4.253114
     H   31   0.004682   0.008397   0.001696   0.000856   0.018011   0.044961
     H   32   0.000878   0.000501   0.000643   0.000549   0.000368   0.000981
     H   33   0.037478   0.023258   0.011918   0.006095   0.012657   0.010636
     H   34   0.015311   0.004568   0.002061   0.000898   0.017076   0.018417
     H   35   0.006853   0.002156   0.017332   0.016396   0.016657   0.021066
     H   36   0.002916   0.012076   0.016946   0.044899   0.016456   0.045897
     H   37   0.000224   0.000148   0.000354   0.000338   0.000358   0.000278
     H   38   0.002647   0.002653   0.002086   0.000733   0.001817   0.003380
     H   39   0.001549   0.001935   0.000709   0.000801   0.000657   0.000644
     O   40   0.004990   0.005762   0.003361   0.001002   0.002054   0.004338


                  H 31       H 32       H 33       H 34       H 35       H 36
 ------------------------------------------------------------------------------
     H   31   4.146939
     H   32   0.001954   4.037544
     H   33   0.024234   0.006970   4.636137
     H   34   0.448695   0.002662   0.036079   4.182386
     H   35   0.002031   0.000720   0.001010   0.006492   4.230725
     H   36   0.011897   0.000241   0.003394   0.002969   0.455435   4.231752
     H   37   0.000124   0.001818   0.001128   0.000129   0.000426   0.000631
     H   38   0.019521   0.030438   0.071740   0.014124   0.000994   0.001963
     H   39   0.005597   0.050643   0.829845   0.005196   0.000543   0.000977
     O   40   0.014820   0.045741   1.220823   0.016718   0.001431   0.003230


                  H 37       H 38       H 39       O 40
 ------------------------------------------------------
     H   37   4.317218
     H   38   0.001623   4.337197
     H   39   0.001029   0.798107   4.914613
     O   40   0.002599   3.910065   5.003270   9.003703


          HEAT OF FORMATION =     -86.066658 KCALS/MOLE


          TRIVIAL VIBRATIONS, SHOULD BE ZERO

  -3.0512=TX  48.8034=TY  37.7045=TZ -26.6029=RX -10.4024=RY -46.4564=RZ


      MOLECULAR POINT GROUP   :   C1  


           EIGENVECTORS  


   Root No.       1         2         3         4         5         6         7         8

                 1 A       2 A       3 A       4 A       5 A       6 A       7 A       8 A   

                  -0.1      -0.0      -0.0      -0.0      -0.0      -0.0      -0.0       0.0
  
           1    0.0016   -0.0021    0.0247    0.0442    0.0555    0.0489    0.1027   -0.0617
           2   -0.0024    0.0051   -0.0648   -0.0896   -0.0290   -0.0541   -0.0202    0.0394
           3    0.0002   -0.0117   -0.0376   -0.0327    0.0092    0.0162   -0.0594   -0.1082
           4    0.0015   -0.0022    0.0248    0.0444    0.0558    0.0490    0.1028   -0.0617
           5   -0.0049    0.0096   -0.0329   -0.0572    0.0027   -0.0047    0.0312    0.0232
           6    0.0013    0.0275   -0.0154   -0.0067    0.0720    0.0029   -0.0414   -0.0308
           7    0.0044   -0.0005   -0.0011    0.0147    0.0274    0.0056    0.0606   -0.0472
           8   -0.0067    0.0107   -0.0180   -0.0400    0.0182    0.0195    0.0551    0.0161
           9    0.0079    0.0593   -0.0204   -0.0326    0.0773    0.0356   -0.0123    0.0339
          10    0.0068   -0.0067   -0.0291   -0.0133   -0.0005   -0.0380    0.0143   -0.0337
          11   -0.0054    0.0067   -0.0339   -0.0561    0.0027   -0.0054    0.0290    0.0232
          12    0.0076    0.0557   -0.0549   -0.0753   -0.0032    0.0858    0.0008    0.0242
          13    0.0069   -0.0075   -0.0292   -0.0133   -0.0003   -0.0376    0.0146   -0.0344
          14   -0.0026    0.0031   -0.0655   -0.0892   -0.0290   -0.0547   -0.0217    0.0392
          15    0.0049    0.0140   -0.0788   -0.0976   -0.0635    0.0951   -0.0287   -0.0694
          16    0.0042   -0.0062   -0.0027    0.0157    0.0276    0.0057    0.0579   -0.0484
          17   -0.0011    0.0028   -0.0808   -0.1058   -0.0453   -0.0795   -0.0466    0.0476
          18    0.0023   -0.0214   -0.0689   -0.0782   -0.0520    0.0583   -0.0587   -0.1345
          19    0.0002    0.0001    0.0454    0.0642    0.0771    0.0814    0.1375   -0.0729
          20   -0.0016    0.0037   -0.0767   -0.1011   -0.0413   -0.0727   -0.0399    0.0457
          21   -0.0022   -0.0359   -0.0290   -0.0163    0.0109   -0.0071   -0.0723   -0.1415
          22   -0.0004   -0.0036    0.0445    0.0681    0.0768    0.0812    0.1337   -0.0710
          23   -0.0064    0.0088   -0.0216   -0.0432    0.0146    0.0138    0.0491    0.0178
          24   -0.0039    0.0263    0.0062    0.0381    0.1162   -0.0365   -0.0516   -0.0145
          25    0.0089   -0.0094   -0.0514   -0.0365   -0.0229   -0.0701   -0.0209   -0.0220
          26   -0.0066    0.0080   -0.0211   -0.0427    0.0156    0.0128    0.0489    0.0163
          27    0.0084    0.0736   -0.0555   -0.0783   -0.0154    0.1052    0.0335    0.0856
          28    0.0042   -0.0063   -0.0027    0.0153    0.0275    0.0057    0.0580   -0.0485
          29    0.0012    0.0004   -0.1040   -0.1291   -0.0683   -0.1185   -0.0841    0.0614
          30    0.0017   -0.0527   -0.0772   -0.0877   -0.0806    0.0567   -0.0727   -0.1861
          31    0.0047   -0.0033   -0.0004    0.0151    0.0302    0.0072    0.0624   -0.0481
          32   -0.0085    0.0022    0.0108   -0.0084    0.0492    0.0760    0.1131   -0.0066
          33    0.0135    0.0466    0.0031   -0.0029    0.1610    0.0110    0.0094    0.0932
          34    0.0084   -0.0280   -0.0032    0.0268    0.0630   -0.0449    0.0506    0.0098
          35   -0.0204   -0.0500   -0.0284    0.0150   -0.1284    0.1259    0.2068    0.0278
          36    0.0081   -0.0028   -0.0231    0.0171    0.0673    0.0174    0.0607    0.1383
          37    0.0081   -0.0306   -0.0023    0.0296    0.0630   -0.0337    0.0706    0.0137
          38   -0.0254   -0.0696   -0.0160    0.0409   -0.1494    0.2828    0.4461    0.0429
          39    0.0085   -0.0346   -0.0150    0.0422    0.0985    0.0613    0.1879    0.1998
          40    0.0141   -0.0165   -0.0190    0.0040    0.0751   -0.1939   -0.1726   -0.0029
          41   -0.0191   -0.0470   -0.0329    0.0094   -0.1279    0.0885    0.1507    0.0249
          42    0.0009   -0.0293   -0.0652    0.0205   -0.0900   -0.0160    0.0113    0.1497
          43    0.0062   -0.0634    0.0069    0.0581    0.0745    0.0516    0.2488    0.0674
          44   -0.0237   -0.0757   -0.0695    0.0154   -0.2537    0.0509    0.1064    0.0439
          45    0.0106    0.0250   -0.0077    0.0038    0.1217    0.0128    0.0262    0.1075
          46   -0.0004    0.1049   -0.0146   -0.0195   -0.0511   -0.0008    0.0196   -0.0411
          47    0.0022    0.0772    0.0785   -0.0148    0.2609    0.0687    0.0671   -0.0558
          48    0.0099   -0.0342   -0.0261    0.0139    0.0818    0.0174    0.0496    0.1148
          49   -0.0263    0.7756    0.0808   -0.0104   -0.1565   -0.0207    0.0280    0.1829
          50    0.0119    0.1326    0.1293   -0.0242    0.4183    0.0653    0.0364   -0.0941
          51    0.0264   -0.2416   -0.0223    0.0048    0.2450    0.0221    0.0219    0.0011
          52    0.0156   -0.3536   -0.1010   -0.0462   -0.0288    0.0100   -0.0099   -0.2065
          53    0.0032    0.0857    0.0837   -0.0165    0.2735    0.0682    0.0649   -0.0578
          54   -0.0073    0.0679   -0.0575    0.0328   -0.1261    0.0176    0.0997    0.2199
          55    0.0169   -0.0360    0.1375   -0.0584   -0.0600    0.0996   -0.0994    0.0476
          56   -0.0305   -0.0062    0.0341    0.0161    0.0096    0.0523   -0.1259   -0.0042
          57    0.0392   -0.0268    0.1643    0.0581   -0.0804   -0.1295    0.0582   -0.0464
          58    0.0119   -0.0253    0.1110   -0.0530   -0.0575    0.0976   -0.0958    0.0321
          59   -0.0405    0.0017   -0.0468   -0.0054    0.0362   -0.0895   -0.0469   -0.0146
          60    0.0037    0.0399    0.0416    0.1188   -0.0822   -0.0453    0.0260   -0.1443
          61   -0.0106    0.0295   -0.0397   -0.0336   -0.0352    0.0683   -0.0668   -0.0493
          62   -0.0233    0.0116    0.0081    0.0371    0.0072   -0.1705    0.0114   -0.0805
          63   -0.0156    0.0446   -0.0468    0.0836   -0.0503    0.0214   -0.0191   -0.1064
          64   -0.0140    0.0253   -0.1089   -0.0700   -0.0035   -0.0562    0.0024   -0.0409
          65   -0.0237    0.0051    0.0292    0.0348    0.0030   -0.1002   -0.0318   -0.0588
          66   -0.0228    0.0095   -0.0826    0.0099   -0.0105    0.0689   -0.0624   -0.0031
          67   -0.0122    0.0157   -0.0876   -0.0760   -0.0061   -0.0517   -0.0022   -0.0224
          68   -0.0148   -0.0096    0.1394    0.0595   -0.0284    0.0290   -0.1111   -0.0370
          69   -0.0191   -0.0469   -0.0191   -0.0502   -0.0054   -0.0146   -0.0266    0.1083
          70   -0.0002   -0.0440    0.0669   -0.1009   -0.0291   -0.0431   -0.0276    0.0851
          71   -0.0332   -0.0109    0.0534    0.0187    0.0038    0.1285   -0.1705    0.0115
          72   -0.0009   -0.0594    0.0968   -0.0173   -0.0404   -0.1040    0.0218    0.0877
          73    0.0023   -0.0507    0.0897   -0.1017   -0.0337   -0.0367   -0.0335    0.0965
          74   -0.0179   -0.0167    0.1220    0.0384   -0.0183    0.2390   -0.2302    0.0090
          75   -0.0015   -0.1147    0.1961   -0.0596   -0.0468   -0.2118    0.0578    0.2001
          76   -0.0112   -0.0914    0.1117   -0.1525   -0.0198   -0.1670    0.0176    0.1967
          77   -0.0573   -0.0091   -0.0627   -0.0282    0.0449    0.1581   -0.1929    0.0607
          78   -0.0072   -0.0413    0.0310   -0.0184   -0.0265   -0.0465   -0.0041    0.0679
          79   -0.0224    0.0165   -0.1806   -0.1159    0.0256   -0.1314    0.0462   -0.0061
          80   -0.0132   -0.0154    0.1694    0.0638   -0.0353    0.0807   -0.1442   -0.0241
          81   -0.0323   -0.0641   -0.0952   -0.1121    0.0306    0.0340   -0.0589    0.1850
          82   -0.0083    0.0471   -0.0736   -0.0195   -0.0261    0.0178   -0.0360   -0.0990
          83    0.0081   -0.0209    0.3094    0.1221   -0.0807   -0.0113   -0.0945   -0.0717
          84   -0.0125   -0.0647    0.0284   -0.0580   -0.0144   -0.0636   -0.0017    0.1318
          85   -0.0131    0.0365   -0.0588   -0.0313   -0.0326    0.0662   -0.0641   -0.0592
          86   -0.0275    0.0197   -0.0541    0.0239    0.0277   -0.2676    0.0684   -0.0993
          87   -0.0319    0.0908   -0.1386    0.1133   -0.0468    0.0749   -0.0394   -0.1694
          88   -0.0229    0.0703   -0.1039   -0.0020   -0.0413    0.1435   -0.0984   -0.1042
          89   -0.0072    0.0155    0.0999    0.0857   -0.0333   -0.1895    0.0307   -0.1285
          90   -0.0044    0.0289    0.0135    0.0880   -0.0627   -0.0177    0.0018   -0.1009
          91    0.0254   -0.0663    0.1599   -0.0980   -0.0462    0.0193   -0.0646    0.1003
          92   -0.0558   -0.0053   -0.1359   -0.0647    0.0783   -0.0898   -0.0581    0.0408
          93   -0.0093    0.0613   -0.0190    0.1249   -0.0740   -0.0001    0.0040   -0.1646
          94    0.0031   -0.0163    0.0195    0.0339    0.0536    0.0492    0.1045   -0.0702
          95   -0.0098   -0.0019    0.0169   -0.0001    0.0586    0.0907    0.1282   -0.0144
          96    0.0285    0.0791    0.0524   -0.0079    0.3466   -0.0176   -0.0430    0.0613
          97    0.0595   -0.0769    0.2419   -0.0986   -0.0707    0.1231   -0.1136    0.0959
          98   -0.0801   -0.0109   -0.0153    0.0018    0.0267    0.0989   -0.1624    0.0502
          99    0.0887   -0.0307    0.2243    0.0601   -0.0953   -0.1622    0.0857   -0.0826
         100    0.0125   -0.0156    0.1505   -0.0145   -0.0824    0.1999   -0.1486    0.0119
         101   -0.0369    0.0050   -0.0539   -0.0040    0.0371   -0.1380   -0.0170   -0.0306
         102    0.0146    0.0661    0.0744    0.1789   -0.1154   -0.0732    0.0591   -0.2319
         103   -0.0182    0.0614   -0.1873   -0.0481    0.0071   -0.0754    0.0216   -0.1128
         104   -0.0202    0.0127    0.0521    0.0589   -0.0138   -0.1609    0.0094   -0.0917
         105   -0.0263    0.0106   -0.1192   -0.0063    0.0065    0.1186   -0.0950    0.0096
         106   -0.0144   -0.0063   -0.1025   -0.1158    0.0118   -0.1327    0.0387    0.0245
         107   -0.0290    0.0006   -0.0392   -0.0044    0.0365   -0.0858   -0.0465   -0.0289
         108   -0.0249    0.0237   -0.1182    0.0151   -0.0028    0.1152   -0.0880   -0.0230
         109    0.0091   -0.0101   -0.0512   -0.0362   -0.0227   -0.0716   -0.0202   -0.0239
         110   -0.0014    0.0015   -0.0780   -0.1019   -0.0415   -0.0742   -0.0418    0.0452
         111    0.0057    0.0047   -0.0926   -0.1138   -0.1023    0.1168   -0.0228   -0.0795
         112    0.3193   -0.0603    0.0579    0.1220    0.0087    0.0281   -0.0790    0.0768
         113    0.8318    0.0198   -0.1758    0.2217   -0.0548   -0.0169   -0.0566    0.0954
         114   -0.0883   -0.0002    0.2651   -0.2031   -0.0886   -0.0349    0.0671   -0.1180
         115   -0.3154   -0.0713   -0.1592    0.6023    0.0415   -0.0663   -0.1547    0.2440
         116   -0.1959   -0.0597   -0.0362    0.1805   -0.1610   -0.0057    0.0552    0.1051
         117    0.0637    0.0301    0.1300   -0.0130   -0.0307   -0.0761   -0.0033   -0.0620
         118   -0.0655   -0.0722    0.0366    0.2064    0.0251    0.0129   -0.0851    0.1028
         119   -0.0053   -0.0413    0.0279   -0.0170   -0.0859    0.0402    0.0351    0.0112
         120   -0.0456    0.0277    0.0586    0.1440   -0.0385   -0.1083   -0.0210   -0.0023


   Root No.       9        10        11        12        13        14        15        16

                 9 A      10 A      11 A      12 A      13 A      14 A      15 A      16 A   

                   0.0       0.0       0.0       0.0       0.0       0.0       0.0       0.0
  
           1    0.0875    0.0627   -0.0391    0.0223    0.0201    0.0025   -0.0270    0.0039
           2   -0.1308   -0.0330    0.0340   -0.0352   -0.0258   -0.0285    0.0182   -0.0294
           3   -0.0473    0.0371    0.2628    0.0084    0.0360    0.0070   -0.0049    0.0208
           4    0.0875    0.0621   -0.0386    0.0221    0.0199    0.0022   -0.0270    0.0035
           5   -0.0990    0.0231    0.0156   -0.0310   -0.0142   -0.0085    0.0296   -0.0319
           6   -0.0408    0.0570    0.2326    0.0064    0.0073   -0.1157   -0.1513    0.0599
           7    0.0637    0.0164   -0.0218    0.0211    0.0124   -0.0097   -0.0352    0.0114
           8   -0.0853    0.0496    0.0063   -0.0304   -0.0099   -0.0007    0.0355   -0.0358
           9   -0.0628    0.0154   -0.0065    0.0024   -0.0086   -0.1161   -0.1390    0.0611
          10    0.0359   -0.0299   -0.0080    0.0182    0.0030   -0.0254   -0.0442    0.0141
          11   -0.1008    0.0227    0.0157   -0.0322   -0.0154   -0.0103    0.0298   -0.0346
          12   -0.0883   -0.0506   -0.2271   -0.0002   -0.0121   -0.0838   -0.0799    0.0362
          13    0.0358   -0.0304   -0.0081    0.0182    0.0030   -0.0256   -0.0443    0.0137
          14   -0.1322   -0.0331    0.0350   -0.0358   -0.0265   -0.0297    0.0179   -0.0307
          15   -0.0969   -0.0693   -0.1735    0.0038    0.0217    0.0574    0.0908   -0.0180
          16    0.0609    0.0161   -0.0236    0.0199    0.0113   -0.0120   -0.0357    0.0080
          17   -0.1466   -0.0602    0.0434   -0.0369   -0.0314   -0.0379    0.0126   -0.0274
          18   -0.0766   -0.0244    0.0783    0.0080    0.0494    0.1242    0.1515   -0.0281
          19    0.1084    0.1004   -0.0514    0.0253    0.0279    0.0140   -0.0224    0.0037
          20   -0.1426   -0.0546    0.0404   -0.0369   -0.0305   -0.0356    0.0150   -0.0293
          21   -0.0283    0.0659    0.4150    0.0104    0.0476    0.0220    0.0002    0.0248
          22    0.1041    0.0971   -0.0539    0.0222    0.0237    0.0111   -0.0169   -0.0065
          23   -0.0890    0.0430    0.0067   -0.0312   -0.0119   -0.0033    0.0354   -0.0374
          24   -0.0196    0.1013    0.3918    0.0090   -0.0033   -0.2006   -0.2598    0.0798
          25    0.0124   -0.0658    0.0007    0.0161   -0.0042   -0.0378   -0.0514    0.0177
          26   -0.0873    0.0426    0.0117   -0.0311   -0.0113   -0.0031    0.0342   -0.0371
          27   -0.0874   -0.0811   -0.4034   -0.0044   -0.0370   -0.1425   -0.1391    0.0513
          28    0.0608    0.0161   -0.0238    0.0199    0.0113   -0.0120   -0.0357    0.0081
          29   -0.1680   -0.1024    0.0561   -0.0391   -0.0406   -0.0558   -0.0004   -0.0237
          30   -0.0743   -0.0334    0.1185    0.0102    0.0743    0.2463    0.2952   -0.0687
          31    0.0638    0.0173   -0.0233    0.0209    0.0126   -0.0090   -0.0344    0.0098
          32   -0.0550    0.0907   -0.0120   -0.0280   -0.0017   -0.0020    0.0244   -0.0407
          33   -0.0440    0.0333   -0.0002    0.0032   -0.0014   -0.0328   -0.0518    0.0554
          34    0.0706    0.0177    0.0200    0.0270    0.0323    0.1436    0.1317    0.0146
          35    0.0209    0.1284    0.0293   -0.0536   -0.0200   -0.0420    0.0052   -0.0839
          36    0.0047    0.0559    0.0453   -0.0087   -0.0024    0.0168    0.0169    0.0312
          37    0.0719   -0.0179    0.0324    0.0290    0.0329    0.1476    0.1356    0.0144
          38    0.0357   -0.2692    0.1470   -0.0402   -0.0337   -0.1168   -0.0778   -0.0984
          39    0.0138   -0.1939    0.1573    0.0099    0.0128    0.1342    0.1404    0.0384
          40    0.0608    0.4009   -0.0859    0.0131    0.0459    0.2199    0.2179    0.0190
          41    0.0196    0.2287    0.0025   -0.0584   -0.0175   -0.0252    0.0254   -0.0861
          42    0.0649    0.3241    0.0046   -0.0435   -0.0182   -0.0177    0.0053   -0.0139
          43    0.0860   -0.3403    0.1578    0.0478    0.0408    0.2181    0.2089    0.0172
          44    0.0714    0.4550   -0.0239   -0.0868   -0.0272   -0.0261    0.0473   -0.1291
          45   -0.0252    0.0501    0.0140   -0.0017   -0.0025   -0.0204   -0.0334    0.0506
          46    0.0380   -0.0113   -0.0311    0.0206   -0.0015   -0.0918   -0.1238    0.0358
          47   -0.1094    0.0634   -0.0580   -0.0154    0.0124    0.0193    0.0315   -0.0398
          48   -0.0052    0.0576    0.0290   -0.0035   -0.0023   -0.0059   -0.0136    0.0399
          49    0.0794   -0.0111    0.0521   -0.0058   -0.0057   -0.0159   -0.0269    0.0463
          50   -0.1490    0.0436   -0.0939   -0.0072    0.0206    0.0302    0.0345   -0.0399
          51   -0.0516    0.0420   -0.0292    0.0119    0.0060   -0.0256   -0.0480    0.0370
          52   -0.0039   -0.0337   -0.1011    0.0404   -0.0093   -0.2136   -0.2705    0.0521
          53   -0.1124    0.0618   -0.0613   -0.0142    0.0128    0.0207    0.0327   -0.0397
          54    0.0627    0.0922    0.0972   -0.0230   -0.0109    0.0221    0.0356    0.0346
          55   -0.0751   -0.0012    0.0289    0.0078   -0.0518    0.0409   -0.0236    0.0139
          56    0.1313   -0.0447    0.0009    0.0060   -0.0160    0.0322   -0.0338   -0.0134
          57   -0.0164   -0.0218   -0.0420   -0.0731   -0.0689   -0.0429    0.0641    0.0915
          58   -0.0766   -0.0015    0.0288    0.0018   -0.0388    0.0493   -0.0344    0.0054
          59    0.1560   -0.0535   -0.0150    0.0061    0.0403   -0.0478    0.0255    0.0025
          60   -0.0439   -0.0188   -0.0334   -0.1062   -0.0273    0.0843   -0.0626    0.0183
          61   -0.0622   -0.0044    0.0254   -0.0144    0.0793   -0.0024   -0.0145   -0.0310
          62    0.0832   -0.0513   -0.0163   -0.0235   -0.0620    0.0404   -0.0372    0.0151
          63    0.0260   -0.0210   -0.0327   -0.0835    0.0867   -0.0066   -0.0011   -0.0007
          64   -0.0308   -0.0084    0.0149    0.0120   -0.0562   -0.0032    0.0089    0.0203
          65    0.0923   -0.0495   -0.0111   -0.0187   -0.0290    0.0263   -0.0281    0.0095
          66    0.1180   -0.0216   -0.0319   -0.0199   -0.0234   -0.0630    0.0766    0.0744
          67   -0.0336   -0.0080    0.0147    0.0099   -0.0500    0.0116   -0.0062    0.0073
          68    0.0744   -0.0464    0.0002   -0.0265    0.0578   -0.0165    0.0025    0.0188
          69    0.1113   -0.0231   -0.0441   -0.0364   -0.0477    0.0867   -0.0645   -0.0213
          70   -0.0469   -0.0126    0.0093   -0.0184    0.0750    0.0141   -0.0285   -0.0203
          71    0.1343   -0.0411    0.0077    0.0163   -0.0421    0.0610   -0.0529   -0.0175
          72    0.0524   -0.0290   -0.0522   -0.0822    0.0683    0.0190   -0.0206    0.0067
          73   -0.0503   -0.0130    0.0093   -0.0232    0.0925    0.0133   -0.0302   -0.0218
          74    0.1207   -0.0331    0.0214    0.0384   -0.1333    0.0810   -0.0494    0.0064
          75    0.0458   -0.0435   -0.0729   -0.1478    0.3369   -0.0141   -0.0403   -0.0428
          76   -0.0359   -0.0284   -0.0139   -0.0774    0.3397   -0.0092   -0.0591   -0.0834
          77    0.1973   -0.0421    0.0059    0.0363   -0.0548    0.1186   -0.1080   -0.0671
          78    0.0750   -0.0237   -0.0445   -0.0528   -0.0320    0.0519   -0.0331    0.0081
          79   -0.0084   -0.0081    0.0065    0.0211   -0.1432    0.1076   -0.0860   -0.0435
          80    0.0774   -0.0456    0.0045   -0.0227    0.0722   -0.0308    0.0158    0.0276
          81    0.1684   -0.0183   -0.0422    0.0029   -0.1796    0.2259   -0.1752   -0.0961
          82   -0.0483   -0.0075    0.0246    0.0107   -0.0023   -0.1113    0.1063    0.0870
          83    0.0081   -0.0541   -0.0037   -0.0799    0.2258   -0.1469    0.1008    0.0890
          84    0.0907   -0.0249   -0.0498   -0.0561   -0.0101    0.1023   -0.0867   -0.0389
          85   -0.0606   -0.0048    0.0250   -0.0175    0.1057   -0.0120   -0.0117   -0.0415
          86    0.0981   -0.0547   -0.0241   -0.0126   -0.1484    0.0392   -0.0221    0.0518
          87    0.0276   -0.0215   -0.0302   -0.1140    0.3161   -0.0695    0.0089   -0.0859
          88   -0.0758   -0.0022    0.0309   -0.0456    0.3063   -0.0472   -0.0200   -0.1254
          89    0.0055   -0.0485   -0.0140   -0.0620   -0.0736    0.1155   -0.1037   -0.0043
          90    0.0025   -0.0208   -0.0342   -0.0860   -0.0127    0.0445   -0.0277    0.0287
          91   -0.0439   -0.0067    0.0191    0.0285   -0.0438   -0.0614    0.0695    0.0593
          92    0.2460   -0.0594   -0.0218    0.0444    0.1795   -0.2202    0.1564    0.0094
          93   -0.0317   -0.0180   -0.0302   -0.1103    0.0236    0.0902   -0.0788   -0.0108
          94    0.0838    0.0354   -0.0360    0.0196    0.0155   -0.0228   -0.0547    0.0048
          95   -0.0486    0.0964   -0.0165   -0.0282    0.0004   -0.0073    0.0149   -0.0446
          96   -0.0922    0.0067   -0.0337    0.0199    0.0142    0.0196   -0.0075    0.0491
          97   -0.0634    0.0046    0.0335    0.0210   -0.1213   -0.0189    0.0477    0.0610
          98    0.1502   -0.0472   -0.0024   -0.0004    0.0662    0.1055   -0.1170   -0.0719
          99   -0.0288   -0.0179   -0.0376   -0.0653   -0.1547   -0.1189    0.1507    0.1488
         100   -0.1179    0.0051    0.0410   -0.0157   -0.0908    0.1807   -0.1436   -0.0302
         101    0.1498   -0.0547   -0.0188    0.0023    0.0327   -0.0616    0.0387    0.0137
         102   -0.1293   -0.0135   -0.0291   -0.1495   -0.1359    0.2396   -0.1855    0.0054
         103   -0.0187   -0.0096    0.0162    0.0266   -0.0898   -0.0849    0.0928    0.0894
         104    0.0428   -0.0499   -0.0157   -0.0564    0.0182    0.0970   -0.1077   -0.0575
         105    0.1658   -0.0217   -0.0275    0.0171   -0.0754   -0.1485    0.1712    0.1555
         106   -0.0192   -0.0102    0.0057    0.0159   -0.1186    0.0789   -0.0602   -0.0166
         107    0.1632   -0.0509   -0.0105    0.0333   -0.1379   -0.0571    0.0745    0.1093
         108    0.1454   -0.0214   -0.0269    0.0025   -0.0427   -0.1456    0.1616    0.1415
         109    0.0144   -0.0696    0.0049    0.0162   -0.0042   -0.0384   -0.0524    0.0166
         110   -0.1442   -0.0556    0.0429   -0.0370   -0.0307   -0.0374    0.0130   -0.0293
         111   -0.1038   -0.1066   -0.2985    0.0030    0.0240    0.1138    0.1707   -0.0494
         112   -0.0402   -0.0209    0.0107   -0.2146   -0.2301   -0.1771    0.1884   -0.0260
         113   -0.0020   -0.0216   -0.0226    0.2113    0.1168    0.0636   -0.0761   -0.0083
         114    0.0162    0.0379    0.0066    0.3454   -0.1350   -0.1382    0.1157   -0.1092
         115   -0.2236   -0.0706   -0.0473    0.0116   -0.0560   -0.0685    0.0540   -0.1877
         116   -0.2309    0.0613   -0.0587    0.4639    0.1573    0.1451   -0.0645    0.4700
         117    0.0381   -0.0126   -0.0009    0.3415   -0.0731   -0.1201    0.0478   -0.3658
         118   -0.0903   -0.0237   -0.0057   -0.1748   -0.1936   -0.1457    0.1588   -0.0245
         119   -0.0452    0.0459   -0.0269    0.1534    0.0323    0.0554    0.0074    0.3656
         120   -0.0346   -0.0241   -0.0187    0.4519   -0.0078   -0.0796    0.0013   -0.3997


   Root No.      17        18        19        20        21        22        23        24

                17 A      18 A      19 A      20 A      21 A      22 A      23 A      24 A   

                   0.1       0.1       0.1       0.2       0.2       0.2       0.3       0.3
  
           1   -0.0108    0.0265    0.0063   -0.0454   -0.0265   -0.1249    0.0010   -0.0015
           2   -0.0106    0.0158    0.0052   -0.0183   -0.0078   -0.0328   -0.0015   -0.0017
           3   -0.0096    0.0211    0.0042    0.0155    0.1688   -0.0315    0.0002   -0.0852
           4   -0.0108    0.0183    0.0059   -0.0436   -0.0253   -0.1177    0.0009    0.0003
           5   -0.0107    0.1574    0.0112   -0.0635   -0.0281   -0.0715   -0.0005   -0.0072
           6    0.0014    0.0663    0.0012    0.1565   -0.0788   -0.0110    0.0002    0.0759
           7   -0.0089   -0.0654    0.0016   -0.0072   -0.0098   -0.0558    0.0002    0.0014
           8   -0.0111    0.2137    0.0135   -0.0811   -0.0361   -0.0977   -0.0000   -0.0090
           9    0.0033    0.0343    0.0007   -0.0382   -0.0211    0.0353   -0.0006    0.0498
          10   -0.0090   -0.1665   -0.0021    0.0184    0.0023   -0.0547   -0.0005    0.0024
          11   -0.0113    0.1507    0.0112   -0.0681   -0.0300   -0.0946   -0.0004   -0.0068
          12   -0.0016    0.0711    0.0002    0.0775    0.1581   -0.0248   -0.0017    0.0834
          13   -0.0094   -0.1774   -0.0024    0.0193    0.0023   -0.0558   -0.0005    0.0041
          14   -0.0110    0.0111    0.0052   -0.0218   -0.0077   -0.0493   -0.0015   -0.0009
          15   -0.0169    0.0202    0.0009    0.1368   -0.1197   -0.0170   -0.0012   -0.0797
          16   -0.0103   -0.0786    0.0020   -0.0158   -0.0125   -0.1023    0.0002    0.0023
          17   -0.0103   -0.0450    0.0026    0.0019    0.0015   -0.0213   -0.0020   -0.0016
          18   -0.0220   -0.0438    0.0042   -0.0977   -0.0244    0.0258   -0.0007    0.1031
          19   -0.0111    0.1257    0.0111   -0.0799   -0.0439   -0.1705    0.0018   -0.0084
          20   -0.0104   -0.0406    0.0024    0.0003   -0.0004   -0.0115   -0.0020    0.0030
          21   -0.0081    0.0329    0.0057    0.0096    0.5315   -0.1044    0.0009   -0.4636
          22   -0.0110    0.1117    0.0089   -0.0866   -0.0439   -0.1862    0.0016   -0.0062
          23   -0.0107    0.2106    0.0126   -0.0886   -0.0388   -0.1110   -0.0002   -0.0114
          24    0.0082    0.1348   -0.0016    0.4765   -0.3271   -0.0471    0.0006    0.3415
          25   -0.0086   -0.2685   -0.0068    0.0510    0.0223   -0.0401   -0.0014    0.0137
          26   -0.0118    0.2055    0.0139   -0.0871   -0.0430   -0.1061    0.0001   -0.0142
          27    0.0073    0.1346   -0.0016    0.1554    0.5457   -0.1032   -0.0030    0.3432
          28   -0.0104   -0.0798    0.0020   -0.0167   -0.0136   -0.1056    0.0002    0.0027
          29   -0.0099   -0.1526   -0.0018    0.0403    0.0178    0.0099   -0.0026   -0.0042
          30   -0.0322   -0.1318    0.0058   -0.3478   -0.0893    0.0979   -0.0013    0.5107
          31   -0.0099   -0.0671    0.0022   -0.0080   -0.0083   -0.0480    0.0003    0.0006
          32   -0.0163    0.0935    0.0105   -0.0286   -0.0150   -0.0647   -0.0001    0.0107
          33    0.0072   -0.0331   -0.0017   -0.1512   -0.0600    0.0299   -0.0009   -0.0530
          34    0.0073    0.0912   -0.0009    0.0997    0.0460    0.0239   -0.0005    0.0248
          35   -0.0324   -0.0455    0.0087    0.0399    0.0145    0.0408   -0.0003    0.0132
          36    0.0055   -0.0365   -0.0040   -0.0660   -0.0203    0.1137   -0.0014   -0.0471
          37    0.0079    0.0985   -0.0009    0.1125    0.0520    0.0374   -0.0005    0.0298
          38   -0.0431   -0.1554    0.0111    0.0011   -0.0083    0.0617    0.0012   -0.0188
          39    0.0235    0.1041   -0.0086    0.0643    0.0439    0.2640   -0.0018   -0.0112
          40    0.0121    0.1930    0.0000    0.1725    0.0807    0.0507   -0.0013    0.0667
          41   -0.0330   -0.0291    0.0094    0.0592    0.0239    0.0586   -0.0004    0.0204
          42   -0.0150   -0.1791   -0.0030   -0.0082    0.0113    0.2863   -0.0008   -0.0758
          43    0.0202    0.1871   -0.0044    0.2178    0.1018    0.1324   -0.0006    0.0695
          44   -0.0504   -0.1191    0.0116    0.1508    0.0714    0.2085   -0.0001    0.0244
          45    0.0084   -0.0420   -0.0039   -0.1601   -0.0662    0.0113   -0.0015   -0.0712
          46   -0.0030    0.1194    0.0068   -0.1078   -0.0397    0.1781    0.0005   -0.0365
          47   -0.0240   -0.0600    0.0138    0.0381    0.0189    0.0567    0.0024    0.0011
          48    0.0055   -0.0396   -0.0032   -0.1350   -0.0606   -0.1056   -0.0018   -0.0387
          49    0.0127    0.0732    0.0011   -0.1158   -0.0416    0.2387    0.0007   -0.0669
          50   -0.0268   -0.1892    0.0114    0.1066    0.0572    0.2080    0.0035   -0.0045
          51   -0.0025   -0.1208   -0.0026   -0.0826   -0.0333   -0.0174   -0.0010   -0.0330
          52   -0.0068    0.3409    0.0143   -0.2424   -0.0824    0.4664   -0.0006   -0.1071
          53   -0.0235   -0.0742    0.0127    0.0472    0.0244    0.0721    0.0024    0.0021
          54    0.0148    0.0367   -0.0086   -0.1764   -0.0937   -0.3918   -0.0041   -0.0108
          55   -0.0583   -0.0004    0.1040    0.0019    0.0003   -0.0000    0.0162    0.0001
          56    0.0183    0.0001   -0.0256   -0.0013    0.0011    0.0005   -0.0095    0.0000
          57    0.0006   -0.0073    0.2278    0.0019   -0.0039    0.0016    0.0103    0.0005
          58   -0.0591    0.0009    0.0689    0.0012    0.0008    0.0002    0.0113   -0.0000
          59    0.0487   -0.0010    0.0364   -0.0014   -0.0000    0.0015   -0.0033   -0.0005
          60   -0.0160    0.0009   -0.0068   -0.0020    0.0000    0.0027   -0.0549    0.0002
          61    0.0442    0.0016    0.0387   -0.0010    0.0025    0.0017    0.0299   -0.0004
          62    0.0060    0.0016   -0.0071   -0.0023    0.0005    0.0026    0.0806   -0.0007
          63    0.0564   -0.0017    0.0285   -0.0020   -0.0000    0.0021   -0.1203    0.0002
          64   -0.0487    0.0048   -0.0075   -0.0012    0.0008    0.0022   -0.1036   -0.0009
          65    0.0154    0.0004    0.0052   -0.0019    0.0008    0.0019    0.1609   -0.0004
          66   -0.0990    0.0007   -0.0327   -0.0012   -0.0020    0.0000   -0.0545    0.0003
          67   -0.0305    0.0038    0.0101   -0.0007    0.0005    0.0020   -0.1268   -0.0009
          68   -0.0293    0.0004   -0.0005   -0.0012    0.0018    0.0012    0.0025   -0.0003
          69    0.0375   -0.0045    0.0501    0.0007   -0.0048   -0.0013   -0.0868    0.0000
          70   -0.0588    0.0040   -0.0201    0.0005   -0.0007    0.0004   -0.0193   -0.0002
          71    0.0166   -0.0012   -0.0033   -0.0007    0.0013   -0.0001   -0.0130    0.0001
          72   -0.0166   -0.0027    0.0369    0.0005   -0.0047   -0.0003   -0.0546   -0.0002
          73   -0.0689    0.0043   -0.0308    0.0006   -0.0008    0.0001    0.0131   -0.0000
          74    0.0246   -0.0060    0.1283    0.0014    0.0013   -0.0013    0.0316    0.0009
          75   -0.0838    0.0042   -0.1772   -0.0005   -0.0058   -0.0011    0.1295    0.0002
          76   -0.1205    0.0123   -0.2782   -0.0015   -0.0017   -0.0005    0.1072   -0.0001
          77    0.0446    0.0004   -0.0881   -0.0016    0.0011   -0.0012   -0.1349   -0.0005
          78    0.0166   -0.0049    0.0917    0.0008   -0.0044   -0.0005   -0.1427   -0.0004
          79    0.0805    0.0012    0.0469   -0.0006   -0.0009    0.0018    0.0761   -0.0007
          80   -0.0601    0.0008   -0.0106   -0.0010    0.0021    0.0008   -0.0716   -0.0002
          81    0.1650   -0.0089    0.1026    0.0018   -0.0062   -0.0031    0.0845    0.0007
          82   -0.1603    0.0077   -0.0439   -0.0016    0.0027    0.0029   -0.3612   -0.0012
          83   -0.1753    0.0040   -0.0401   -0.0014    0.0028    0.0021   -0.2454   -0.0011
          84    0.0578   -0.0052    0.0662    0.0010   -0.0055   -0.0014   -0.0332   -0.0001
          85    0.0757    0.0010    0.0476   -0.0013    0.0027    0.0020    0.0587   -0.0005
          86   -0.0613    0.0048   -0.0632   -0.0030   -0.0002    0.0034   -0.0842   -0.0013
          87    0.2792   -0.0060    0.0868   -0.0035    0.0023    0.0032    0.0945    0.0002
          88    0.2747   -0.0034    0.1172   -0.0021    0.0049    0.0023    0.3404   -0.0001
          89    0.0264    0.0012    0.0125   -0.0023    0.0014    0.0032    0.1443   -0.0006
          90   -0.0277    0.0002    0.0022   -0.0016   -0.0007    0.0021   -0.2064    0.0001
          91   -0.0441   -0.0059    0.2943    0.0046   -0.0023   -0.0004    0.0132    0.0004
          92    0.1634   -0.0083    0.2157    0.0002   -0.0018    0.0014   -0.1825   -0.0006
          93    0.0136    0.0024   -0.0792   -0.0035    0.0013    0.0029   -0.1084   -0.0001
          94   -0.0149   -0.2389   -0.0029    0.0389    0.0069   -0.0691    0.0000    0.0171
          95   -0.0231    0.0161    0.0129   -0.0062   -0.0072   -0.0658    0.0008    0.0164
          96    0.0013   -0.0724    0.0044   -0.1728   -0.0639    0.0403    0.0009   -0.1081
          97    0.0020   -0.0067    0.1938    0.0027   -0.0012   -0.0012    0.0958   -0.0003
          98   -0.0251    0.0047   -0.1621   -0.0024    0.0009    0.0011   -0.1109   -0.0004
          99    0.0569   -0.0128    0.3656    0.0035   -0.0042    0.0010    0.1190    0.0013
         100   -0.1270    0.0065   -0.1009   -0.0001    0.0030   -0.0005    0.0393    0.0004
         101    0.0597   -0.0018    0.0647   -0.0016   -0.0003    0.0021    0.0270   -0.0007
         102   -0.0945    0.0078   -0.1992   -0.0046    0.0022    0.0034    0.1193   -0.0000
         103   -0.1493    0.0092   -0.0847   -0.0027    0.0019    0.0033    0.0552   -0.0006
         104    0.1481   -0.0027    0.0771   -0.0018    0.0010    0.0028   -0.0205   -0.0008
         105   -0.2524    0.0048   -0.1238   -0.0017   -0.0019   -0.0006    0.1712    0.0007
         106    0.0023    0.0025    0.0351   -0.0000   -0.0012    0.0015   -0.2205   -0.0013
         107   -0.1696    0.0053   -0.1019   -0.0025   -0.0000    0.0008    0.4653    0.0000
         108   -0.2148    0.0042   -0.1079   -0.0021   -0.0013   -0.0001    0.1728    0.0008
         109   -0.0095   -0.2875   -0.0068    0.0595    0.0168   -0.0249   -0.0013    0.0046
         110   -0.0111   -0.0497    0.0028   -0.0009    0.0020   -0.0314   -0.0019    0.0012
         111   -0.0207    0.0255   -0.0023    0.3695   -0.3811   -0.0593   -0.0007   -0.4345
         112    0.3430    0.0013   -0.2708   -0.0060   -0.0014    0.0015   -0.0112   -0.0014
         113   -0.0761   -0.0062    0.0275    0.0022   -0.0002   -0.0003   -0.0059    0.0007
         114    0.2850   -0.0007   -0.2658   -0.0049    0.0011    0.0009   -0.0118   -0.0008
         115   -0.0850    0.0025    0.0681   -0.0072    0.0074    0.0049    0.0107   -0.0042
         116    0.1031   -0.0660    0.0263    0.0017   -0.0109    0.0102    0.0320   -0.0043
         117    0.0156    0.0245   -0.1002   -0.0045    0.0081   -0.0014   -0.0177    0.0008
         118    0.2722   -0.0030   -0.2230   -0.0058   -0.0011    0.0040   -0.0246   -0.0014
         119    0.3136   -0.0446   -0.2718   -0.0001   -0.0118    0.0085   -0.0594   -0.0015
         120   -0.1374    0.0228    0.0482   -0.0038    0.0106   -0.0015    0.0097   -0.0001


   Root No.      25        26        27        28        29        30        31        32

                25 A      26 A      27 A      28 A      29 A      30 A      31 A      32 A   

                   0.3       0.4       0.5       0.6       0.7       0.7       0.7       0.8
  
           1   -0.0003    0.1132    0.0017    0.0291    0.0449    0.0012   -0.0003   -0.0002
           2   -0.0004    0.0180    0.0004   -0.0331   -0.0702   -0.0015    0.0003    0.0006
           3   -0.0017   -0.0080    0.0008    0.2258   -0.1293   -0.0043   -0.0005   -0.0020
           4   -0.0003    0.0907    0.0014    0.0241    0.0333    0.0008   -0.0002   -0.0002
           5   -0.0007    0.0857    0.0018   -0.0407   -0.0914   -0.0018    0.0001    0.0005
           6   -0.0007   -0.0096    0.0008    0.2492   -0.1315   -0.0039   -0.0001   -0.0016
           7    0.0000    0.0000    0.0005   -0.0345   -0.0923   -0.0023    0.0004    0.0004
           8   -0.0008    0.1203    0.0021   -0.0140   -0.0301   -0.0003   -0.0002    0.0002
           9   -0.0004   -0.0307    0.0005    0.3255   -0.1336   -0.0047    0.0004   -0.0006
          10    0.0002    0.0442    0.0006    0.0257    0.0455    0.0012    0.0000   -0.0001
          11   -0.0007    0.1403    0.0021    0.0107    0.0217    0.0010   -0.0003    0.0001
          12   -0.0005   -0.0110    0.0000    0.2625   -0.1369   -0.0054    0.0004   -0.0013
          13    0.0002    0.0416    0.0005    0.0350    0.0648    0.0016   -0.0000   -0.0003
          14   -0.0004    0.0621    0.0005    0.0137    0.0315    0.0009   -0.0001    0.0002
          15   -0.0013   -0.0085    0.0002    0.2371   -0.1363   -0.0054    0.0000   -0.0018
          16   -0.0001    0.1089    0.0013    0.0641    0.1235    0.0030   -0.0004   -0.0006
          17   -0.0002    0.0179   -0.0000   -0.0088   -0.0137   -0.0002    0.0002    0.0004
          18   -0.0017   -0.0043    0.0005    0.2251   -0.1327   -0.0049   -0.0004   -0.0020
          19   -0.0005    0.2127    0.0041    0.0254    0.0209    0.0021   -0.0007   -0.0002
          20   -0.0002   -0.0279   -0.0010   -0.0298   -0.0603   -0.0022    0.0005    0.0006
          21   -0.0025   -0.0041   -0.0003   -0.2182    0.1200    0.0037   -0.0005    0.0016
          22   -0.0006    0.2578    0.0021    0.0887    0.1523    0.0018   -0.0001   -0.0004
          23   -0.0009    0.1817    0.0023   -0.0096   -0.0363   -0.0016    0.0003    0.0005
          24    0.0001    0.0362    0.0003   -0.2643    0.1132    0.0049   -0.0004    0.0007
          25    0.0003    0.0100   -0.0008    0.1206    0.2931    0.0073   -0.0007   -0.0011
          26   -0.0008    0.1710    0.0031   -0.0374   -0.1131   -0.0023    0.0001    0.0006
          27    0.0002    0.0348   -0.0004   -0.2772    0.1109    0.0041    0.0004    0.0014
          28   -0.0001    0.1181    0.0013    0.0704    0.1393    0.0033   -0.0005   -0.0006
          29    0.0001   -0.0236   -0.0006    0.0086   -0.0206   -0.0007    0.0003    0.0002
          30   -0.0015    0.0229    0.0005   -0.2446    0.1292    0.0049   -0.0005    0.0019
          31    0.0000   -0.0316    0.0004   -0.0749   -0.1678   -0.0039    0.0006    0.0008
          32   -0.0006   -0.2202   -0.0019    0.0311    0.1026    0.0034   -0.0007   -0.0010
          33    0.0001   -0.0344   -0.0006   -0.0048    0.0126    0.0001    0.0007    0.0014
          34    0.0007   -0.0412   -0.0006   -0.0809   -0.1375   -0.0032    0.0008    0.0008
          35   -0.0007   -0.1193   -0.0011    0.0359    0.0610    0.0017    0.0000    0.0018
          36    0.0004    0.0451   -0.0002   -0.0039    0.0258    0.0001    0.0012    0.0029
          37    0.0008   -0.0442   -0.0006   -0.0741   -0.1426   -0.0033    0.0008    0.0011
          38   -0.0010   -0.0056    0.0012   -0.1348   -0.1662   -0.0023    0.0001    0.0047
          39    0.0010    0.0702   -0.0012    0.2670    0.4686    0.0094    0.0001    0.0042
          40    0.0012   -0.2397   -0.0030    0.0471   -0.0252   -0.0005    0.0012    0.0073
          41   -0.0006   -0.1520   -0.0014    0.0597    0.0905    0.0026   -0.0000    0.0030
          42    0.0001    0.4009    0.0046   -0.1829   -0.2806   -0.0071    0.0015   -0.0017
          43    0.0014   -0.0047   -0.0001   -0.0217   -0.2060   -0.0052    0.0004   -0.0085
          44   -0.0005    0.0808    0.0015    0.0624    0.1186    0.0038   -0.0019   -0.0096
          45    0.0000   -0.0546   -0.0015   -0.0387    0.0275   -0.0001    0.0023    0.0123
          46   -0.0003   -0.0538    0.0006   -0.0203   -0.0641   -0.0009    0.0001    0.0002
          47   -0.0008   -0.1157    0.0013    0.0021    0.0666    0.0042   -0.0015   -0.0034
          48    0.0004   -0.1029   -0.0017   -0.0263   -0.0200   -0.0008    0.0010    0.0010
          49   -0.0007   -0.0441    0.0005   -0.0464    0.0100    0.0003   -0.0000    0.0016
          50   -0.0012    0.0989    0.0031    0.0269   -0.0373   -0.0002   -0.0001    0.0029
          51    0.0002    0.0483   -0.0003   -0.0031   -0.1283   -0.0046    0.0020    0.0051
          52    0.0001   -0.2095   -0.0020   -0.0888    0.1056    0.0036   -0.0003   -0.0018
          53   -0.0009   -0.0878    0.0013    0.0083    0.0552    0.0035   -0.0012   -0.0025
          54    0.0014   -0.3450   -0.0050   -0.0442    0.0375    0.0010    0.0003   -0.0054
          55   -0.0944    0.0008   -0.1167   -0.0017    0.0014   -0.0425   -0.0097    0.0142
          56   -0.0511   -0.0025    0.2405    0.0008   -0.0007    0.0519   -0.0143   -0.0008
          57    0.0230   -0.0017    0.0410    0.0005    0.0026   -0.0558    0.0093    0.0030
          58   -0.1129    0.0013   -0.1454   -0.0016    0.0002    0.0027    0.0035    0.0214
          59   -0.0836    0.0002    0.0402    0.0015   -0.0002   -0.0207   -0.0015    0.0619
          60   -0.1203    0.0012   -0.0745   -0.0006    0.0009    0.0050    0.0354   -0.0168
          61    0.0396    0.0011   -0.0696   -0.0031    0.0012   -0.0025   -0.0211   -0.0474
          62    0.0032    0.0009   -0.0134    0.0022   -0.0003   -0.0201    0.0107    0.0297
          63   -0.1679    0.0008   -0.0081   -0.0012    0.0006    0.0066   -0.0270   -0.0149
          64    0.0596   -0.0001    0.0344   -0.0026    0.0018   -0.0234   -0.0156   -0.0373
          65    0.0387    0.0013   -0.0573    0.0020   -0.0010    0.0075   -0.0066   -0.0193
          66   -0.0164    0.0005    0.0088   -0.0008    0.0014   -0.0523    0.0092    0.0081
          67    0.0793   -0.0003    0.0421   -0.0022    0.0007    0.0225    0.0030    0.0025
          68    0.0662    0.0000    0.0503    0.0009    0.0007   -0.0211   -0.0151   -0.0498
          69    0.1337    0.0010   -0.0356    0.0022   -0.0019    0.0104    0.0258    0.0189
          70   -0.0727   -0.0005    0.0093   -0.0005   -0.0007    0.0249   -0.0180    0.0666
          71   -0.0187   -0.0010    0.1306    0.0004    0.0006   -0.0139   -0.0002   -0.0142
          72    0.1695    0.0015   -0.1184    0.0025   -0.0013   -0.0078   -0.0354   -0.0060
          73   -0.1104   -0.0006    0.0047   -0.0009    0.0009   -0.0413   -0.0163   -0.0128
          74   -0.0775    0.0005   -0.0378   -0.0013    0.0073   -0.3092   -0.0256   -0.3365
          75    0.0348    0.0006   -0.0078    0.0029    0.0028   -0.2037    0.0148   -0.3072
          76   -0.2577   -0.0037    0.2908    0.0024   -0.0037    0.1069    0.0447    0.1748
          77    0.1152    0.0000    0.2044    0.0031   -0.0115    0.3739   -0.1029    0.3294
          78    0.2859    0.0030   -0.1824    0.0026   -0.0050    0.1146   -0.0921    0.0976
          79    0.0729    0.0002   -0.0526   -0.0015   -0.0029    0.1444   -0.2332   -0.2391
          80    0.0284   -0.0009    0.1557    0.0006    0.0039   -0.1255    0.1359    0.0820
          81   -0.0795   -0.0020    0.1789    0.0024    0.0033   -0.1547    0.1524    0.0781
          82    0.1355   -0.0008    0.1659   -0.0044    0.0068   -0.1507    0.3246    0.0062
          83    0.3480    0.0032   -0.1215    0.0027   -0.0057    0.1680   -0.1549    0.0071
          84    0.1893    0.0022   -0.1617    0.0038   -0.0069    0.1566   -0.2083    0.0227
          85    0.0852    0.0007   -0.0315   -0.0034    0.0025   -0.0468   -0.0490   -0.0657
          86    0.0477   -0.0005    0.1531    0.0019    0.0062   -0.3188   -0.2841   -0.2285
          87    0.0314   -0.0007    0.1571   -0.0034    0.0055   -0.1031   -0.0179    0.0604
          88    0.2822    0.0003   -0.0287   -0.0051    0.0030    0.0024    0.0799   -0.0158
          89   -0.1186    0.0029   -0.2265    0.0043   -0.0082    0.3309    0.3304   -0.0310
          90   -0.3030    0.0019   -0.1096    0.0004   -0.0030    0.1349    0.0696   -0.0435
          91   -0.1462    0.0022   -0.3521   -0.0018    0.0058   -0.2495    0.0334    0.3573
          92   -0.3399    0.0027   -0.1629    0.0021   -0.0058    0.1528    0.0684   -0.1017
          93   -0.1813    0.0014   -0.0172   -0.0002   -0.0041    0.1973    0.0345   -0.2637
          94    0.0002   -0.2906   -0.0027   -0.1025   -0.2945   -0.0093    0.0013    0.0016
          95   -0.0005   -0.3122   -0.0012    0.0222    0.0610    0.0033   -0.0009   -0.0014
          96    0.0005   -0.0325    0.0010   -0.2615    0.0531    0.0051   -0.0025   -0.0154
          97    0.0231   -0.0022    0.1715   -0.0001   -0.0023    0.0969   -0.0882   -0.0697
          98    0.0135    0.0002   -0.1155   -0.0015    0.0046   -0.1359   -0.0172   -0.0151
          99   -0.0071   -0.0063    0.4590    0.0019   -0.0026    0.1476   -0.0072   -0.0044
         100   -0.1206   -0.0006    0.0365   -0.0016   -0.0034    0.1610   -0.0744   -0.1830
         101   -0.0533    0.0014   -0.0270    0.0011    0.0025   -0.1456    0.0326    0.2551
         102    0.0373    0.0012   -0.0093   -0.0021    0.0053   -0.2142    0.0430    0.3703
         103   -0.1027   -0.0004    0.0189   -0.0041    0.0018    0.0085   -0.4051    0.1362
         104   -0.0536    0.0015   -0.0460    0.0027   -0.0003   -0.0682   -0.2019    0.0792
         105    0.0294    0.0003   -0.0150   -0.0017    0.0007    0.0241    0.0948   -0.0396
         106    0.2474   -0.0001    0.0655   -0.0006    0.0014   -0.0134    0.4365   -0.1108
         107    0.1499    0.0017   -0.1380    0.0028   -0.0038    0.1254    0.2416   -0.0557
         108   -0.0609    0.0008   -0.0533   -0.0013   -0.0001    0.0125   -0.1096    0.0279
         109    0.0005   -0.0228   -0.0005    0.0356    0.0993    0.0029    0.0003   -0.0005
         110   -0.0002    0.0283    0.0000    0.0146    0.0437    0.0014    0.0001    0.0000
         111   -0.0015    0.0015    0.0006   -0.2426    0.1337    0.0049    0.0001    0.0023
         112   -0.0061   -0.0008   -0.0208    0.0026   -0.0065    0.0301   -0.0053   -0.0023
[...]
 FREQUENCY          1382.78         C 22 -- H 35         +19.0% ( 47.9%)      0.0%
 TRANSITION DIPOLE   0.6238         C 22 -- H 36         +13.7% ( 40.7%)      0.0%
 TRAVEL (Ang.)       0.3810         C 23 -- H 27         +13.7% ( 40.7%)      0.1%
 REDUCED MASS        0.3359         C 21 -- H 29         +10.0% ( 34.7%)      0.7%
 EFFECTIVE MASS      2.8686
 FORCE CONSTANT      0.3784

 VIBRATION         83   83A           ATOM PAIR      ENERGY CONTRIBUTION    RADIAL
 FREQUENCY          1395.72         C 20 -- H 34         +16.3% ( 46.9%)      0.1%
 TRANSITION DIPOLE   0.5135         C 24 -- H 25         +13.0% ( 41.9%)      0.0%
 TRAVEL (Ang.)       0.3442         C 20 -- H 31         +12.8% ( 41.5%)      0.0%
 REDUCED MASS        0.4078         C 24 -- H 26         +10.1% ( 37.0%)      0.0%
 EFFECTIVE MASS      3.8291
 FORCE CONSTANT      0.4680

 VIBRATION         84   84A           ATOM PAIR      ENERGY CONTRIBUTION    RADIAL
 FREQUENCY          1446.21         C  1 -- C  2         +14.8% ( 59.9%)     99.4%
 TRANSITION DIPOLE   0.1750         C  4 -- C  5         +14.1% ( 58.4%)     99.6%
 TRAVEL (Ang.)       0.1724         C  1 -- C  6         +11.8% ( 53.5%)     94.6%
 REDUCED MASS        1.5682         C  5 -- C  6         +10.7% ( 50.9%)     97.3%
 EFFECTIVE MASS     10.0336
 FORCE CONSTANT      1.9324

 VIBRATION         85   85A           ATOM PAIR      ENERGY CONTRIBUTION    RADIAL
 FREQUENCY          1500.12         N 16 -- O 17         +31.8% ( 76.2%)     68.6%
 TRANSITION DIPOLE   3.9692         N 16 -- O 18         +30.7% ( 74.9%)     66.4%
 TRAVEL (Ang.)       0.0968         O 17 -- O 18         +19.9% ( 60.3%)    100.0%
 REDUCED MASS        4.8020         C 11 -- N 16         +13.8% ( 50.2%)     99.6%
 EFFECTIVE MASS     14.8390
 FORCE CONSTANT      6.3668

 VIBRATION         86   86A           ATOM PAIR      ENERGY CONTRIBUTION    RADIAL
 FREQUENCY          1515.40         N 19 -- H 33         +73.0% ( 89.6%)      0.0%
 TRANSITION DIPOLE   0.3148         N 19 -- C 20          +4.8% ( 22.9%)     20.5%
 TRAVEL (Ang.)       0.2475         N 19 -- C 24          +4.7% ( 22.8%)     21.9%
 REDUCED MASS        0.7263         C 20 -- H 34          +2.9% ( 17.7%)      3.5%
 EFFECTIVE MASS      2.4334
 FORCE CONSTANT      0.9827

 VIBRATION         87   87A           ATOM PAIR      ENERGY CONTRIBUTION    RADIAL
 FREQUENCY          1532.23         C  1 -- C  6         +12.4% ( 49.0%)     38.0%
 TRANSITION DIPOLE   0.5836         C  5 -- C  6         +12.4% ( 49.0%)     30.8%
 TRAVEL (Ang.)       0.1721         C  6 -- H 10         +12.2% ( 48.7%)      0.0%
 REDUCED MASS        1.4854         C  3 -- C  4         +11.7% ( 47.6%)     45.8%
 EFFECTIVE MASS      9.5770         C  2 -- C  3         +11.4% ( 46.9%)     30.6%
 FORCE CONSTANT      2.0547

 VIBRATION         88   88A           ATOM PAIR      ENERGY CONTRIBUTION    RADIAL
 FREQUENCY          1558.17         C  2 -- C  3         +14.2% ( 51.7%)     73.8%
 TRANSITION DIPOLE   0.7975         C  3 -- C  4         +12.2% ( 48.0%)     60.3%
 TRAVEL (Ang.)       0.1858         C  5 -- C  6         +10.0% ( 43.3%)     78.6%
 REDUCED MASS        1.2532         C  1 -- C  2          +8.5% ( 40.0%)      0.4%
 EFFECTIVE MASS      9.4611
 FORCE CONSTANT      1.7927

 VIBRATION         89   89A           ATOM PAIR      ENERGY CONTRIBUTION    RADIAL
 FREQUENCY          1670.51         N 16 -- O 18         +35.8% ( 84.8%)     89.4%
 TRANSITION DIPOLE  11.1999         N 16 -- O 17         +35.5% ( 84.4%)     89.0%
 TRAVEL (Ang.)       0.0775         C 11 -- N 16         +21.2% ( 65.3%)      0.1%
 REDUCED MASS        6.7151         O 17 -- O 18          +6.4% ( 36.0%)      0.0%
 EFFECTIVE MASS     14.5629
 FORCE CONSTANT     11.0409

 VIBRATION         90   90A           ATOM PAIR      ENERGY CONTRIBUTION    RADIAL
 FREQUENCY          1693.21         C  4 -- C  5         +17.4% ( 59.4%)     96.8%
 TRANSITION DIPOLE   0.5982         C  1 -- C  2         +16.9% ( 58.6%)     97.1%
 TRAVEL (Ang.)       0.1272         C  5 -- C  6         +12.2% ( 49.8%)     70.4%
 REDUCED MASS        2.4632         C  2 -- C  3         +12.0% ( 49.4%)     71.2%
 EFFECTIVE MASS     11.9662
 FORCE CONSTANT      4.1607

 VIBRATION         91   91A           ATOM PAIR      ENERGY CONTRIBUTION    RADIAL
 FREQUENCY          1697.20         C  3 -- C  4         +18.0% ( 60.4%)     97.7%
 TRANSITION DIPOLE   0.4846         C  1 -- C  6         +16.5% ( 57.9%)     97.3%
 TRAVEL (Ang.)       0.1261         C  2 -- C  3         +12.7% ( 50.7%)     70.1%
 REDUCED MASS        2.4991         C  5 -- C  6         +11.4% ( 48.0%)     68.4%
 EFFECTIVE MASS     11.9539
 FORCE CONSTANT      4.2412

 VIBRATION         92   92A           ATOM PAIR      ENERGY CONTRIBUTION    RADIAL
 FREQUENCY          1902.38         C 11 -- H 32         +89.3% ( 99.1%)    100.0%
 TRANSITION DIPOLE   1.2303         C 11 -- N 16          +3.2% ( 18.7%)      0.3%
 TRAVEL (Ang.)       0.1451         C 11 -- C 12          +3.1% ( 18.5%)      8.7%
 REDUCED MASS        1.6833         C  3 -- C 11          +3.1% ( 18.4%)      6.6%
 EFFECTIVE MASS      2.9657
 FORCE CONSTANT      3.5894

 VIBRATION         93   93A           ATOM PAIR      ENERGY CONTRIBUTION    RADIAL
 FREQUENCY          2161.16         H 39 -- O 40         +78.1% ( 87.2%)      4.4%
 TRANSITION DIPOLE   1.0952         N 19 -- H 33         +17.5% ( 41.3%)     73.2%
 TRAVEL (Ang.)       0.2166         H 38 -- O 40          +3.7% ( 19.0%)     39.2%
 REDUCED MASS        0.6651         N 19 -- C 20          +0.3% (  5.8%)      6.0%
 EFFECTIVE MASS      1.8514
 FORCE CONSTANT      1.8303

 VIBRATION         94   94A           ATOM PAIR      ENERGY CONTRIBUTION    RADIAL
 FREQUENCY          2631.32         C 20 -- H 31         +52.2% ( 74.9%)     98.8%
 TRANSITION DIPOLE   0.3407         C 20 -- H 34         +33.7% ( 60.2%)     97.5%
 TRAVEL (Ang.)       0.2515         C 21 -- H 30          +6.2% ( 25.7%)     99.0%
 REDUCED MASS        0.4052         C 21 -- H 29          +2.5% ( 16.2%)     97.5%
 EFFECTIVE MASS      1.4223
 FORCE CONSTANT      1.6531

 VIBRATION         95   95A           ATOM PAIR      ENERGY CONTRIBUTION    RADIAL
 FREQUENCY          2636.11         C 24 -- H 26         +53.1% ( 75.4%)     98.8%
 TRANSITION DIPOLE   0.3818         C 24 -- H 25         +36.4% ( 62.4%)     97.5%
 TRAVEL (Ang.)       0.2439         C 23 -- H 28          +2.8% ( 17.2%)     98.7%
 REDUCED MASS        0.4301         C 23 -- H 27          +1.6% ( 13.2%)     98.5%
 EFFECTIVE MASS      1.4272
 FORCE CONSTANT      1.7610

 VIBRATION         96   96A           ATOM PAIR      ENERGY CONTRIBUTION    RADIAL
 FREQUENCY          2641.75         C 12 -- H 15         +65.9% ( 83.9%)     99.5%
 TRANSITION DIPOLE   0.9847         C 12 -- H 13         +23.9% ( 50.4%)     91.5%
 TRAVEL (Ang.)       0.2226         C 12 -- H 14          +9.2% ( 31.3%)     74.8%
 REDUCED MASS        0.5150         C 11 -- C 12          +0.9% (  9.7%)      0.1%
 EFFECTIVE MASS      1.4431
 FORCE CONSTANT      2.1177

 VIBRATION         97   97A           ATOM PAIR      ENERGY CONTRIBUTION    RADIAL
 FREQUENCY          2648.49         C 12 -- H 14         +54.7% ( 76.4%)     98.7%
 TRANSITION DIPOLE   0.9387         C 12 -- H 13         +42.1% ( 67.1%)     96.7%
 TRAVEL (Ang.)       0.2272         C 12 -- H 15          +2.3% ( 15.6%)     30.0%
 REDUCED MASS        0.4934         C 11 -- C 12          +0.9% (  9.8%)      0.0%
 EFFECTIVE MASS      1.4526
 FORCE CONSTANT      2.0393

 VIBRATION         98   98A           ATOM PAIR      ENERGY CONTRIBUTION    RADIAL
 FREQUENCY          2650.05         C 22 -- H 36         +24.3% ( 51.2%)     98.6%
 TRANSITION DIPOLE   0.6877         C 21 -- H 30         +18.3% ( 44.4%)     98.9%
 TRAVEL (Ang.)       0.4088         C 22 -- H 35         +16.0% ( 41.6%)     97.7%
 REDUCED MASS        0.1523         C 21 -- H 29         +12.2% ( 36.2%)     97.4%
 EFFECTIVE MASS      1.4246
 FORCE CONSTANT      0.6300

 VIBRATION         99   99A           ATOM PAIR      ENERGY CONTRIBUTION    RADIAL
 FREQUENCY          2667.59         C 22 -- H 35         +30.8% ( 57.3%)     98.3%
 TRANSITION DIPOLE   1.0551         C 22 -- H 36         +24.7% ( 51.2%)     97.9%
 TRAVEL (Ang.)       0.3375         C 21 -- H 29         +19.1% ( 45.1%)     98.4%
 REDUCED MASS        0.2220         C 21 -- H 30         +13.2% ( 37.5%)     97.8%
 EFFECTIVE MASS      1.4591
 FORCE CONSTANT      0.9306

 VIBRATION        100  100A           ATOM PAIR      ENERGY CONTRIBUTION    RADIAL
 FREQUENCY          2677.79         C 23 -- H 27         +50.6% ( 73.1%)     99.4%
 TRANSITION DIPOLE   0.4879         C 21 -- H 29         +20.2% ( 46.1%)     99.5%
 TRAVEL (Ang.)       0.2730         C 23 -- H 28         +17.5% ( 43.0%)     95.2%
 REDUCED MASS        0.3379         C 21 -- H 30          +6.4% ( 26.1%)     94.0%
 EFFECTIVE MASS      1.4139
 FORCE CONSTANT      1.4277

 VIBRATION        101  101A           ATOM PAIR      ENERGY CONTRIBUTION    RADIAL
 FREQUENCY          2709.14         C 20 -- H 34         +33.2% ( 57.8%)     97.7%
 TRANSITION DIPOLE   1.0316         H 39 -- O 40         +23.6% ( 48.7%)     96.4%
 TRAVEL (Ang.)       0.3126         C 20 -- H 31         +22.2% ( 47.3%)     95.3%
 REDUCED MASS        0.2547         H 38 -- O 40         +18.9% ( 43.7%)     96.4%
 EFFECTIVE MASS      1.3480
 FORCE CONSTANT      1.1015

 VIBRATION        102  102A           ATOM PAIR      ENERGY CONTRIBUTION    RADIAL
 FREQUENCY          2715.31         C 24 -- H 25         +46.8% ( 67.5%)     97.6%
 TRANSITION DIPOLE   0.8600         C 24 -- H 26         +33.4% ( 57.1%)     95.5%
 TRAVEL (Ang.)       0.2717         H 39 -- O 40          +5.9% ( 24.0%)     98.7%
 REDUCED MASS        0.3363         C 20 -- H 34          +3.7% ( 19.1%)     97.5%
 EFFECTIVE MASS      1.2554
 FORCE CONSTANT      1.4610

 VIBRATION        103  103A           ATOM PAIR      ENERGY CONTRIBUTION    RADIAL
 FREQUENCY          2716.77         H 39 -- O 40         +29.7% ( 54.6%)     97.4%
 TRANSITION DIPOLE   1.0692         C 20 -- H 34         +18.8% ( 43.4%)     97.5%
 TRAVEL (Ang.)       0.3672         H 38 -- O 40         +18.0% ( 42.6%)     95.5%
 REDUCED MASS        0.1841         C 20 -- H 31         +13.0% ( 36.2%)     95.4%
 EFFECTIVE MASS      1.3590
 FORCE CONSTANT      0.8004

 VIBRATION        104  104A           ATOM PAIR      ENERGY CONTRIBUTION    RADIAL
 FREQUENCY          2725.67         C  4 -- H  9         +60.9% ( 79.0%)    100.0%
 TRANSITION DIPOLE   0.7922         C  5 -- H 37         +25.2% ( 50.8%)    100.0%
 TRAVEL (Ang.)       0.2405         C  6 -- H 10          +5.3% ( 23.2%)     99.9%
 REDUCED MASS        0.4277         C  1 -- H  7          +3.4% ( 18.6%)    100.0%
 EFFECTIVE MASS      1.3846
 FORCE CONSTANT      1.8720

 VIBRATION        105  105A           ATOM PAIR      ENERGY CONTRIBUTION    RADIAL
 FREQUENCY          2726.87         C  2 -- H  8         +75.7% ( 87.9%)    100.0%
 TRANSITION DIPOLE   1.2250         C  1 -- H  7          +9.4% ( 30.9%)     99.8%
 TRAVEL (Ang.)       0.2075         C  4 -- H  9          +9.2% ( 30.7%)    100.0%
 REDUCED MASS        0.5742         H 38 -- O 40          +1.7% ( 13.1%)     97.3%
 EFFECTIVE MASS      1.3720
 FORCE CONSTANT      2.5156

 VIBRATION        106  106A           ATOM PAIR      ENERGY CONTRIBUTION    RADIAL
 FREQUENCY          2733.26         C  6 -- H 10         +58.8% ( 77.4%)    100.0%
 TRANSITION DIPOLE   1.1257         C  4 -- H  9         +18.7% ( 43.7%)     99.9%
 TRAVEL (Ang.)       0.2494         C  5 -- H 37         +16.5% ( 41.0%)     99.7%
 REDUCED MASS        0.3965         C  2 -- H  8          +3.9% ( 19.8%)    100.0%
 EFFECTIVE MASS      1.3660
 FORCE CONSTANT      1.7453

 VIBRATION        107  107A           ATOM PAIR      ENERGY CONTRIBUTION    RADIAL
 FREQUENCY          2738.62         C  1 -- H  7         +48.8% ( 70.3%)    100.0%
 TRANSITION DIPOLE   1.7646         C  5 -- H 37         +23.2% ( 48.5%)    100.0%
 TRAVEL (Ang.)       0.2909         C  6 -- H 10          +8.0% ( 28.5%)     99.5%
 REDUCED MASS        0.2910         C 21 -- H 29          +4.0% ( 20.2%)     97.2%
 EFFECTIVE MASS      1.3506
 FORCE CONSTANT      1.2857

 VIBRATION        108  108A           ATOM PAIR      ENERGY CONTRIBUTION    RADIAL
 FREQUENCY          2739.24         C 21 -- H 29         +26.9% ( 51.3%)     97.3%
 TRANSITION DIPOLE   0.6779         C 21 -- H 30         +22.5% ( 46.9%)     95.7%
 TRAVEL (Ang.)       0.3877         C 23 -- H 27         +11.7% ( 33.9%)     97.9%
 REDUCED MASS        0.1638         C 22 -- H 35         +11.5% ( 33.5%)     99.2%
 EFFECTIVE MASS      1.2410
 FORCE CONSTANT      0.7241

 VIBRATION        109  109A           ATOM PAIR      ENERGY CONTRIBUTION    RADIAL
 FREQUENCY          2743.17         C 22 -- H 36         +42.1% ( 63.8%)     96.7%
 TRANSITION DIPOLE   0.6363         C 22 -- H 35         +36.9% ( 59.8%)     95.8%
 TRAVEL (Ang.)       0.2744         C 21 -- H 30         +11.2% ( 33.0%)     96.7%
 REDUCED MASS        0.3264         C 21 -- H 29          +6.4% ( 25.0%)     92.0%
 EFFECTIVE MASS      1.2678
 FORCE CONSTANT      1.4470

 VIBRATION        110  110A           ATOM PAIR      ENERGY CONTRIBUTION    RADIAL
 FREQUENCY          2750.42         C  5 -- H 37         +29.6% ( 54.9%)    100.0%
 TRANSITION DIPOLE   0.8760         C  1 -- H  7         +29.0% ( 54.3%)    100.0%
 TRAVEL (Ang.)       0.3217         C  6 -- H 10         +24.4% ( 49.8%)    100.0%
 REDUCED MASS        0.2368         C  4 -- H  9          +7.3% ( 27.2%)     99.9%
 EFFECTIVE MASS      1.4586
 FORCE CONSTANT      1.0556

 VIBRATION        111  111A           ATOM PAIR      ENERGY CONTRIBUTION    RADIAL
 FREQUENCY          2768.30         C 12 -- H 14         +35.7% ( 57.2%)     95.9%
 TRANSITION DIPOLE   0.6608         C 12 -- H 13         +33.2% ( 55.1%)     95.5%
 TRAVEL (Ang.)       0.2733         C 12 -- H 15         +30.6% ( 53.0%)     94.8%
 REDUCED MASS        0.3261         C 11 -- C 12          +0.3% (  4.8%)     99.8%
 EFFECTIVE MASS      1.1393
 FORCE CONSTANT      1.4723

 VIBRATION        112  112A           ATOM PAIR      ENERGY CONTRIBUTION    RADIAL
 FREQUENCY          2773.04         C 23 -- H 28         +57.9% ( 74.6%)     98.5%
 TRANSITION DIPOLE   0.4027         C 23 -- H 27         +17.6% ( 41.1%)     89.4%
 TRAVEL (Ang.)       0.2532         C 21 -- H 30         +16.6% ( 39.9%)     98.8%
 REDUCED MASS        0.3793         C 21 -- H 29          +5.4% ( 22.8%)     91.1%
 EFFECTIVE MASS      1.2492
 FORCE CONSTANT      1.7186

 VIBRATION        113  113A           ATOM PAIR      ENERGY CONTRIBUTION    RADIAL
 FREQUENCY          2821.20         H 38 -- O 40         +52.3% ( 70.6%)     99.9%
 TRANSITION DIPOLE   1.1185         N 19 -- H 33         +23.6% ( 47.4%)     98.6%
 TRAVEL (Ang.)       0.2538         H 39 -- O 40         +23.4% ( 47.2%)     93.4%
 REDUCED MASS        0.3710         C  2 -- H  8          +0.2% (  3.9%)     99.7%
 EFFECTIVE MASS      1.2682
 FORCE CONSTANT      1.7398

 VIBRATION        114  114A           ATOM PAIR      ENERGY CONTRIBUTION    RADIAL
 FREQUENCY          2860.64         N 19 -- H 33         +68.7% ( 78.8%)     97.3%
 TRANSITION DIPOLE   1.1044         H 39 -- O 40         +22.8% ( 45.4%)     56.8%
 TRAVEL (Ang.)       0.2219         H 38 -- O 40          +7.7% ( 26.4%)     89.2%
 REDUCED MASS        0.4787         N 19 -- C 24          +0.3% (  5.1%)      7.7%
 EFFECTIVE MASS      1.2190
 FORCE CONSTANT      2.3078

      SYMMETRY NUMBER FOR POINT-GROUP C1  =  1


          SYSTEM IS A GROUND STATE



 Title: ASE calculation


          MOLECULE IS NOT LINEAR

          THERE ARE  114 GENUINE VIBRATIONS IN THIS SYSTEM
          THIS THERMODYNAMICS CALCULATION IS LIMITED TO
          MOLECULES WHICH HAVE NO INTERNAL ROTATIONS




                    CALCULATED THERMODYNAMIC PROPERTIES
                                          *
   TEMP. (K)   PARTITION FUNCTION   H.O.F.    ENTHALPY  HEAT CAPACITY ENTROPY
                                   KCAL/MOL   CAL/MOLE    CAL/K/MOL  CAL/K/MOL


 298.00  VIB.     0.8940D+11                 11856.3048    69.2328    89.8964
         ROT.     0.7513D+07                   888.2803     2.9808    34.4425
         INT.     0.6717D+18                 12744.5851    72.2136   124.3389
         TRA.     0.3944D+28                  1480.4672     4.9680    42.5100
         TOT.                      -86.067   14225.0523    77.1816   166.8489

   *: NOTE: HEATS OF FORMATION ARE RELATIVE TO THE
            ELEMENTS IN THEIR STANDARD STATE AT 298K
              (=  Standard Enthalpy of Formation).

            Hvib:  Zero-point energy is not included.
                   frequencies of less than zero cm-1 are not included.
            Hrot = (3/2)RT
            Htra = (3/2)RT + pV = (5/2)RT

            Heat capacity is Cp, not Cv

          For more information, see: HTTP://OpenMOPAC.net/Manual/thermochemistry.html


           FORCE CONSTANT IN CARTESIAN COORDINATES (Millidynes/A)

    ATOM   CHEMICAL       X               Y               Z
   NUMBER   SYMBOL  FORCE CONSTANT  FORCE CONSTANT  FORCE CONSTANT

      1       C       11.221599       10.170829        2.358248
      2       C       11.228776       10.188382        2.428948
      3       C       10.265380       12.089681        2.667896
      4       C       11.290479       10.085156        2.333034
      5       C       11.275499       10.257727        2.257823
      6       C        9.712419       11.736586        2.320810
      7       H        1.748018        3.386894        0.389830
      8       H        1.738022        3.370314        0.376590
      9       H        1.740807        3.392855        0.358445
     10       H        4.197006        0.915174        0.390100
     11       C        7.128391        7.227551        6.396662
     12       C        6.285449        6.367355        6.418534
     13       H        4.011859        0.589854        0.685834
     14       H        0.758099        3.864996        0.692520
     15       H        0.970533        1.101506        3.201102
     16       N        4.320013       14.349591       10.332189
     17       O        1.255697        5.476194        7.168838
     18       O        0.556324       12.165722        1.414874
     19       N        7.408685        7.120867        4.750614
     20       C        7.242397        6.990701        6.636548
     21       C        6.842894        6.832919        6.760763
     22       C        6.911706        6.995906        6.623057
     23       C        6.957902        6.755694        6.714035
     24       C        6.955805        7.240680        6.692514
     25       H        3.922340        0.933969        0.710451
     26       H        0.957811        1.303393        3.293063
     27       H        1.435800        3.289865        0.841584
     28       H        1.481554        0.903594        3.266158
     29       H        3.980010        0.832069        0.755100
     30       H        1.031874        1.238236        3.345336
     31       H        1.613032        0.923172        3.022163
     32       H        1.192584        3.495544        0.864030
     33       H        1.339331        2.639442        2.396649
     34       H        1.303678        3.399758        0.862345
     35       H        0.899534        2.266219        2.414167
     36       H        1.445087        1.290586        2.874343
     37       H        1.737651        3.366695        0.389465
     38       H        2.619548        0.651193        1.627808
     39       H        1.480501        1.398408        3.934619
     40       O        4.887175        3.369754        4.608371

 **********************
 *                    *
 * JOB ENDED NORMALLY *
 *                    *
 **********************



 TOTAL JOB TIME:            15.29 SECONDS

 == MOPAC DONE ==
