 *******************************************************************************
 **                                                                           **
 **                              MOPAC v22.1.0                                **
 **                                                                           **
 *******************************************************************************
 **          Digital Object Identifier (DOI): 10.5281/zenodo.6511958          **
 **    Visit the DOI location for information on how to cite this program.    **
 *******************************************************************************

                              PM7 CALCULATION RESULTS

 *******************************************************************************
 *  CALCULATION DONE:                                Sat Mar 23 21:56:35 2024  *
 *  PM7        - The PM7 Hamiltonian to be used
 *  DOUBLET    - SPIN STATE DEFINED AS A DOUBLET
 *
 *
 *
 *                 CHARGE ON SYSTEM = 0
 *
 *
 *
 *  EPS=78.4   - USE ANDREAS KLAMT'S COSMO IMPLICIT SOLVATION MODEL
 *  THREADS    - USE A MAXIMUM OF 40 THREADS
 *  T=         - A TIME OF 14.0 DAYS REQUESTED
 *  DUMP=N     - RESTART FILE WRITTEN EVERY 30.0 MINUTES REQUESTED
 *  ITRY=      - DO A MAXIMUM OF 15000 ITERATIONS FOR SCF
 *  AUX        - OUTPUT AUXILIARY INFORMATION
 *  PL         - MONITOR CONVERGENCE IN DENSITY MATRIX
 *******************************************************************************
PM7 CHARGE=0 DOUBLET AUX DUMP=30M ITRY=15000 eps=78.4 T=14D PL THREADS=40

 Mopac file generated by Gabedit
   ATOM   CHEMICAL          X               Y               Z
  NUMBER   SYMBOL      (ANGSTROMS)     (ANGSTROMS)     (ANGSTROMS)

     1       C         -0.68367000  *   1.03198000  *   0.73839000  *
     2       C          0.69054000  *   1.00057000  *   0.96625000  *
     3       C          1.44562000  *  -0.12248000  *   0.60951000  *
     4       C          0.82545000  *  -1.21545000  *   0.01070000  *
     5       C         -0.55544000  *  -1.16986000  *  -0.21319000  *
     6       C         -1.32065000  *  -0.05351000  *   0.14753000  *
     7       H         -1.26198000  *   1.91432000  *   1.02585000  *
     8       H          1.18176000  *   1.86308000  *   1.43402000  *
     9       H          1.40260000  *  -2.10240000  *  -0.28051000  *
    10       H         -2.40185000  *  -0.03374000  *  -0.03052000  *
    11       N         -1.20433000  *  -2.30081000  *  -0.82696000  *
    12       O         -2.41303000  *  -2.26562000  *  -1.01996000  *
    13       O         -0.53366000  *  -3.27534000  *  -1.14464000  *
    14       C          2.91981000  *  -0.12040000  *   0.90293000  *
    15       C          3.44520000  *  -1.47553000  *   1.36074000  *
    16       H          4.48529000  *  -1.41571000  *   1.71609000  *
    17       H          3.41781000  *  -2.24080000  *   0.57172000  *
    18       H          2.84749000  *  -1.86072000  *   2.20332000  *
    19       N          3.68961000  *   0.31667000  *  -0.30638000  *
    20       O          4.90590000  *   0.39541000  *  -0.21993000  *
    21       O          3.09391000  *   0.59609000  *  -1.33319000  *
    22       H          3.14649000  *   0.65499000  *   1.71368000  *
    23       C          1.33405400  *  -0.28044900  *   6.60039100  *
    24       N          2.11661400  *   0.51872100  *   7.38272100  *
    25       C          3.03177400  *   1.48595100  *   6.75061100  *
    26       C          3.19684400  *   1.22782100  *   5.23696100  *
    27       N          1.88880400  *   1.07829100  *   4.56775100  *
    28       C          1.16188400  *  -0.08460900  *   5.13465100  *
    29       H          0.81418400  *  -1.10167900  *   7.06758100  *
    30       H          2.46828400  *   0.11389100  *   8.24937100  *
    31       H          4.02181400  *   1.46496100  *   7.25575100  *
    32       H          2.61398400  *   2.50689100  *   6.91833100  *
    33       H          3.74919400  *   2.06767100  *   4.76184100  *
    34       H          3.79664400  *   0.30790100  *   5.06318100  *
    35       H          1.33567400  *   1.93265100  *   4.69467100  *
    36       H          0.08106400  *   0.00992100  *   4.87440100  *
    37       H          1.52571400  *  -0.99818900  *   4.59815100  *
    38       H          2.96137800  *   0.66806300  *   3.03813500  *
    39       H          3.39069000  *   1.08896800  *   3.94244700  *
    40       O          3.47971900  *   1.12705300  *   3.16855900  *



          CARTESIAN COORDINATES 

    NO.       ATOM           X           Y           Z

     1         C         -0.6837      1.0320      0.7384
     2         C          0.6905      1.0006      0.9662
     3         C          1.4456     -0.1225      0.6095
     4         C          0.8255     -1.2155      0.0107
     5         C         -0.5554     -1.1699     -0.2132
     6         C         -1.3207     -0.0535      0.1475
     7         H         -1.2620      1.9143      1.0258
     8         H          1.1818      1.8631      1.4340
     9         H          1.4026     -2.1024     -0.2805
    10         H         -2.4019     -0.0337     -0.0305
    11         N         -1.2043     -2.3008     -0.8270
    12         O         -2.4130     -2.2656     -1.0200
    13         O         -0.5337     -3.2753     -1.1446
    14         C          2.9198     -0.1204      0.9029
    15         C          3.4452     -1.4755      1.3607
    16         H          4.4853     -1.4157      1.7161
    17         H          3.4178     -2.2408      0.5717
    18         H          2.8475     -1.8607      2.2033
    19         N          3.6896      0.3167     -0.3064
    20         O          4.9059      0.3954     -0.2199
    21         O          3.0939      0.5961     -1.3332
    22         H          3.1465      0.6550      1.7137
    23         C          1.3341     -0.2804      6.6004
    24         N          2.1166      0.5187      7.3827
    25         C          3.0318      1.4860      6.7506
    26         C          3.1968      1.2278      5.2370
    27         N          1.8888      1.0783      4.5678
    28         C          1.1619     -0.0846      5.1347
    29         H          0.8142     -1.1017      7.0676
    30         H          2.4683      0.1139      8.2494
    31         H          4.0218      1.4650      7.2558
    32         H          2.6140      2.5069      6.9183
    33         H          3.7492      2.0677      4.7618
    34         H          3.7966      0.3079      5.0632
    35         H          1.3357      1.9327      4.6947
    36         H          0.0811      0.0099      4.8744
    37         H          1.5257     -0.9982      4.5982
    38         H          2.9614      0.6681      3.0381
    39         H          3.3907      1.0890      3.9424
    40         O          3.4797      1.1271      3.1686

 General Reference for PM7:
 "Optimization of Parameters for Semiempirical Methods VI: More Modifications to the 
 NDDO Approximations and Re-optimization of Parameters", J. J. P. Stewart, J. Mol. Mod., 1:32, 19 (2013)
 https://link.springer.com/article/10.1007/s00894-012-1667-x

           Empirical Formula: C12 H19 N4 O5  =    40 atoms



      MOLECULAR POINT GROUP   :   C1  


 DOUBLET STATE CALCULATION


          UHF CALCULATION, NO. OF ALPHA ELECTRONS =   59
                           NO. OF BETA  ELECTRONS =   58

          Geometry optimization using L-BFGS
 ITERATION   1 PLS= 0.100E+01 0.000E+00 ENERGY    19750.151804 DELTAE    0.0000000
 ITERATION   2 PLS= 0.365E+00 0.293E+00 ENERGY      595.046638 DELTAE    0.0000000
 ITERATION   3 PLS= 0.516E-01 0.599E-01 ENERGY      413.484738 DELTAE -181.5619000
 ITERATION   4 PLS= 0.315E-01 0.321E-01 ENERGY      196.104911 DELTAE -217.3798264
 ITERATION   5 PLS= 0.352E+00 0.482E+00 ENERGY       98.087969 DELTAE  -98.0169424
 ITERATION   6 PLS= 0.255E+00 0.360E+00 ENERGY      137.603165 DELTAE   39.5151956
 ITERATION   7 PLS= 0.192E+00 0.174E+00 ENERGY     -426.578422 DELTAE -564.1815867
 ITERATION   8 PLS= 0.132E+00 0.739E-01 ENERGY      113.552058 DELTAE  540.1304798
 ITERATION   9 PLS= 0.899E-01 0.359E-01 ENERGY      120.418789 DELTAE    6.8667313
 ITERATION  10 PLS= 0.539E-01 0.688E-02 ENERGY      131.050133 DELTAE   10.6313439
 ITERATION  11 PLS= 0.214E-01 0.678E-02 ENERGY      126.901593 DELTAE   -4.1485399
 ITERATION  12 PLS= 0.802E-02 0.553E-02 ENERGY      126.686744 DELTAE   -0.2148486
 ITERATION  13 PLS= 0.478E-02 0.126E-01 ENERGY      125.666008 DELTAE   -1.0207367
 ITERATION  14 PLS= 0.308E-02 0.615E-02 ENERGY      126.342111 DELTAE    0.6761036
 ITERATION  15 PLS= 0.122E-02 0.123E-02 ENERGY      126.333139 DELTAE   -0.0089727
 ITERATION  16 PLS= 0.794E-03 0.389E-03 ENERGY      126.324235 DELTAE   -0.0089033
 ITERATION  17 PLS= 0.204E-03 0.241E-03 ENERGY      126.328392 DELTAE    0.0041566
 ITERATION  18 PLS= 0.167E-03 0.192E-03 ENERGY      126.328145 DELTAE   -0.0002468
 ITERATION  19 PLS= 0.132E-03 0.169E-03 ENERGY      126.323892 DELTAE   -0.0042528
 ITERATION  20 PLS= 0.117E-03 0.418E-04 ENERGY      126.327478 DELTAE    0.0035856
 ITERATION  21 PLS= 0.975E-04 0.483E-04 ENERGY      126.327435 DELTAE   -0.0000432
 ITERATION  22 PLS= 0.861E-04 0.506E-04 ENERGY      126.326494 DELTAE   -0.0009410
 ITERATION  23 PLS= 0.258E-04 0.705E-04 ENERGY      126.327288 DELTAE    0.0007944
 ITERATION   1 PLS= 0.246E-04 0.570E-04 ENERGY      105.916297 DELTAE    5.9162972
 ITERATION   2 PLS= 0.961E-02 0.110E-01 ENERGY      103.892624 DELTAE   -2.0236732
 ITERATION   3 PLS= 0.431E-02 0.179E-02 ENERGY      103.560283 DELTAE   -0.3323415
 ITERATION   4 PLS= 0.245E-02 0.131E-02 ENERGY      102.972695 DELTAE   -0.5875873
 ITERATION   5 PLS= 0.104E-02 0.427E-03 ENERGY      103.330666 DELTAE    0.3579704
 ITERATION   6 PLS= 0.776E-03 0.372E-03 ENERGY      103.324990 DELTAE   -0.0056756
 ITERATION   7 PLS= 0.616E-03 0.328E-03 ENERGY      103.233547 DELTAE   -0.0914429
 ITERATION   8 PLS= 0.148E-03 0.141E-03 ENERGY      103.311212 DELTAE    0.0776653
 ITERATION   9 PLS= 0.996E-04 0.131E-03 ENERGY      103.310917 DELTAE   -0.0002955
 ITERATION  10 PLS= 0.684E-04 0.122E-03 ENERGY      103.308063 DELTAE   -0.0028543
 ITERATION  11 PLS= 0.101E-03 0.682E-04 ENERGY      103.310256 DELTAE    0.0021931
 ITERATION  12 PLS= 0.728E-04 0.724E-04 ENERGY      103.310194 DELTAE   -0.0000617
 ITERATION  13 PLS= 0.619E-04 0.722E-04 ENERGY      103.308693 DELTAE   -0.0015010
 ITERATION  14 PLS= 0.429E-04 0.577E-04 ENERGY      103.309885 DELTAE    0.0011915
 ITERATION  15 PLS= 0.423E-04 0.547E-04 ENERGY      103.309854 DELTAE   -0.0000306
 ITERATION  16 PLS= 0.413E-04 0.526E-04 ENERGY      103.309118 DELTAE   -0.0007360
 ITERATION  17 PLS= 0.962E-04 0.246E-04 ENERGY      103.309710 DELTAE    0.0005924
 CYCLE:     1 TIME:   0.906 TIME LEFT:  2.00W  GRAD.:   562.967 HEAT:  103.3097
 ITERATION   1 PLS= 0.723E-04 0.300E-04 ENERGY      100.216391 DELTAE    0.2163907
 ITERATION   2 PLS= 0.182E-02 0.105E-02 ENERGY      100.202737 DELTAE   -0.0136534
 ITERATION   3 PLS= 0.625E-03 0.627E-03 ENERGY      100.199503 DELTAE   -0.0032342
 ITERATION   4 PLS= 0.238E-03 0.395E-03 ENERGY      100.194608 DELTAE   -0.0048950
 CYCLE:     2 TIME:   0.188 TIME LEFT:  2.00W  GRAD.:   542.777 HEAT:  100.1974
 ITERATION   1 PLS= 0.892E-04 0.943E-04 ENERGY       47.620500 DELTAE  -52.3795004
 ITERATION   2 PLS= 0.448E-01 0.259E-01 ENERGY       37.708790 DELTAE   -9.9117096
 ITERATION   3 PLS= 0.136E-01 0.267E-01 ENERGY       34.331575 DELTAE   -3.3772154
 ITERATION   4 PLS= 0.544E-02 0.938E-02 ENERGY       33.064367 DELTAE   -1.2672077
 ITERATION   5 PLS= 0.181E-02 0.201E-02 ENERGY       33.573354 DELTAE    0.5089867
 ITERATION   6 PLS= 0.779E-03 0.776E-03 ENERGY       33.568936 DELTAE   -0.0044173
 CYCLE:     3 TIME:   0.328 TIME LEFT:  2.00W  GRAD.:   228.468 HEAT:  33.56501
 ITERATION   1 PLS= 0.436E-03 0.389E-03 ENERGY      115.202158 DELTAE   15.2021577
 ITERATION   2 PLS= 0.405E-01 0.424E-01 ENERGY      102.450015 DELTAE  -12.7521428
 ITERATION   3 PLS= 0.164E-01 0.842E-02 ENERGY      100.957080 DELTAE   -1.4929344
 ITERATION   4 PLS= 0.612E-02 0.103E-01 ENERGY       97.808514 DELTAE   -3.1485661
 ITERATION   5 PLS= 0.280E-02 0.122E-01 ENERGY      100.294462 DELTAE    2.4859481
 ITERATION   6 PLS= 0.532E-03 0.442E-02 ENERGY      100.214377 DELTAE   -0.0800858
 ITERATION   7 PLS= 0.172E-03 0.166E-02 ENERGY      100.184267 DELTAE   -0.0301101
 ITERATION   8 PLS= 0.172E-03 0.181E-03 ENERGY      100.196271 DELTAE    0.0120050
 CYCLE:     4 TIME:   0.227 TIME LEFT:  2.00W  GRAD.:   542.916 HEAT:  100.1962
 ITERATION   1 PLS= 0.680E-04 0.838E-04 ENERGY       47.596970 DELTAE  -52.4030298
 ITERATION   2 PLS= 0.431E-01 0.449E-01 ENERGY       35.757827 DELTAE  -11.8391428
 ITERATION   3 PLS= 0.145E-01 0.140E-01 ENERGY       34.036522 DELTAE   -1.7213050
 ITERATION   4 PLS= 0.595E-02 0.544E-02 ENERGY       33.140014 DELTAE   -0.8965084
 ITERATION   5 PLS= 0.146E-02 0.141E-02 ENERGY       33.558526 DELTAE    0.4185121
 ITERATION   6 PLS= 0.560E-03 0.524E-03 ENERGY       33.556449 DELTAE   -0.0020776
 CYCLE:     5 TIME:   0.133 TIME LEFT:  2.00W  GRAD.:   228.409 HEAT:  33.55486
 ITERATION   1 PLS= 0.278E-03 0.269E-03 ENERGY       12.329820 DELTAE  -87.6701796
 ITERATION   2 PLS= 0.233E-01 0.241E-01 ENERGY        7.705923 DELTAE   -4.6238972
 ITERATION   3 PLS= 0.728E-02 0.704E-02 ENERGY        7.045374 DELTAE   -0.6605492
 ITERATION   4 PLS= 0.317E-02 0.308E-02 ENERGY        6.673020 DELTAE   -0.3723540
 ITERATION   5 PLS= 0.811E-03 0.786E-03 ENERGY        6.861598 DELTAE    0.1885779
 ITERATION   6 PLS= 0.265E-03 0.247E-03 ENERGY        6.860957 DELTAE   -0.0006414
 CYCLE:     6 TIME:   0.156 TIME LEFT:  2.00W  GRAD.:   118.380 HEAT:  6.860465
 ITERATION   1 PLS= 0.117E-03 0.102E-03 ENERGY       -4.303560 DELTAE -104.3035604
 ITERATION   2 PLS= 0.102E-01 0.105E-01 ENERGY       -8.429932 DELTAE   -4.1263713
 ITERATION   3 PLS= 0.470E-02 0.475E-02 ENERGY       -8.957588 DELTAE   -0.5276562
 ITERATION   4 PLS= 0.271E-02 0.264E-02 ENERGY       -9.250773 DELTAE   -0.2931850
 ITERATION   5 PLS= 0.518E-03 0.520E-03 ENERGY       -9.093590 DELTAE    0.1571831
 ITERATION   6 PLS= 0.185E-03 0.168E-03 ENERGY       -9.094359 DELTAE   -0.0007698
 CYCLE:     7 TIME:   0.180 TIME LEFT:  2.00W  GRAD.:    95.758 HEAT: -9.095050
 ITERATION   1 PLS= 0.984E-04 0.831E-04 ENERGY      -15.742921 DELTAE -115.7429205
 ITERATION   2 PLS= 0.750E-02 0.780E-02 ENERGY      -19.219344 DELTAE   -3.4764230
 ITERATION   3 PLS= 0.315E-02 0.314E-02 ENERGY      -19.666912 DELTAE   -0.4475685
 ITERATION   4 PLS= 0.145E-02 0.137E-02 ENERGY      -19.871922 DELTAE   -0.2050098
 ITERATION   5 PLS= 0.271E-03 0.258E-03 ENERGY      -19.769843 DELTAE    0.1020788
 ITERATION   6 PLS= 0.127E-03 0.109E-03 ENERGY      -19.770349 DELTAE   -0.0005058
 CYCLE:     8 TIME:   0.117 TIME LEFT:  2.00W  GRAD.:    97.371 HEAT: -19.77093
 ITERATION   1 PLS= 0.744E-04 0.654E-04 ENERGY       -3.573379 DELTAE -103.5733791
 ITERATION   2 PLS= 0.149E-01 0.158E-01 ENERGY      -20.986573 DELTAE  -17.4131941
 ITERATION   3 PLS= 0.474E-02 0.537E-02 ENERGY      -23.191202 DELTAE   -2.2046285
 ITERATION   4 PLS= 0.238E-02 0.411E-02 ENERGY      -24.302058 DELTAE   -1.1108565
 ITERATION   5 PLS= 0.567E-03 0.177E-02 ENERGY      -23.738049 DELTAE    0.5640093
 ITERATION   6 PLS= 0.417E-03 0.125E-02 ENERGY      -23.743692 DELTAE   -0.0056433
 ITERATION   7 PLS= 0.308E-03 0.874E-03 ENERGY      -23.756891 DELTAE   -0.0131991
 CYCLE:     9 TIME:   0.227 TIME LEFT:  2.00W  GRAD.:   239.052 HEAT: -23.74777
 ITERATION   1 PLS= 0.616E-04 0.580E-04 ENERGY      -23.821668 DELTAE -123.8216681
 ITERATION   2 PLS= 0.208E-01 0.220E-01 ENERGY      -33.005281 DELTAE   -9.1836128
 ITERATION   3 PLS= 0.746E-02 0.777E-02 ENERGY      -33.830238 DELTAE   -0.8249572
 ITERATION   4 PLS= 0.343E-02 0.345E-02 ENERGY      -34.194442 DELTAE   -0.3642039
 ITERATION   5 PLS= 0.601E-03 0.596E-03 ENERGY      -34.029905 DELTAE    0.1645374
 ITERATION   6 PLS= 0.365E-03 0.413E-03 ENERGY      -34.032178 DELTAE   -0.0022738
 CYCLE:    10 TIME:   0.188 TIME LEFT:  2.00W  GRAD.:   110.408 HEAT: -34.03833
 ITERATION   1 PLS= 0.280E-03 0.290E-03 ENERGY      -36.183967 DELTAE -136.1839669
 ITERATION   2 PLS= 0.472E-02 0.499E-02 ENERGY      -37.051833 DELTAE   -0.8678661
 ITERATION   3 PLS= 0.154E-02 0.166E-02 ENERGY      -37.144379 DELTAE   -0.0925464
 ITERATION   4 PLS= 0.746E-03 0.940E-03 ENERGY      -37.189202 DELTAE   -0.0448228
 ITERATION   5 PLS= 0.209E-03 0.386E-03 ENERGY      -37.167628 DELTAE    0.0215741
 CYCLE:    11 TIME:   0.102 TIME LEFT:  2.00W  GRAD.:    62.094 HEAT: -37.16792
 ITERATION   1 PLS= 0.999E-04 0.270E-03 ENERGY      -38.726098 DELTAE -138.7260984
 ITERATION   2 PLS= 0.543E-02 0.557E-02 ENERGY      -39.828571 DELTAE   -1.1024726
 ITERATION   3 PLS= 0.262E-02 0.261E-02 ENERGY      -39.971255 DELTAE   -0.1426835
 ITERATION   4 PLS= 0.154E-02 0.150E-02 ENERGY      -40.038873 DELTAE   -0.0676186
 ITERATION   5 PLS= 0.334E-03 0.331E-03 ENERGY      -40.006189 DELTAE    0.0326840
 CYCLE:    12 TIME:   0.141 TIME LEFT:  2.00W  GRAD.:    49.278 HEAT: -40.00643
 ITERATION   1 PLS= 0.149E-03 0.144E-03 ENERGY      -41.523591 DELTAE -141.5235909
 ITERATION   2 PLS= 0.574E-02 0.590E-02 ENERGY      -42.844476 DELTAE   -1.3208853
 ITERATION   3 PLS= 0.293E-02 0.293E-02 ENERGY      -43.032411 DELTAE   -0.1879349
 ITERATION   4 PLS= 0.160E-02 0.157E-02 ENERGY      -43.121288 DELTAE   -0.0888774
 ITERATION   5 PLS= 0.241E-03 0.236E-03 ENERGY      -43.078343 DELTAE    0.0429456
 CYCLE:    13 TIME:   0.125 TIME LEFT:  2.00W  GRAD.:    65.944 HEAT: -43.07859
 ITERATION   1 PLS= 0.116E-03 0.112E-03 ENERGY      -41.847255 DELTAE -141.8472555
 ITERATION   2 PLS= 0.126E-01 0.130E-01 ENERGY      -47.478570 DELTAE   -5.6313141
 ITERATION   3 PLS= 0.616E-02 0.615E-02 ENERGY      -48.335836 DELTAE   -0.8572664
 ITERATION   4 PLS= 0.292E-02 0.283E-02 ENERGY      -48.732491 DELTAE   -0.3966555
 ITERATION   5 PLS= 0.212E-03 0.240E-03 ENERGY      -48.541018 DELTAE    0.1914732
 ITERATION   6 PLS= 0.157E-03 0.147E-03 ENERGY      -48.541886 DELTAE   -0.0008680
 CYCLE:    14 TIME:   0.109 TIME LEFT:  2.00W  GRAD.:    87.560 HEAT: -48.54345
 ITERATION   1 PLS= 0.104E-03 0.109E-03 ENERGY      -41.594028 DELTAE -141.5940278
 ITERATION   2 PLS= 0.114E-01 0.117E-01 ENERGY      -51.033211 DELTAE   -9.4391834
 ITERATION   3 PLS= 0.638E-02 0.638E-02 ENERGY      -52.463472 DELTAE   -1.4302610
 ITERATION   4 PLS= 0.344E-02 0.338E-02 ENERGY      -53.213366 DELTAE   -0.7498941
 ITERATION   5 PLS= 0.676E-03 0.667E-03 ENERGY      -52.828028 DELTAE    0.3853378
 ITERATION   6 PLS= 0.304E-03 0.299E-03 ENERGY      -52.829616 DELTAE   -0.0015878
 CYCLE:    15 TIME:   0.109 TIME LEFT:  2.00W  GRAD.:    88.123 HEAT: -52.83136
 ITERATION   1 PLS= 0.173E-03 0.175E-03 ENERGY      -53.476641 DELTAE -153.4766405
 ITERATION   2 PLS= 0.696E-02 0.723E-02 ENERGY      -54.815068 DELTAE   -1.3384271
 ITERATION   3 PLS= 0.237E-02 0.244E-02 ENERGY      -54.929830 DELTAE   -0.1147627
 ITERATION   4 PLS= 0.112E-02 0.113E-02 ENERGY      -54.978468 DELTAE   -0.0486373
 ITERATION   5 PLS= 0.236E-03 0.320E-03 ENERGY      -54.957520 DELTAE    0.0209475
 CYCLE:    16 TIME:   0.102 TIME LEFT:  2.00W  GRAD.:    57.214 HEAT: -54.95789
 ITERATION   1 PLS= 0.179E-03 0.225E-03 ENERGY      -56.002366 DELTAE -156.0023658
 ITERATION   2 PLS= 0.253E-02 0.260E-02 ENERGY      -56.204688 DELTAE   -0.2023221
 ITERATION   3 PLS= 0.102E-02 0.104E-02 ENERGY      -56.227658 DELTAE   -0.0229701
 ITERATION   4 PLS= 0.575E-03 0.576E-03 ENERGY      -56.239323 DELTAE   -0.0116646
 CYCLE:    17 TIME:   0.094 TIME LEFT:  2.00W  GRAD.:    42.419 HEAT: -56.23389
 ITERATION   1 PLS= 0.823E-04 0.776E-04 ENERGY      -57.124333 DELTAE -157.1243326
 ITERATION   2 PLS= 0.255E-02 0.260E-02 ENERGY      -57.897031 DELTAE   -0.7726988
 ITERATION   3 PLS= 0.136E-02 0.136E-02 ENERGY      -58.028430 DELTAE   -0.1313988
 ITERATION   4 PLS= 0.789E-03 0.788E-03 ENERGY      -58.112147 DELTAE   -0.0837172
 ITERATION   5 PLS= 0.147E-03 0.264E-03 ENERGY      -58.067311 DELTAE    0.0448368
 CYCLE:    18 TIME:   0.094 TIME LEFT:  2.00W  GRAD.:    46.974 HEAT: -58.06773
 ITERATION   1 PLS= 0.117E-03 0.192E-03 ENERGY      -58.282159 DELTAE -158.2821591
 ITERATION   2 PLS= 0.333E-02 0.338E-02 ENERGY      -59.290765 DELTAE   -1.0086063
 ITERATION   3 PLS= 0.166E-02 0.167E-02 ENERGY      -59.469361 DELTAE   -0.1785953
 ITERATION   4 PLS= 0.889E-03 0.876E-03 ENERGY      -59.577255 DELTAE   -0.1078946
 ITERATION   5 PLS= 0.170E-03 0.161E-03 ENERGY      -59.523508 DELTAE    0.0537471
 CYCLE:    19 TIME:   0.102 TIME LEFT:  2.00W  GRAD.:    43.047 HEAT: -59.52397
 ITERATION   1 PLS= 0.116E-03 0.106E-03 ENERGY      -54.618083 DELTAE -154.6180832
 ITERATION   2 PLS= 0.770E-02 0.777E-02 ENERGY      -59.188963 DELTAE   -4.5708797
 ITERATION   3 PLS= 0.280E-02 0.278E-02 ENERGY      -59.935601 DELTAE   -0.7466377
 ITERATION   4 PLS= 0.132E-02 0.129E-02 ENERGY      -60.313064 DELTAE   -0.3774636
 ITERATION   5 PLS= 0.286E-03 0.279E-03 ENERGY      -60.146273 DELTAE    0.1667914
 ITERATION   6 PLS= 0.197E-03 0.188E-03 ENERGY      -60.147904 DELTAE   -0.0016311
 CYCLE:    20 TIME:   0.156 TIME LEFT:  2.00W  GRAD.:    66.179 HEAT: -60.15180
 ITERATION   1 PLS= 0.132E-03 0.123E-03 ENERGY      -60.670797 DELTAE -160.6707974
 ITERATION   2 PLS= 0.602E-02 0.609E-02 ENERGY      -61.493856 DELTAE   -0.8230583
 ITERATION   3 PLS= 0.176E-02 0.174E-02 ENERGY      -61.590925 DELTAE   -0.0970697
 ITERATION   4 PLS= 0.934E-03 0.930E-03 ENERGY      -61.633484 DELTAE   -0.0425583
 ITERATION   5 PLS= 0.254E-03 0.280E-03 ENERGY      -61.614625 DELTAE    0.0188586
 CYCLE:    21 TIME:   0.102 TIME LEFT:  2.00W  GRAD.:    25.408 HEAT: -61.61481
 ITERATION   1 PLS= 0.123E-03 0.202E-03 ENERGY      -61.778593 DELTAE -161.7785932
 ITERATION   2 PLS= 0.117E-02 0.163E-02 ENERGY      -62.021340 DELTAE   -0.2427473
 ITERATION   3 PLS= 0.469E-03 0.126E-02 ENERGY      -62.062240 DELTAE   -0.0408993
 ITERATION   4 PLS= 0.241E-03 0.941E-03 ENERGY      -62.095831 DELTAE   -0.0335910
 ITERATION   5 PLS= 0.112E-03 0.250E-03 ENERGY      -62.076011 DELTAE    0.0198197
 CYCLE:    22 TIME:   0.156 TIME LEFT:  2.00W  GRAD.:    25.794 HEAT: -62.07626
 ITERATION   1 PLS= 0.751E-04 0.190E-03 ENERGY      -62.219460 DELTAE -162.2194603
 ITERATION   2 PLS= 0.321E-02 0.325E-02 ENERGY      -62.590730 DELTAE   -0.3712701
 ITERATION   3 PLS= 0.167E-02 0.167E-02 ENERGY      -62.660485 DELTAE   -0.0697550
 ITERATION   4 PLS= 0.875E-03 0.857E-03 ENERGY      -62.705027 DELTAE   -0.0445417
 ITERATION   5 PLS= 0.105E-03 0.158E-03 ENERGY      -62.682504 DELTAE    0.0225235
 CYCLE:    23 TIME:   0.156 TIME LEFT:  2.00W  GRAD.:    21.381 HEAT: -62.68266
 ITERATION   1 PLS= 0.700E-04 0.108E-03 ENERGY      -61.355874 DELTAE -161.3558735
 ITERATION   2 PLS= 0.513E-02 0.522E-02 ENERGY      -63.023667 DELTAE   -1.6677937
 ITERATION   3 PLS= 0.239E-02 0.239E-02 ENERGY      -63.330910 DELTAE   -0.3072431
 ITERATION   4 PLS= 0.117E-02 0.115E-02 ENERGY      -63.530820 DELTAE   -0.1999095
 ITERATION   5 PLS= 0.226E-03 0.218E-03 ENERGY      -63.424675 DELTAE    0.1061447
 ITERATION   6 PLS= 0.149E-03 0.140E-03 ENERGY      -63.425277 DELTAE   -0.0006019
 CYCLE:    24 TIME:   0.125 TIME LEFT:  2.00W  GRAD.:    34.990 HEAT: -63.42634
 ITERATION   1 PLS= 0.977E-04 0.893E-04 ENERGY      -62.441725 DELTAE -162.4417245
 ITERATION   2 PLS= 0.410E-02 0.418E-02 ENERGY      -63.615500 DELTAE   -1.1737751
 ITERATION   3 PLS= 0.224E-02 0.226E-02 ENERGY      -63.827721 DELTAE   -0.2122214
 ITERATION   4 PLS= 0.119E-02 0.118E-02 ENERGY      -63.968893 DELTAE   -0.1411721
 ITERATION   5 PLS= 0.161E-03 0.165E-03 ENERGY      -63.892272 DELTAE    0.0766209
 CYCLE:    25 TIME:   0.102 TIME LEFT:  2.00W  GRAD.:    32.945 HEAT: -63.89272
 ITERATION   1 PLS= 0.119E-03 0.124E-03 ENERGY      -64.147435 DELTAE -164.1474348
 ITERATION   2 PLS= 0.110E-02 0.111E-02 ENERGY      -64.210675 DELTAE   -0.0632401
 ITERATION   3 PLS= 0.571E-03 0.570E-03 ENERGY      -64.220671 DELTAE   -0.0099958
 ITERATION   4 PLS= 0.302E-03 0.401E-03 ENERGY      -64.228165 DELTAE   -0.0074945
 CYCLE:    26 TIME:   0.141 TIME LEFT:  2.00W  GRAD.:    19.149 HEAT: -64.22404
 ITERATION   1 PLS= 0.845E-04 0.151E-03 ENERGY      -64.440845 DELTAE -164.4408446
 ITERATION   2 PLS= 0.326E-02 0.330E-02 ENERGY      -64.703401 DELTAE   -0.2625564
 ITERATION   3 PLS= 0.172E-02 0.172E-02 ENERGY      -64.754196 DELTAE   -0.0507947
 ITERATION   4 PLS= 0.908E-03 0.890E-03 ENERGY      -64.789055 DELTAE   -0.0348595
 ITERATION   5 PLS= 0.165E-03 0.167E-03 ENERGY      -64.770684 DELTAE    0.0183715
 CYCLE:    27 TIME:   0.172 TIME LEFT:  2.00W  GRAD.:    17.946 HEAT: -64.77079
 ITERATION   1 PLS= 0.738E-04 0.119E-03 ENERGY      -64.535752 DELTAE -164.5357519
 ITERATION   2 PLS= 0.368E-02 0.374E-02 ENERGY      -64.825658 DELTAE   -0.2899062
 ITERATION   3 PLS= 0.197E-02 0.197E-02 ENERGY      -64.884230 DELTAE   -0.0585718
 ITERATION   4 PLS= 0.105E-02 0.103E-02 ENERGY      -64.927252 DELTAE   -0.0430223
 ITERATION   5 PLS= 0.125E-03 0.125E-03 ENERGY      -64.903605 DELTAE    0.0236468
 CYCLE:    28 TIME:   0.211 TIME LEFT:  2.00W  GRAD.:    21.722 HEAT: -64.90371
 ITERATION   1 PLS= 0.581E-04 0.627E-04 ENERGY      -62.731447 DELTAE -162.7314466
 ITERATION   2 PLS= 0.836E-02 0.852E-02 ENERGY      -64.733215 DELTAE   -2.0017680
 ITERATION   3 PLS= 0.457E-02 0.460E-02 ENERGY      -65.090773 DELTAE   -0.3575583
 ITERATION   4 PLS= 0.245E-02 0.242E-02 ENERGY      -65.333006 DELTAE   -0.2422330
 ITERATION   5 PLS= 0.224E-03 0.315E-03 ENERGY      -65.203779 DELTAE    0.1292273
 ITERATION   6 PLS= 0.181E-03 0.226E-03 ENERGY      -65.204525 DELTAE   -0.0007465
 CYCLE:    29 TIME:   0.203 TIME LEFT:  2.00W  GRAD.:    49.386 HEAT: -65.20602
 ITERATION   1 PLS= 0.142E-03 0.162E-03 ENERGY      -65.347403 DELTAE -165.3474032
 ITERATION   2 PLS= 0.259E-02 0.267E-02 ENERGY      -65.721575 DELTAE   -0.3741714
 ITERATION   3 PLS= 0.104E-02 0.105E-02 ENERGY      -65.773001 DELTAE   -0.0514264
 ITERATION   4 PLS= 0.506E-03 0.687E-03 ENERGY      -65.802983 DELTAE   -0.0299818
 ITERATION   5 PLS= 0.780E-04 0.297E-03 ENERGY      -65.788200 DELTAE    0.0147828
 CYCLE:    30 TIME:   0.180 TIME LEFT:  2.00W  GRAD.:    15.041 HEAT: -65.78834
 ITERATION   1 PLS= 0.532E-04 0.213E-03 ENERGY      -65.871781 DELTAE -165.8717809
 ITERATION   2 PLS= 0.117E-02 0.120E-02 ENERGY      -65.902403 DELTAE   -0.0306216
 ITERATION   3 PLS= 0.632E-03 0.641E-03 ENERGY      -65.908110 DELTAE   -0.0057079
 ITERATION   4 PLS= 0.342E-03 0.344E-03 ENERGY      -65.912328 DELTAE   -0.0042177
 CYCLE:    31 TIME:   0.172 TIME LEFT:  2.00W  GRAD.:     9.503 HEAT: -65.91017
 ITERATION   1 PLS= 0.103E-03 0.105E-03 ENERGY      -65.897608 DELTAE -165.8976080
 ITERATION   2 PLS= 0.230E-02 0.234E-02 ENERGY      -66.075138 DELTAE   -0.1775304
 ITERATION   3 PLS= 0.116E-02 0.116E-02 ENERGY      -66.108785 DELTAE   -0.0336471
 ITERATION   4 PLS= 0.616E-03 0.608E-03 ENERGY      -66.132064 DELTAE   -0.0232790
 ITERATION   5 PLS= 0.104E-03 0.102E-03 ENERGY      -66.119217 DELTAE    0.0128476
 CYCLE:    32 TIME:   0.203 TIME LEFT:  2.00W  GRAD.:    10.956 HEAT: -66.11929
 ITERATION   1 PLS= 0.445E-04 0.410E-04 ENERGY      -65.706108 DELTAE -165.7061077
 ITERATION   2 PLS= 0.293E-02 0.298E-02 ENERGY      -66.084913 DELTAE   -0.3788053
 ITERATION   3 PLS= 0.159E-02 0.160E-02 ENERGY      -66.148428 DELTAE   -0.0635147
 ITERATION   4 PLS= 0.862E-03 0.854E-03 ENERGY      -66.188118 DELTAE   -0.0396902
 ITERATION   5 PLS= 0.118E-03 0.128E-03 ENERGY      -66.167420 DELTAE    0.0206978
 CYCLE:    33 TIME:   0.188 TIME LEFT:  2.00W  GRAD.:    23.709 HEAT: -66.16755
 ITERATION   1 PLS= 0.571E-04 0.905E-04 ENERGY      -66.205897 DELTAE -166.2058974
 ITERATION   2 PLS= 0.140E-02 0.145E-02 ENERGY      -66.252048 DELTAE   -0.0461509
 ITERATION   3 PLS= 0.476E-03 0.490E-03 ENERGY      -66.256563 DELTAE   -0.0045148
 ITERATION   4 PLS= 0.216E-03 0.225E-03 ENERGY      -66.258904 DELTAE   -0.0023413
 CYCLE:    34 TIME:   0.172 TIME LEFT:  2.00W  GRAD.:     8.713 HEAT: -66.25785
 ITERATION   1 PLS= 0.449E-04 0.996E-04 ENERGY      -66.321335 DELTAE -166.3213352
 ITERATION   2 PLS= 0.838E-03 0.846E-03 ENERGY      -66.342169 DELTAE   -0.0208336
 ITERATION   3 PLS= 0.439E-03 0.437E-03 ENERGY      -66.345811 DELTAE   -0.0036422
 ITERATION   4 PLS= 0.233E-03 0.228E-03 ENERGY      -66.348256 DELTAE   -0.0024453
 CYCLE:    35 TIME:   0.172 TIME LEFT:  2.00W  GRAD.:     6.668 HEAT: -66.34697
 ITERATION   1 PLS= 0.364E-04 0.568E-04 ENERGY      -66.337733 DELTAE -166.3377332
 ITERATION   2 PLS= 0.113E-02 0.114E-02 ENERGY      -66.372545 DELTAE   -0.0348119
 ITERATION   3 PLS= 0.587E-03 0.587E-03 ENERGY      -66.379138 DELTAE   -0.0065929
 ITERATION   4 PLS= 0.310E-03 0.305E-03 ENERGY      -66.383423 DELTAE   -0.0042855
 CYCLE:    36 TIME:   0.172 TIME LEFT:  2.00W  GRAD.:     7.711 HEAT: -66.38119
 ITERATION   1 PLS= 0.562E-04 0.555E-04 ENERGY      -66.321814 DELTAE -166.3218135
 ITERATION   2 PLS= 0.140E-02 0.143E-02 ENERGY      -66.436156 DELTAE   -0.1143422
 ITERATION   3 PLS= 0.699E-03 0.701E-03 ENERGY      -66.455829 DELTAE   -0.0196735
 ITERATION   4 PLS= 0.378E-03 0.374E-03 ENERGY      -66.468241 DELTAE   -0.0124117
 CYCLE:    37 TIME:   0.188 TIME LEFT:  2.00W  GRAD.:    13.826 HEAT: -66.46195
 ITERATION   1 PLS= 0.889E-04 0.896E-04 ENERGY      -66.280304 DELTAE -166.2803041
 ITERATION   2 PLS= 0.154E-02 0.157E-02 ENERGY      -66.430961 DELTAE   -0.1506567
 ITERATION   3 PLS= 0.634E-03 0.634E-03 ENERGY      -66.456668 DELTAE   -0.0257077
 ITERATION   4 PLS= 0.344E-03 0.340E-03 ENERGY      -66.473053 DELTAE   -0.0163846
 CYCLE:    38 TIME:   0.172 TIME LEFT:  2.00W  GRAD.:     8.984 HEAT: -66.46460
 ITERATION   1 PLS= 0.864E-04 0.108E-03 ENERGY      -66.481319 DELTAE -166.4813188
 ITERATION   2 PLS= 0.485E-03 0.499E-03 ENERGY      -66.493725 DELTAE   -0.0124062
 ITERATION   3 PLS= 0.256E-03 0.261E-03 ENERGY      -66.495764 DELTAE   -0.0020389
 ITERATION   4 PLS= 0.143E-03 0.139E-03 ENERGY      -66.497121 DELTAE   -0.0013572
 CYCLE:    39 TIME:   0.180 TIME LEFT:  2.00W  GRAD.:     5.862 HEAT: -66.49643
 ITERATION   1 PLS= 0.241E-04 0.340E-04 ENERGY      -66.525082 DELTAE -166.5250824
 ITERATION   2 PLS= 0.121E-02 0.123E-02 ENERGY      -66.569389 DELTAE   -0.0443067
 ITERATION   3 PLS= 0.640E-03 0.641E-03 ENERGY      -66.577105 DELTAE   -0.0077161
 ITERATION   4 PLS= 0.337E-03 0.332E-03 ENERGY      -66.582071 DELTAE   -0.0049656
 CYCLE:    40 TIME:   0.195 TIME LEFT:  2.00W  GRAD.:     7.123 HEAT: -66.57952
 ITERATION   1 PLS= 0.379E-04 0.349E-04 ENERGY      -66.460487 DELTAE -166.4604866
 ITERATION   2 PLS= 0.117E-02 0.119E-02 ENERGY      -66.538264 DELTAE   -0.0777774
 ITERATION   3 PLS= 0.599E-03 0.602E-03 ENERGY      -66.551108 DELTAE   -0.0128435
 ITERATION   4 PLS= 0.348E-03 0.347E-03 ENERGY      -66.559271 DELTAE   -0.0081633
 CYCLE:    41 TIME:   0.172 TIME LEFT:  2.00W  GRAD.:    10.201 HEAT: -66.55473
 ITERATION   1 PLS= 0.477E-04 0.476E-04 ENERGY      -66.297900 DELTAE -166.2979000
 ITERATION   2 PLS= 0.156E-02 0.159E-02 ENERGY      -66.557963 DELTAE   -0.2600629
 ITERATION   3 PLS= 0.899E-03 0.907E-03 ENERGY      -66.602836 DELTAE   -0.0448735
 ITERATION   4 PLS= 0.531E-03 0.530E-03 ENERGY      -66.632100 DELTAE   -0.0292633
 ITERATION   5 PLS= 0.649E-04 0.153E-03 ENERGY      -66.615396 DELTAE    0.0167032
 CYCLE:    42 TIME:   0.203 TIME LEFT:  2.00W  GRAD.:     9.531 HEAT: -66.61550
 ITERATION   1 PLS= 0.441E-04 0.105E-03 ENERGY      -66.115866 DELTAE -166.1158659
 ITERATION   2 PLS= 0.169E-02 0.172E-02 ENERGY      -66.519610 DELTAE   -0.4037443
 ITERATION   3 PLS= 0.918E-03 0.853E-03 ENERGY      -66.583801 DELTAE   -0.0641904
 ITERATION   4 PLS= 0.521E-03 0.486E-03 ENERGY      -66.624138 DELTAE   -0.0403377
 ITERATION   5 PLS= 0.980E-04 0.919E-04 ENERGY      -66.601288 DELTAE    0.0228505
 CYCLE:    43 TIME:   0.211 TIME LEFT:  2.00W  GRAD.:    22.475 HEAT: -66.60144
 ITERATION   1 PLS= 0.640E-04 0.662E-04 ENERGY      -66.604631 DELTAE -166.6046313
 ITERATION   2 PLS= 0.757E-03 0.785E-03 ENERGY      -66.659325 DELTAE   -0.0546941
 ITERATION   3 PLS= 0.326E-03 0.405E-03 ENERGY      -66.667016 DELTAE   -0.0076902
 ITERATION   4 PLS= 0.181E-03 0.304E-03 ENERGY      -66.672230 DELTAE   -0.0052149
 CYCLE:    44 TIME:   0.203 TIME LEFT:  2.00W  GRAD.:     6.890 HEAT: -66.66931
 ITERATION   1 PLS= 0.438E-04 0.106E-03 ENERGY      -66.680648 DELTAE -166.6806482
 ITERATION   2 PLS= 0.403E-03 0.400E-03 ENERGY      -66.689297 DELTAE   -0.0086487
 ITERATION   3 PLS= 0.209E-03 0.203E-03 ENERGY      -66.690780 DELTAE   -0.0014833
 ITERATION   4 PLS= 0.125E-03 0.120E-03 ENERGY      -66.691967 DELTAE   -0.0011869
 CYCLE:    45 TIME:   0.273 TIME LEFT:  2.00W  GRAD.:     5.372 HEAT: -66.69128
 ITERATION   1 PLS= 0.187E-04 0.303E-04 ENERGY      -66.759925 DELTAE -166.7599253
 ITERATION   2 PLS= 0.599E-03 0.610E-03 ENERGY      -66.797194 DELTAE   -0.0372692
 ITERATION   3 PLS= 0.265E-03 0.317E-03 ENERGY      -66.803574 DELTAE   -0.0063792
 ITERATION   4 PLS= 0.152E-03 0.230E-03 ENERGY      -66.808012 DELTAE   -0.0044385
 CYCLE:    46 TIME:   0.172 TIME LEFT:  2.00W  GRAD.:     6.837 HEAT: -66.80541
 ITERATION   1 PLS= 0.470E-04 0.727E-04 ENERGY      -66.661416 DELTAE -166.6614163
 ITERATION   2 PLS= 0.113E-02 0.114E-02 ENERGY      -66.839662 DELTAE   -0.1782461
 ITERATION   3 PLS= 0.595E-03 0.593E-03 ENERGY      -66.869472 DELTAE   -0.0298091
 ITERATION   4 PLS= 0.341E-03 0.302E-03 ENERGY      -66.887337 DELTAE   -0.0178655
 ITERATION   5 PLS= 0.618E-04 0.498E-04 ENERGY      -66.877260 DELTAE    0.0100766
 CYCLE:    47 TIME:   0.117 TIME LEFT:  2.00W  GRAD.:    11.167 HEAT: -66.87732
 ITERATION   1 PLS= 0.488E-04 0.330E-04 ENERGY      -66.600301 DELTAE -166.6003010
 ITERATION   2 PLS= 0.156E-02 0.159E-02 ENERGY      -66.879944 DELTAE   -0.2796429
 ITERATION   3 PLS= 0.784E-03 0.787E-03 ENERGY      -66.926420 DELTAE   -0.0464761
 ITERATION   4 PLS= 0.420E-03 0.418E-03 ENERGY      -66.954354 DELTAE   -0.0279343
 ITERATION   5 PLS= 0.752E-04 0.675E-04 ENERGY      -66.938631 DELTAE    0.0157230
 CYCLE:    48 TIME:   0.102 TIME LEFT:  2.00W  GRAD.:    11.232 HEAT: -66.93873
 ITERATION   1 PLS= 0.575E-04 0.446E-04 ENERGY      -66.891674 DELTAE -166.8916736
 ITERATION   2 PLS= 0.101E-02 0.103E-02 ENERGY      -66.948968 DELTAE   -0.0572946
 ITERATION   3 PLS= 0.527E-03 0.531E-03 ENERGY      -66.958657 DELTAE   -0.0096890
 ITERATION   4 PLS= 0.281E-03 0.279E-03 ENERGY      -66.964605 DELTAE   -0.0059473
 CYCLE:    49 TIME:   0.086 TIME LEFT:  2.00W  GRAD.:     7.384 HEAT: -66.96139
 ITERATION   1 PLS= 0.384E-04 0.366E-04 ENERGY      -66.694873 DELTAE -166.6948729
 ITERATION   2 PLS= 0.182E-02 0.185E-02 ENERGY      -67.054624 DELTAE   -0.3597512
 ITERATION   3 PLS= 0.981E-03 0.988E-03 ENERGY      -67.116177 DELTAE   -0.0615529
 ITERATION   4 PLS= 0.538E-03 0.538E-03 ENERGY      -67.153936 DELTAE   -0.0377592
 ITERATION   5 PLS= 0.708E-04 0.702E-04 ENERGY      -67.133095 DELTAE    0.0208408
 CYCLE:    50 TIME:   0.086 TIME LEFT:  2.00W  GRAD.:    10.158 HEAT: -67.13324
 ITERATION   1 PLS= 0.457E-04 0.473E-04 ENERGY      -66.725211 DELTAE -166.7252110
 ITERATION   2 PLS= 0.154E-02 0.157E-02 ENERGY      -67.068585 DELTAE   -0.3433742
 ITERATION   3 PLS= 0.800E-03 0.803E-03 ENERGY      -67.126302 DELTAE   -0.0577164
 ITERATION   4 PLS= 0.431E-03 0.426E-03 ENERGY      -67.160731 DELTAE   -0.0344298
 ITERATION   5 PLS= 0.684E-04 0.785E-04 ENERGY      -67.141854 DELTAE    0.0188778
 CYCLE:    51 TIME:   0.094 TIME LEFT:  2.00W  GRAD.:    12.713 HEAT: -67.14198
 ITERATION   1 PLS= 0.419E-04 0.539E-04 ENERGY      -66.866896 DELTAE -166.8668963
 ITERATION   2 PLS= 0.126E-02 0.128E-02 ENERGY      -67.142969 DELTAE   -0.2760729
 ITERATION   3 PLS= 0.550E-03 0.549E-03 ENERGY      -67.190030 DELTAE   -0.0470607
 ITERATION   4 PLS= 0.302E-03 0.293E-03 ENERGY      -67.217783 DELTAE   -0.0277532
 ITERATION   5 PLS= 0.514E-04 0.829E-04 ENERGY      -67.202492 DELTAE    0.0152907
 CYCLE:    52 TIME:   0.125 TIME LEFT:  2.00W  GRAD.:    10.496 HEAT: -67.20260
 ITERATION   1 PLS= 0.349E-04 0.585E-04 ENERGY      -66.391768 DELTAE -166.3917682
 ITERATION   2 PLS= 0.165E-02 0.168E-02 ENERGY      -67.101846 DELTAE   -0.7100776
 ITERATION   3 PLS= 0.873E-03 0.883E-03 ENERGY      -67.218559 DELTAE   -0.1167133
 ITERATION   4 PLS= 0.543E-03 0.544E-03 ENERGY      -67.283571 DELTAE   -0.0650123
 ITERATION   5 PLS= 0.105E-03 0.101E-03 ENERGY      -67.248525 DELTAE    0.0350469
 CYCLE:    53 TIME:   0.164 TIME LEFT:  2.00W  GRAD.:    18.690 HEAT: -67.24875
 ITERATION   1 PLS= 0.648E-04 0.606E-04 ENERGY      -67.277180 DELTAE -167.2771805
 ITERATION   2 PLS= 0.977E-03 0.100E-02 ENERGY      -67.346835 DELTAE   -0.0696545
 ITERATION   3 PLS= 0.384E-03 0.508E-03 ENERGY      -67.356836 DELTAE   -0.0100008
 ITERATION   4 PLS= 0.225E-03 0.372E-03 ENERGY      -67.363704 DELTAE   -0.0068681
 CYCLE:    54 TIME:   0.172 TIME LEFT:  2.00W  GRAD.:     8.921 HEAT: -67.36003
 ITERATION   1 PLS= 0.848E-04 0.147E-03 ENERGY      -67.381939 DELTAE -167.3819395
 ITERATION   2 PLS= 0.117E-02 0.117E-02 ENERGY      -67.416382 DELTAE   -0.0344424
 ITERATION   3 PLS= 0.571E-03 0.564E-03 ENERGY      -67.422604 DELTAE   -0.0062220
 ITERATION   4 PLS= 0.290E-03 0.280E-03 ENERGY      -67.427101 DELTAE   -0.0044975
 CYCLE:    55 TIME:   0.164 TIME LEFT:  2.00W  GRAD.:     9.347 HEAT: -67.42479
 ITERATION   1 PLS= 0.531E-04 0.378E-04 ENERGY      -67.169624 DELTAE -167.1696241
 ITERATION   2 PLS= 0.211E-02 0.215E-02 ENERGY      -67.443694 DELTAE   -0.2740695
 ITERATION   3 PLS= 0.106E-02 0.106E-02 ENERGY      -67.489642 DELTAE   -0.0459480
 ITERATION   4 PLS= 0.549E-03 0.542E-03 ENERGY      -67.516946 DELTAE   -0.0273044
 ITERATION   5 PLS= 0.122E-03 0.712E-04 ENERGY      -67.502441 DELTAE    0.0145055
 CYCLE:    56 TIME:   0.133 TIME LEFT:  2.00W  GRAD.:    13.705 HEAT: -67.50257
 ITERATION   1 PLS= 0.985E-04 0.450E-04 ENERGY      -66.371876 DELTAE -166.3718759
 ITERATION   2 PLS= 0.260E-02 0.267E-02 ENERGY      -67.292252 DELTAE   -0.9203762
 ITERATION   3 PLS= 0.943E-03 0.920E-03 ENERGY      -67.439129 DELTAE   -0.1468773
 ITERATION   4 PLS= 0.594E-03 0.443E-03 ENERGY      -67.517739 DELTAE   -0.0786099
 ITERATION   5 PLS= 0.159E-03 0.823E-04 ENERGY      -67.475746 DELTAE    0.0419936
 CYCLE:    57 TIME:   0.156 TIME LEFT:  2.00W  GRAD.:    19.960 HEAT: -67.47602
 ITERATION   1 PLS= 0.125E-03 0.502E-04 ENERGY      -67.310225 DELTAE -167.3102252
 ITERATION   2 PLS= 0.143E-02 0.148E-02 ENERGY      -67.513106 DELTAE   -0.2028807
 ITERATION   3 PLS= 0.432E-03 0.445E-03 ENERGY      -67.543724 DELTAE   -0.0306186
 ITERATION   4 PLS= 0.243E-03 0.185E-03 ENERGY      -67.558134 DELTAE   -0.0144098
 CYCLE:    58 TIME:   0.094 TIME LEFT:  2.00W  GRAD.:     8.523 HEAT: -67.55118
 ITERATION   1 PLS= 0.617E-04 0.443E-04 ENERGY      -67.443993 DELTAE -167.4439932
 ITERATION   2 PLS= 0.837E-03 0.856E-03 ENERGY      -67.582900 DELTAE   -0.1389071
 ITERATION   3 PLS= 0.391E-03 0.395E-03 ENERGY      -67.605932 DELTAE   -0.0230312
 ITERATION   4 PLS= 0.206E-03 0.238E-03 ENERGY      -67.619671 DELTAE   -0.0137396
 CYCLE:    59 TIME:   0.102 TIME LEFT:  2.00W  GRAD.:     8.874 HEAT: -67.61180
 ITERATION   1 PLS= 0.391E-04 0.979E-04 ENERGY      -66.895348 DELTAE -166.8953485
 ITERATION   2 PLS= 0.172E-02 0.156E-02 ENERGY      -67.519459 DELTAE   -0.6241109
 ITERATION   3 PLS= 0.879E-03 0.760E-03 ENERGY      -67.622140 DELTAE   -0.1026811
 ITERATION   4 PLS= 0.471E-03 0.368E-03 ENERGY      -67.675522 DELTAE   -0.0533813
 ITERATION   5 PLS= 0.720E-04 0.104E-03 ENERGY      -67.647017 DELTAE    0.0285049
 CYCLE:    60 TIME:   0.148 TIME LEFT:  2.00W  GRAD.:    10.925 HEAT: -67.64718
 ITERATION   1 PLS= 0.434E-04 0.676E-04 ENERGY      -67.381998 DELTAE -167.3819976
 ITERATION   2 PLS= 0.161E-02 0.166E-02 ENERGY      -67.708151 DELTAE   -0.3261531
 ITERATION   3 PLS= 0.825E-03 0.726E-03 ENERGY      -67.760680 DELTAE   -0.0525296
 ITERATION   4 PLS= 0.470E-03 0.491E-03 ENERGY      -67.791633 DELTAE   -0.0309530
 ITERATION   5 PLS= 0.769E-04 0.230E-03 ENERGY      -67.774666 DELTAE    0.0169669
 CYCLE:    61 TIME:   0.094 TIME LEFT:  2.00W  GRAD.:    24.351 HEAT: -67.77480
 ITERATION   1 PLS= 0.591E-04 0.160E-03 ENERGY      -67.729261 DELTAE -167.7292607
 ITERATION   2 PLS= 0.870E-03 0.904E-03 ENERGY      -67.826624 DELTAE   -0.0973637
 ITERATION   3 PLS= 0.427E-03 0.300E-03 ENERGY      -67.840683 DELTAE   -0.0140583
 ITERATION   4 PLS= 0.238E-03 0.160E-03 ENERGY      -67.847807 DELTAE   -0.0071242
 CYCLE:    62 TIME:   0.078 TIME LEFT:  2.00W  GRAD.:     9.075 HEAT: -67.84416
 ITERATION   1 PLS= 0.482E-04 0.523E-04 ENERGY      -67.848549 DELTAE -167.8485491
 ITERATION   2 PLS= 0.957E-03 0.979E-03 ENERGY      -67.935939 DELTAE   -0.0873903
 ITERATION   3 PLS= 0.394E-03 0.396E-03 ENERGY      -67.950214 DELTAE   -0.0142743
 ITERATION   4 PLS= 0.184E-03 0.207E-03 ENERGY      -67.958605 DELTAE   -0.0083910
 CYCLE:    63 TIME:   0.125 TIME LEFT:  2.00W  GRAD.:     5.247 HEAT: -67.95401
 ITERATION   1 PLS= 0.692E-04 0.781E-04 ENERGY      -67.975837 DELTAE -167.9758365
 ITERATION   2 PLS= 0.293E-03 0.297E-03 ENERGY      -67.984602 DELTAE   -0.0087658
 ITERATION   3 PLS= 0.128E-03 0.127E-03 ENERGY      -67.986150 DELTAE   -0.0015472
 ITERATION   4 PLS= 0.735E-04 0.705E-04 ENERGY      -67.987149 DELTAE   -0.0009996
 CYCLE:    64 TIME:   0.078 TIME LEFT:  2.00W  GRAD.:     6.001 HEAT: -67.98663
 ITERATION   1 PLS= 0.355E-04 0.109E-04 ENERGY      -68.001768 DELTAE -168.0017679
 ITERATION   2 PLS= 0.735E-03 0.749E-03 ENERGY      -68.032328 DELTAE   -0.0305605
 ITERATION   3 PLS= 0.361E-03 0.362E-03 ENERGY      -68.037869 DELTAE   -0.0055402
 ITERATION   4 PLS= 0.181E-03 0.183E-03 ENERGY      -68.041536 DELTAE   -0.0036671
 CYCLE:    65 TIME:   0.086 TIME LEFT:  2.00W  GRAD.:     7.782 HEAT: -68.03959
 ITERATION   1 PLS= 0.459E-04 0.760E-04 ENERGY      -67.900049 DELTAE -167.9000486
 ITERATION   2 PLS= 0.173E-02 0.175E-02 ENERGY      -68.007791 DELTAE   -0.1077420
 ITERATION   3 PLS= 0.872E-03 0.872E-03 ENERGY      -68.025679 DELTAE   -0.0178883
 ITERATION   4 PLS= 0.449E-03 0.441E-03 ENERGY      -68.035549 DELTAE   -0.0098703
 CYCLE:    66 TIME:   0.086 TIME LEFT:  2.00W  GRAD.:    13.223 HEAT: -68.03067
 ITERATION   1 PLS= 0.513E-04 0.376E-04 ENERGY      -68.007620 DELTAE -168.0076199
 ITERATION   2 PLS= 0.672E-03 0.692E-03 ENERGY      -68.056816 DELTAE   -0.0491964
 ITERATION   3 PLS= 0.300E-03 0.303E-03 ENERGY      -68.064147 DELTAE   -0.0073309
 ITERATION   4 PLS= 0.160E-03 0.159E-03 ENERGY      -68.067669 DELTAE   -0.0035214
 CYCLE:    67 TIME:   0.133 TIME LEFT:  2.00W  GRAD.:     6.029 HEAT: -68.06589
 ITERATION   1 PLS= 0.263E-04 0.440E-04 ENERGY      -68.077731 DELTAE -168.0777314
 ITERATION   2 PLS= 0.813E-03 0.827E-03 ENERGY      -68.099047 DELTAE   -0.0213151
 ITERATION   3 PLS= 0.423E-03 0.425E-03 ENERGY      -68.102573 DELTAE   -0.0035260
 ITERATION   4 PLS= 0.221E-03 0.218E-03 ENERGY      -68.104639 DELTAE   -0.0020661
 CYCLE:    68 TIME:   0.094 TIME LEFT:  2.00W  GRAD.:     6.030 HEAT: -68.10359
 ITERATION   1 PLS= 0.176E-04 0.565E-04 ENERGY      -68.064875 DELTAE -168.0648746
 ITERATION   2 PLS= 0.135E-02 0.137E-02 ENERGY      -68.111393 DELTAE   -0.0465184
 ITERATION   3 PLS= 0.686E-03 0.686E-03 ENERGY      -68.119934 DELTAE   -0.0085406
 ITERATION   4 PLS= 0.352E-03 0.347E-03 ENERGY      -68.124906 DELTAE   -0.0049726
 CYCLE:    69 TIME:   0.078 TIME LEFT:  2.00W  GRAD.:     8.105 HEAT: -68.12236
 ITERATION   1 PLS= 0.207E-04 0.700E-04 ENERGY      -67.895940 DELTAE -167.8959402
 ITERATION   2 PLS= 0.325E-02 0.331E-02 ENERGY      -68.166543 DELTAE   -0.2706027
 ITERATION   3 PLS= 0.163E-02 0.164E-02 ENERGY      -68.217021 DELTAE   -0.0504780
 ITERATION   4 PLS= 0.828E-03 0.817E-03 ENERGY      -68.246781 DELTAE   -0.0297599
 ITERATION   5 PLS= 0.528E-04 0.125E-03 ENERGY      -68.231351 DELTAE    0.0154301
 CYCLE:    70 TIME:   0.133 TIME LEFT:  2.00W  GRAD.:    10.823 HEAT: -68.23142
 ITERATION   1 PLS= 0.332E-04 0.867E-04 ENERGY      -67.736590 DELTAE -167.7365904
 ITERATION   2 PLS= 0.311E-02 0.316E-02 ENERGY      -68.141486 DELTAE   -0.4048959
 ITERATION   3 PLS= 0.155E-02 0.155E-02 ENERGY      -68.212044 DELTAE   -0.0705575
 ITERATION   4 PLS= 0.783E-03 0.772E-03 ENERGY      -68.250153 DELTAE   -0.0381097
 ITERATION   5 PLS= 0.498E-04 0.575E-04 ENERGY      -68.230606 DELTAE    0.0195472
 CYCLE:    71 TIME:   0.148 TIME LEFT:  2.00W  GRAD.:    17.150 HEAT: -68.23069
 ITERATION   1 PLS= 0.305E-04 0.405E-04 ENERGY      -68.127499 DELTAE -168.1274992
 ITERATION   2 PLS= 0.200E-02 0.203E-02 ENERGY      -68.292772 DELTAE   -0.1652729
 ITERATION   3 PLS= 0.995E-03 0.998E-03 ENERGY      -68.320737 DELTAE   -0.0279644
 ITERATION   4 PLS= 0.500E-03 0.493E-03 ENERGY      -68.337069 DELTAE   -0.0163320
 CYCLE:    72 TIME:   0.164 TIME LEFT:  2.00W  GRAD.:     7.781 HEAT: -68.32840
 ITERATION   1 PLS= 0.596E-04 0.564E-04 ENERGY      -67.945151 DELTAE -167.9451509
 ITERATION   2 PLS= 0.277E-02 0.281E-02 ENERGY      -68.299554 DELTAE   -0.3544036
 ITERATION   3 PLS= 0.137E-02 0.138E-02 ENERGY      -68.362440 DELTAE   -0.0628860
 ITERATION   4 PLS= 0.687E-03 0.678E-03 ENERGY      -68.398376 DELTAE   -0.0359352
 ITERATION   5 PLS= 0.714E-04 0.681E-04 ENERGY      -68.379419 DELTAE    0.0189571
 CYCLE:    73 TIME:   0.195 TIME LEFT:  2.00W  GRAD.:     6.223 HEAT: -68.37950
 ITERATION   1 PLS= 0.454E-04 0.422E-04 ENERGY      -68.464102 DELTAE -168.4641021
 ITERATION   2 PLS= 0.453E-03 0.390E-03 ENERGY      -68.490443 DELTAE   -0.0263411
 ITERATION   3 PLS= 0.243E-03 0.176E-03 ENERGY      -68.494777 DELTAE   -0.0043343
 ITERATION   4 PLS= 0.143E-03 0.128E-03 ENERGY      -68.497440 DELTAE   -0.0026627
 CYCLE:    74 TIME:   0.203 TIME LEFT:  2.00W  GRAD.:     7.181 HEAT: -68.49609
 ITERATION   1 PLS= 0.310E-04 0.731E-04 ENERGY      -68.405858 DELTAE -168.4058584
 ITERATION   2 PLS= 0.130E-02 0.132E-02 ENERGY      -68.506737 DELTAE   -0.1008787
 ITERATION   3 PLS= 0.653E-03 0.657E-03 ENERGY      -68.524452 DELTAE   -0.0177148
 ITERATION   4 PLS= 0.329E-03 0.325E-03 ENERGY      -68.535604 DELTAE   -0.0111517
 CYCLE:    75 TIME:   0.133 TIME LEFT:  2.00W  GRAD.:     8.336 HEAT: -68.52952
 ITERATION   1 PLS= 0.394E-04 0.139E-03 ENERGY      -68.352842 DELTAE -168.3528420
 ITERATION   2 PLS= 0.244E-02 0.247E-02 ENERGY      -68.564607 DELTAE   -0.2117654
 ITERATION   3 PLS= 0.122E-02 0.122E-02 ENERGY      -68.601315 DELTAE   -0.0367072
 ITERATION   4 PLS= 0.618E-03 0.605E-03 ENERGY      -68.622119 DELTAE   -0.0208043
 ITERATION   5 PLS= 0.584E-04 0.551E-04 ENERGY      -68.611314 DELTAE    0.0108046
 CYCLE:    76 TIME:   0.156 TIME LEFT:  2.00W  GRAD.:     7.031 HEAT: -68.61136
 ITERATION   1 PLS= 0.430E-04 0.329E-04 ENERGY      -68.602370 DELTAE -168.6023702
 ITERATION   2 PLS= 0.815E-03 0.830E-03 ENERGY      -68.618174 DELTAE   -0.0158034
 ITERATION   3 PLS= 0.414E-03 0.416E-03 ENERGY      -68.620865 DELTAE   -0.0026909
 ITERATION   4 PLS= 0.212E-03 0.210E-03 ENERGY      -68.622364 DELTAE   -0.0014999
 CYCLE:    77 TIME:   0.133 TIME LEFT:  2.00W  GRAD.:     4.331 HEAT: -68.62163
 ITERATION   1 PLS= 0.172E-04 0.246E-04 ENERGY      -68.553391 DELTAE -168.5533906
 ITERATION   2 PLS= 0.119E-02 0.121E-02 ENERGY      -68.578222 DELTAE   -0.0248318
 ITERATION   3 PLS= 0.601E-03 0.603E-03 ENERGY      -68.583062 DELTAE   -0.0048394
 ITERATION   4 PLS= 0.308E-03 0.304E-03 ENERGY      -68.586023 DELTAE   -0.0029611
 CYCLE:    78 TIME:   0.180 TIME LEFT:  2.00W  GRAD.:     4.090 HEAT: -68.58454
 ITERATION   1 PLS= 0.285E-04 0.293E-04 ENERGY      -68.553998 DELTAE -168.5539980
 ITERATION   2 PLS= 0.192E-02 0.196E-02 ENERGY      -68.617219 DELTAE   -0.0632210
 ITERATION   3 PLS= 0.969E-03 0.972E-03 ENERGY      -68.629549 DELTAE   -0.0123300
 ITERATION   4 PLS= 0.493E-03 0.487E-03 ENERGY      -68.637065 DELTAE   -0.0075163
 CYCLE:    79 TIME:   0.180 TIME LEFT:  2.00W  GRAD.:     6.166 HEAT: -68.63328
 ITERATION   1 PLS= 0.316E-04 0.318E-04 ENERGY      -68.619125 DELTAE -168.6191248
 ITERATION   2 PLS= 0.186E-02 0.189E-02 ENERGY      -68.688706 DELTAE   -0.0695811
 ITERATION   3 PLS= 0.933E-03 0.936E-03 ENERGY      -68.702008 DELTAE   -0.0133017
 ITERATION   4 PLS= 0.475E-03 0.468E-03 ENERGY      -68.710507 DELTAE   -0.0084990
 CYCLE:    80 TIME:   0.172 TIME LEFT:  2.00W  GRAD.:     6.074 HEAT: -68.70612
 ITERATION   1 PLS= 0.326E-04 0.795E-04 ENERGY      -68.720552 DELTAE -168.7205523
 ITERATION   2 PLS= 0.491E-03 0.504E-03 ENERGY      -68.732586 DELTAE   -0.0120339
 ITERATION   3 PLS= 0.173E-03 0.176E-03 ENERGY      -68.734633 DELTAE   -0.0020468
 ITERATION   4 PLS= 0.933E-04 0.124E-03 ENERGY      -68.735994 DELTAE   -0.0013611
 CYCLE:    81 TIME:   0.156 TIME LEFT:  2.00W  GRAD.:     3.986 HEAT: -68.73526
 ITERATION   1 PLS= 0.194E-04 0.493E-04 ENERGY      -68.715425 DELTAE -168.7154251
 ITERATION   2 PLS= 0.522E-03 0.531E-03 ENERGY      -68.738131 DELTAE   -0.0227063
 ITERATION   3 PLS= 0.286E-03 0.288E-03 ENERGY      -68.742299 DELTAE   -0.0041674
 ITERATION   4 PLS= 0.160E-03 0.158E-03 ENERGY      -68.744992 DELTAE   -0.0026931
 CYCLE:    82 TIME:   0.078 TIME LEFT:  2.00W  GRAD.:     4.189 HEAT: -68.74351
 ITERATION   1 PLS= 0.228E-04 0.212E-04 ENERGY      -68.732472 DELTAE -168.7324718
 ITERATION   2 PLS= 0.480E-03 0.489E-03 ENERGY      -68.761725 DELTAE   -0.0292533
 ITERATION   3 PLS= 0.253E-03 0.254E-03 ENERGY      -68.766905 DELTAE   -0.0051798
 ITERATION   4 PLS= 0.136E-03 0.134E-03 ENERGY      -68.770317 DELTAE   -0.0034124
 CYCLE:    83 TIME:   0.133 TIME LEFT:  2.00W  GRAD.:     6.727 HEAT: -68.76844
 ITERATION   1 PLS= 0.200E-04 0.399E-04 ENERGY      -68.712624 DELTAE -168.7126240
 ITERATION   2 PLS= 0.866E-03 0.881E-03 ENERGY      -68.765040 DELTAE   -0.0524160
 ITERATION   3 PLS= 0.432E-03 0.433E-03 ENERGY      -68.774451 DELTAE   -0.0094110
 ITERATION   4 PLS= 0.216E-03 0.213E-03 ENERGY      -68.780127 DELTAE   -0.0056765
 CYCLE:    84 TIME:   0.172 TIME LEFT:  2.00W  GRAD.:     4.439 HEAT: -68.77707
 ITERATION   1 PLS= 0.223E-04 0.223E-04 ENERGY      -68.639233 DELTAE -168.6392334
 ITERATION   2 PLS= 0.109E-02 0.111E-02 ENERGY      -68.735240 DELTAE   -0.0960070
 ITERATION   3 PLS= 0.552E-03 0.554E-03 ENERGY      -68.752125 DELTAE   -0.0168849
 ITERATION   4 PLS= 0.279E-03 0.275E-03 ENERGY      -68.761904 DELTAE   -0.0097785
 CYCLE:    85 TIME:   0.141 TIME LEFT:  2.00W  GRAD.:     3.811 HEAT: -68.75667
 ITERATION   1 PLS= 0.223E-04 0.246E-04 ENERGY      -68.656228 DELTAE -168.6562283
 ITERATION   2 PLS= 0.818E-03 0.831E-03 ENERGY      -68.762706 DELTAE   -0.1064774
 ITERATION   3 PLS= 0.414E-03 0.415E-03 ENERGY      -68.780982 DELTAE   -0.0182766
 ITERATION   4 PLS= 0.210E-03 0.207E-03 ENERGY      -68.792445 DELTAE   -0.0114632
 ITERATION   5 PLS= 0.311E-04 0.610E-04 ENERGY      -68.785832 DELTAE    0.0066133
 CYCLE:    86 TIME:   0.102 TIME LEFT:  2.00W  GRAD.:     5.867 HEAT: -68.78588
 ITERATION   1 PLS= 0.226E-04 0.411E-04 ENERGY      -68.756769 DELTAE -168.7567690
 ITERATION   2 PLS= 0.401E-03 0.407E-03 ENERGY      -68.793328 DELTAE   -0.0365590
 ITERATION   3 PLS= 0.214E-03 0.214E-03 ENERGY      -68.799480 DELTAE   -0.0061514
 ITERATION   4 PLS= 0.119E-03 0.117E-03 ENERGY      -68.803238 DELTAE   -0.0037586
 CYCLE:    87 TIME:   0.133 TIME LEFT:  2.00W  GRAD.:     4.082 HEAT: -68.80111
 ITERATION   1 PLS= 0.294E-04 0.156E-04 ENERGY      -68.838811 DELTAE -168.8388114
 ITERATION   2 PLS= 0.460E-03 0.416E-03 ENERGY      -68.880732 DELTAE   -0.0419210
 ITERATION   3 PLS= 0.240E-03 0.237E-03 ENERGY      -68.887913 DELTAE   -0.0071809
 ITERATION   4 PLS= 0.138E-03 0.135E-03 ENERGY      -68.892601 DELTAE   -0.0046881
 CYCLE:    88 TIME:   0.086 TIME LEFT:  2.00W  GRAD.:     3.786 HEAT: -68.88983
 ITERATION   1 PLS= 0.274E-04 0.432E-04 ENERGY      -68.781258 DELTAE -168.7812581
 ITERATION   2 PLS= 0.627E-03 0.475E-03 ENERGY      -68.888915 DELTAE   -0.1076570
 ITERATION   3 PLS= 0.339E-03 0.283E-03 ENERGY      -68.907101 DELTAE   -0.0181856
 ITERATION   4 PLS= 0.197E-03 0.177E-03 ENERGY      -68.918215 DELTAE   -0.0111144
 ITERATION   5 PLS= 0.373E-04 0.725E-04 ENERGY      -68.911760 DELTAE    0.0064556
 CYCLE:    89 TIME:   0.141 TIME LEFT:  2.00W  GRAD.:     6.036 HEAT: -68.91181
 ITERATION   1 PLS= 0.248E-04 0.491E-04 ENERGY      -68.784947 DELTAE -168.7849466
 ITERATION   2 PLS= 0.738E-03 0.751E-03 ENERGY      -68.933849 DELTAE   -0.1489022
 ITERATION   3 PLS= 0.366E-03 0.366E-03 ENERGY      -68.958982 DELTAE   -0.0251331
 ITERATION   4 PLS= 0.189E-03 0.259E-03 ENERGY      -68.974934 DELTAE   -0.0159523
 CYCLE:    90 TIME:   0.156 TIME LEFT:  2.00W  GRAD.:     7.295 HEAT: -68.96541
 ITERATION   1 PLS= 0.395E-04 0.932E-04 ENERGY      -68.902056 DELTAE -168.9020558
 ITERATION   2 PLS= 0.296E-03 0.300E-03 ENERGY      -68.957672 DELTAE   -0.0556167
 ITERATION   3 PLS= 0.154E-03 0.187E-03 ENERGY      -68.967028 DELTAE   -0.0093555
 ITERATION   4 PLS= 0.885E-04 0.140E-03 ENERGY      -68.972822 DELTAE   -0.0057943
 CYCLE:    91 TIME:   0.141 TIME LEFT:  2.00W  GRAD.:     5.321 HEAT: -68.96945
 ITERATION   1 PLS= 0.163E-04 0.514E-04 ENERGY      -68.934645 DELTAE -168.9346446
 ITERATION   2 PLS= 0.474E-03 0.480E-03 ENERGY      -68.974576 DELTAE   -0.0399313
 ITERATION   3 PLS= 0.246E-03 0.245E-03 ENERGY      -68.981593 DELTAE   -0.0070176
 ITERATION   4 PLS= 0.133E-03 0.133E-03 ENERGY      -68.986628 DELTAE   -0.0050343
 CYCLE:    92 TIME:   0.117 TIME LEFT:  2.00W  GRAD.:     5.246 HEAT: -68.98369
 ITERATION   1 PLS= 0.377E-04 0.390E-04 ENERGY      -68.926615 DELTAE -168.9266149
 ITERATION   2 PLS= 0.417E-03 0.424E-03 ENERGY      -68.983679 DELTAE   -0.0570641
 ITERATION   3 PLS= 0.267E-03 0.270E-03 ENERGY      -68.993284 DELTAE   -0.0096050
 ITERATION   4 PLS= 0.164E-03 0.164E-03 ENERGY      -68.999221 DELTAE   -0.0059367
 CYCLE:    93 TIME:   0.109 TIME LEFT:  2.00W  GRAD.:     6.624 HEAT: -68.99590
 ITERATION   1 PLS= 0.267E-04 0.239E-04 ENERGY      -68.749633 DELTAE -168.7496326
 ITERATION   2 PLS= 0.815E-03 0.834E-03 ENERGY      -69.012365 DELTAE   -0.2627328
 ITERATION   3 PLS= 0.386E-03 0.389E-03 ENERGY      -69.056046 DELTAE   -0.0436808
 ITERATION   4 PLS= 0.209E-03 0.208E-03 ENERGY      -69.080046 DELTAE   -0.0240002
 ITERATION   5 PLS= 0.326E-04 0.310E-04 ENERGY      -69.067017 DELTAE    0.0130291
 CYCLE:    94 TIME:   0.141 TIME LEFT:  2.00W  GRAD.:     6.986 HEAT: -69.06709
 ITERATION   1 PLS= 0.219E-04 0.203E-04 ENERGY      -68.699052 DELTAE -168.6990518
 ITERATION   2 PLS= 0.104E-02 0.107E-02 ENERGY      -69.055517 DELTAE   -0.3564649
 ITERATION   3 PLS= 0.503E-03 0.509E-03 ENERGY      -69.113990 DELTAE   -0.0584728
 ITERATION   4 PLS= 0.317E-03 0.319E-03 ENERGY      -69.146905 DELTAE   -0.0329157
 ITERATION   5 PLS= 0.617E-04 0.581E-04 ENERGY      -69.128725 DELTAE    0.0181805
 CYCLE:    95 TIME:   0.109 TIME LEFT:  2.00W  GRAD.:     8.731 HEAT: -69.12884
 ITERATION   1 PLS= 0.381E-04 0.347E-04 ENERGY      -68.593308 DELTAE -168.5933084
 ITERATION   2 PLS= 0.105E-02 0.107E-02 ENERGY      -69.051372 DELTAE   -0.4580637
 ITERATION   3 PLS= 0.554E-03 0.558E-03 ENERGY      -69.127502 DELTAE   -0.0761298
 ITERATION   4 PLS= 0.318E-03 0.316E-03 ENERGY      -69.168186 DELTAE   -0.0406845
 ITERATION   5 PLS= 0.523E-04 0.493E-04 ENERGY      -69.146837 DELTAE    0.0213491
 CYCLE:    96 TIME:   0.125 TIME LEFT:  2.00W  GRAD.:     7.805 HEAT: -69.14695
 ITERATION   1 PLS= 0.351E-04 0.323E-04 ENERGY      -69.041734 DELTAE -169.0417336
 ITERATION   2 PLS= 0.113E-02 0.115E-02 ENERGY      -69.170692 DELTAE   -0.1289582
 ITERATION   3 PLS= 0.558E-03 0.560E-03 ENERGY      -69.192271 DELTAE   -0.0215787
 ITERATION   4 PLS= 0.287E-03 0.284E-03 ENERGY      -69.204684 DELTAE   -0.0124133
 CYCLE:    97 TIME:   0.141 TIME LEFT:  2.00W  GRAD.:     7.268 HEAT: -69.19794
 ITERATION   1 PLS= 0.436E-04 0.583E-04 ENERGY      -68.875165 DELTAE -168.8751649
 ITERATION   2 PLS= 0.162E-02 0.164E-02 ENERGY      -69.233911 DELTAE   -0.3587464
 ITERATION   3 PLS= 0.808E-03 0.808E-03 ENERGY      -69.295052 DELTAE   -0.0611410
 ITERATION   4 PLS= 0.416E-03 0.409E-03 ENERGY      -69.329586 DELTAE   -0.0345339
 ITERATION   5 PLS= 0.561E-04 0.553E-04 ENERGY      -69.310907 DELTAE    0.0186789
 CYCLE:    98 TIME:   0.141 TIME LEFT:  2.00W  GRAD.:     6.466 HEAT: -69.31103
 ITERATION   1 PLS= 0.389E-04 0.240E-04 ENERGY      -68.613944 DELTAE -168.6139442
 ITERATION   2 PLS= 0.163E-02 0.166E-02 ENERGY      -69.201300 DELTAE   -0.5873562
 ITERATION   3 PLS= 0.810E-03 0.814E-03 ENERGY      -69.302444 DELTAE   -0.1011437
 ITERATION   4 PLS= 0.409E-03 0.404E-03 ENERGY      -69.360240 DELTAE   -0.0577960
 ITERATION   5 PLS= 0.495E-04 0.652E-04 ENERGY      -69.329196 DELTAE    0.0310445
 CYCLE:    99 TIME:   0.180 TIME LEFT:  2.00W  GRAD.:     7.861 HEAT: -69.32938
 ITERATION   1 PLS= 0.291E-04 0.434E-04 ENERGY      -68.483513 DELTAE -168.4835130
 ITERATION   2 PLS= 0.178E-02 0.181E-02 ENERGY      -69.216278 DELTAE   -0.7327654
 ITERATION   3 PLS= 0.856E-03 0.858E-03 ENERGY      -69.343826 DELTAE   -0.1275473
 ITERATION   4 PLS= 0.417E-03 0.411E-03 ENERGY      -69.417739 DELTAE   -0.0739137
 ITERATION   5 PLS= 0.574E-04 0.559E-04 ENERGY      -69.378368 DELTAE    0.0393714
 CYCLE:   100 TIME:   0.156 TIME LEFT:  2.00W  GRAD.:     8.227 HEAT: -69.37860
 ITERATION   1 PLS= 0.344E-04 0.322E-04 ENERGY      -69.382629 DELTAE -169.3826286
 ITERATION   2 PLS= 0.537E-03 0.555E-03 ENERGY      -69.395911 DELTAE   -0.0132825
 ITERATION   3 PLS= 0.175E-03 0.180E-03 ENERGY      -69.397776 DELTAE   -0.0018650
 ITERATION   4 PLS= 0.844E-04 0.842E-04 ENERGY      -69.398798 DELTAE   -0.0010222
 CYCLE:   101 TIME:   0.094 TIME LEFT:  2.00W  GRAD.:     4.968 HEAT: -69.39833
 ITERATION   1 PLS= 0.286E-04 0.288E-04 ENERGY      -69.394694 DELTAE -169.3946944
 ITERATION   2 PLS= 0.435E-03 0.443E-03 ENERGY      -69.409260 DELTAE   -0.0145658
 ITERATION   3 PLS= 0.233E-03 0.234E-03 ENERGY      -69.411888 DELTAE   -0.0026277
 ITERATION   4 PLS= 0.129E-03 0.128E-03 ENERGY      -69.413591 DELTAE   -0.0017031
 CYCLE:   102 TIME:   0.164 TIME LEFT:  2.00W  GRAD.:     3.524 HEAT: -69.41266
 ITERATION   1 PLS= 0.324E-04 0.324E-04 ENERGY      -69.320434 DELTAE -169.3204344
 ITERATION   2 PLS= 0.450E-03 0.457E-03 ENERGY      -69.334901 DELTAE   -0.0144666
 ITERATION   3 PLS= 0.210E-03 0.211E-03 ENERGY      -69.337505 DELTAE   -0.0026041
 ITERATION   4 PLS= 0.106E-03 0.105E-03 ENERGY      -69.338877 DELTAE   -0.0013719
 CYCLE:   103 TIME:   0.164 TIME LEFT:  2.00W  GRAD.:     3.381 HEAT: -69.33823
 ITERATION   1 PLS= 0.126E-04 0.121E-04 ENERGY      -69.003713 DELTAE -169.0037132
 ITERATION   2 PLS= 0.112E-02 0.114E-02 ENERGY      -69.245162 DELTAE   -0.2414493
 ITERATION   3 PLS= 0.558E-03 0.560E-03 ENERGY      -69.286140 DELTAE   -0.0409771
 ITERATION   4 PLS= 0.282E-03 0.279E-03 ENERGY      -69.308609 DELTAE   -0.0224691
 ITERATION   5 PLS= 0.315E-04 0.350E-04 ENERGY      -69.296688 DELTAE    0.0119208
 CYCLE:   104 TIME:   0.164 TIME LEFT:  2.00W  GRAD.:     4.838 HEAT: -69.29675
 ITERATION   1 PLS= 0.207E-04 0.226E-04 ENERGY      -69.302494 DELTAE -169.3024940
 ITERATION   2 PLS= 0.278E-03 0.288E-03 ENERGY      -69.305307 DELTAE   -0.0028130
 ITERATION   3 PLS= 0.935E-04 0.966E-04 ENERGY      -69.305677 DELTAE   -0.0003702
 ITERATION   4 PLS= 0.425E-04 0.473E-04 ENERGY      -69.305899 DELTAE   -0.0002218
 CYCLE:   105 TIME:   0.156 TIME LEFT:  2.00W  GRAD.:     2.594 HEAT: -69.30579
 ITERATION   1 PLS= 0.124E-04 0.220E-04 ENERGY      -69.286457 DELTAE -169.2864568
 ITERATION   2 PLS= 0.282E-03 0.288E-03 ENERGY      -69.321658 DELTAE   -0.0352013
 ITERATION   3 PLS= 0.153E-03 0.155E-03 ENERGY      -69.327551 DELTAE   -0.0058927
 ITERATION   4 PLS= 0.921E-04 0.918E-04 ENERGY      -69.331002 DELTAE   -0.0034511
 ITERATION   5 PLS= 0.155E-04 0.120E-04 ENERGY      -69.329050 DELTAE    0.0019516
 CYCLE:   106 TIME:   0.203 TIME LEFT:  2.00W  GRAD.:     2.425 HEAT: -69.32906
 ITERATION   1 PLS= 0.128E-04 0.766E-05 ENERGY      -69.310823 DELTAE -169.3108230
 ITERATION   2 PLS= 0.206E-03 0.209E-03 ENERGY      -69.319817 DELTAE   -0.0089944
 ITERATION   3 PLS= 0.943E-04 0.944E-04 ENERGY      -69.321332 DELTAE   -0.0015143
 ITERATION   4 PLS= 0.505E-04 0.500E-04 ENERGY      -69.322171 DELTAE   -0.0008394
 CYCLE:   107 TIME:   0.219 TIME LEFT:  2.00W  GRAD.:     3.099 HEAT: -69.32175
 ITERATION   1 PLS= 0.104E-04 0.138E-04 ENERGY      -69.197337 DELTAE -169.1973369
 ITERATION   2 PLS= 0.701E-03 0.714E-03 ENERGY      -69.290707 DELTAE   -0.0933699
 ITERATION   3 PLS= 0.354E-03 0.356E-03 ENERGY      -69.306869 DELTAE   -0.0161621
 ITERATION   4 PLS= 0.179E-03 0.177E-03 ENERGY      -69.316079 DELTAE   -0.0092103
 ITERATION   5 PLS= 0.140E-04 0.204E-04 ENERGY      -69.311235 DELTAE    0.0048443
 CYCLE:   108 TIME:   0.125 TIME LEFT:  2.00W  GRAD.:     3.487 HEAT: -69.31126
 ITERATION   1 PLS= 0.850E-05 0.134E-04 ENERGY      -69.096372 DELTAE -169.0963723
 ITERATION   2 PLS= 0.649E-03 0.660E-03 ENERGY      -69.176307 DELTAE   -0.0799345
 ITERATION   3 PLS= 0.344E-03 0.346E-03 ENERGY      -69.189980 DELTAE   -0.0136732
 ITERATION   4 PLS= 0.187E-03 0.187E-03 ENERGY      -69.197783 DELTAE   -0.0078031
 CYCLE:   109 TIME:   0.109 TIME LEFT:  2.00W  GRAD.:     5.495 HEAT: -69.19372
 ITERATION   1 PLS= 0.239E-04 0.248E-04 ENERGY      -69.166628 DELTAE -169.1666278
 ITERATION   2 PLS= 0.392E-03 0.398E-03 ENERGY      -69.201042 DELTAE   -0.0344146
 ITERATION   3 PLS= 0.198E-03 0.198E-03 ENERGY      -69.207000 DELTAE   -0.0059577
 ITERATION   4 PLS= 0.101E-03 0.998E-04 ENERGY      -69.210598 DELTAE   -0.0035976
 CYCLE:   110 TIME:   0.086 TIME LEFT:  2.00W  GRAD.:     4.058 HEAT: -69.20863
 ITERATION   1 PLS= 0.105E-04 0.174E-04 ENERGY      -69.036948 DELTAE -169.0369479
 ITERATION   2 PLS= 0.925E-03 0.942E-03 ENERGY      -69.187785 DELTAE   -0.1508373
 ITERATION   3 PLS= 0.472E-03 0.473E-03 ENERGY      -69.213658 DELTAE   -0.0258730
 ITERATION   4 PLS= 0.246E-03 0.243E-03 ENERGY      -69.229293 DELTAE   -0.0156350
 ITERATION   5 PLS= 0.198E-04 0.428E-04 ENERGY      -69.220662 DELTAE    0.0086307
 CYCLE:   111 TIME:   0.164 TIME LEFT:  2.00W  GRAD.:     3.795 HEAT: -69.22072
 ITERATION   1 PLS= 0.136E-04 0.289E-04 ENERGY      -69.195829 DELTAE -169.1958285
 ITERATION   2 PLS= 0.630E-03 0.647E-03 ENERGY      -69.273233 DELTAE   -0.0774048
 ITERATION   3 PLS= 0.264E-03 0.264E-03 ENERGY      -69.286303 DELTAE   -0.0130702
 ITERATION   4 PLS= 0.135E-03 0.133E-03 ENERGY      -69.293557 DELTAE   -0.0072535
 CYCLE:   112 TIME:   0.164 TIME LEFT:  2.00W  GRAD.:     4.305 HEAT: -69.28986
 ITERATION   1 PLS= 0.159E-04 0.151E-04 ENERGY      -69.233556 DELTAE -169.2335565
 ITERATION   2 PLS= 0.485E-03 0.494E-03 ENERGY      -69.302896 DELTAE   -0.0693391
 ITERATION   3 PLS= 0.249E-03 0.250E-03 ENERGY      -69.314838 DELTAE   -0.0119427
 ITERATION   4 PLS= 0.131E-03 0.129E-03 ENERGY      -69.321869 DELTAE   -0.0070306
 CYCLE:   113 TIME:   0.172 TIME LEFT:  2.00W  GRAD.:     3.246 HEAT: -69.31809
 ITERATION   1 PLS= 0.141E-04 0.142E-04 ENERGY      -69.174880 DELTAE -169.1748800
 ITERATION   2 PLS= 0.639E-03 0.653E-03 ENERGY      -69.321007 DELTAE   -0.1461271
 ITERATION   3 PLS= 0.292E-03 0.295E-03 ENERGY      -69.346284 DELTAE   -0.0252766
 ITERATION   4 PLS= 0.139E-03 0.139E-03 ENERGY      -69.360774 DELTAE   -0.0144901
 ITERATION   5 PLS= 0.180E-04 0.181E-04 ENERGY      -69.353217 DELTAE    0.0075568
 CYCLE:   114 TIME:   0.203 TIME LEFT:  2.00W  GRAD.:     3.346 HEAT: -69.35326
 ITERATION   1 PLS= 0.159E-04 0.118E-04 ENERGY      -69.322874 DELTAE -169.3228738
 ITERATION   2 PLS= 0.447E-03 0.455E-03 ENERGY      -69.353773 DELTAE   -0.0308993
 ITERATION   3 PLS= 0.216E-03 0.216E-03 ENERGY      -69.359163 DELTAE   -0.0053898
 ITERATION   4 PLS= 0.109E-03 0.108E-03 ENERGY      -69.362379 DELTAE   -0.0032162
 CYCLE:   115 TIME:   0.172 TIME LEFT:  2.00W  GRAD.:     5.873 HEAT: -69.36073
 ITERATION   1 PLS= 0.254E-04 0.261E-04 ENERGY      -69.306632 DELTAE -169.3066323
 ITERATION   2 PLS= 0.424E-03 0.436E-03 ENERGY      -69.359868 DELTAE   -0.0532354
 ITERATION   3 PLS= 0.200E-03 0.204E-03 ENERGY      -69.368979 DELTAE   -0.0091113
 ITERATION   4 PLS= 0.109E-03 0.110E-03 ENERGY      -69.374394 DELTAE   -0.0054154
 CYCLE:   116 TIME:   0.219 TIME LEFT:  2.00W  GRAD.:     4.203 HEAT: -69.37153
 ITERATION   1 PLS= 0.241E-04 0.241E-04 ENERGY      -69.236951 DELTAE -169.2369509
 ITERATION   2 PLS= 0.486E-03 0.496E-03 ENERGY      -69.347747 DELTAE   -0.1107962
 ITERATION   3 PLS= 0.229E-03 0.230E-03 ENERGY      -69.366737 DELTAE   -0.0189897
 ITERATION   4 PLS= 0.117E-03 0.114E-03 ENERGY      -69.377940 DELTAE   -0.0112036
 CYCLE:   117 TIME:   0.164 TIME LEFT:  2.00W  GRAD.:     3.290 HEAT: -69.37197
 ITERATION   1 PLS= 0.227E-04 0.383E-04 ENERGY      -69.301327 DELTAE -169.3013268
 ITERATION   2 PLS= 0.416E-03 0.356E-03 ENERGY      -69.336975 DELTAE   -0.0356484
 ITERATION   3 PLS= 0.215E-03 0.162E-03 ENERGY      -69.343218 DELTAE   -0.0062432
 ITERATION   4 PLS= 0.122E-03 0.104E-03 ENERGY      -69.347469 DELTAE   -0.0042503
 CYCLE:   118 TIME:   0.172 TIME LEFT:  2.00W  GRAD.:     3.863 HEAT: -69.34509
 ITERATION   1 PLS= 0.224E-04 0.603E-04 ENERGY      -69.308208 DELTAE -169.3082082
 ITERATION   2 PLS= 0.503E-03 0.410E-03 ENERGY      -69.339519 DELTAE   -0.0313112
 ITERATION   3 PLS= 0.261E-03 0.226E-03 ENERGY      -69.345144 DELTAE   -0.0056245
 ITERATION   4 PLS= 0.148E-03 0.131E-03 ENERGY      -69.349208 DELTAE   -0.0040644
 CYCLE:   119 TIME:   0.172 TIME LEFT:  2.00W  GRAD.:     4.214 HEAT: -69.34688
 ITERATION   1 PLS= 0.180E-04 0.743E-04 ENERGY      -69.318106 DELTAE -169.3181058
 ITERATION   2 PLS= 0.661E-03 0.475E-03 ENERGY      -69.388226 DELTAE   -0.0701200
 ITERATION   3 PLS= 0.350E-03 0.264E-03 ENERGY      -69.400652 DELTAE   -0.0124260
 ITERATION   4 PLS= 0.198E-03 0.146E-03 ENERGY      -69.409539 DELTAE   -0.0088876
 CYCLE:   120 TIME:   0.117 TIME LEFT:  2.00W  GRAD.:     4.679 HEAT: -69.40437
 ITERATION   1 PLS= 0.190E-04 0.829E-04 ENERGY      -69.176772 DELTAE -169.1767716
 ITERATION   2 PLS= 0.680E-03 0.680E-03 ENERGY      -69.346279 DELTAE   -0.1695077
 ITERATION   3 PLS= 0.367E-03 0.338E-03 ENERGY      -69.375738 DELTAE   -0.0294589
 ITERATION   4 PLS= 0.209E-03 0.174E-03 ENERGY      -69.393449 DELTAE   -0.0177110
 CYCLE:   121 TIME:   0.148 TIME LEFT:  2.00W  GRAD.:     3.749 HEAT: -69.38404
 ITERATION   1 PLS= 0.301E-04 0.589E-04 ENERGY      -68.982777 DELTAE -168.9827773
 ITERATION   2 PLS= 0.792E-03 0.807E-03 ENERGY      -69.309842 DELTAE   -0.3270651
 ITERATION   3 PLS= 0.422E-03 0.389E-03 ENERGY      -69.366952 DELTAE   -0.0571096
 ITERATION   4 PLS= 0.235E-03 0.211E-03 ENERGY      -69.404187 DELTAE   -0.0372351
 ITERATION   5 PLS= 0.345E-04 0.349E-04 ENERGY      -69.383369 DELTAE    0.0208182
 CYCLE:   122 TIME:   0.250 TIME LEFT:  2.00W  GRAD.:     6.380 HEAT: -69.38350
 ITERATION   1 PLS= 0.234E-04 0.238E-04 ENERGY      -69.353543 DELTAE -169.3535430
 ITERATION   2 PLS= 0.326E-03 0.335E-03 ENERGY      -69.373165 DELTAE   -0.0196218
 ITERATION   3 PLS= 0.145E-03 0.145E-03 ENERGY      -69.376496 DELTAE   -0.0033314
 ITERATION   4 PLS= 0.749E-04 0.748E-04 ENERGY      -69.378566 DELTAE   -0.0020699
 CYCLE:   123 TIME:   0.133 TIME LEFT:  2.00W  GRAD.:     3.687 HEAT: -69.37750
 ITERATION   1 PLS= 0.156E-04 0.167E-04 ENERGY      -69.335542 DELTAE -169.3355425
 ITERATION   2 PLS= 0.727E-03 0.740E-03 ENERGY      -69.411829 DELTAE   -0.0762860
 ITERATION   3 PLS= 0.385E-03 0.387E-03 ENERGY      -69.424978 DELTAE   -0.0131492
 ITERATION   4 PLS= 0.210E-03 0.208E-03 ENERGY      -69.433453 DELTAE   -0.0084754
 CYCLE:   124 TIME:   0.094 TIME LEFT:  2.00W  GRAD.:     4.553 HEAT: -69.42851
 ITERATION   1 PLS= 0.248E-04 0.460E-04 ENERGY      -69.236591 DELTAE -169.2365910
 ITERATION   2 PLS= 0.862E-03 0.876E-03 ENERGY      -69.339313 DELTAE   -0.1027225
 ITERATION   3 PLS= 0.430E-03 0.430E-03 ENERGY      -69.356906 DELTAE   -0.0175922
 ITERATION   4 PLS= 0.225E-03 0.254E-03 ENERGY      -69.367878 DELTAE   -0.0109722
 CYCLE:   125 TIME:   0.102 TIME LEFT:  2.00W  GRAD.:     6.277 HEAT: -69.36179
 ITERATION   1 PLS= 0.513E-04 0.989E-04 ENERGY      -69.379673 DELTAE -169.3796725
 ITERATION   2 PLS= 0.591E-03 0.612E-03 ENERGY      -69.438738 DELTAE   -0.0590651
 ITERATION   3 PLS= 0.208E-03 0.251E-03 ENERGY      -69.448882 DELTAE   -0.0101439
 ITERATION   4 PLS= 0.119E-03 0.180E-03 ENERGY      -69.455790 DELTAE   -0.0069080
 CYCLE:   126 TIME:   0.148 TIME LEFT:  2.00W  GRAD.:     3.946 HEAT: -69.45191
 ITERATION   1 PLS= 0.216E-04 0.543E-04 ENERGY      -68.949699 DELTAE -168.9496992
 ITERATION   2 PLS= 0.824E-03 0.841E-03 ENERGY      -69.361311 DELTAE   -0.4116120
 ITERATION   3 PLS= 0.402E-03 0.404E-03 ENERGY      -69.433010 DELTAE   -0.0716988
 ITERATION   4 PLS= 0.197E-03 0.194E-03 ENERGY      -69.479054 DELTAE   -0.0460441
 ITERATION   5 PLS= 0.327E-04 0.372E-04 ENERGY      -69.453455 DELTAE    0.0255994
 CYCLE:   127 TIME:   0.117 TIME LEFT:  2.00W  GRAD.:     5.352 HEAT: -69.45361
 ITERATION   1 PLS= 0.213E-04 0.227E-04 ENERGY      -68.737502 DELTAE -168.7375022
 ITERATION   2 PLS= 0.107E-02 0.103E-02 ENERGY      -69.319916 DELTAE   -0.5824135
 ITERATION   3 PLS= 0.538E-03 0.533E-03 ENERGY      -69.422252 DELTAE   -0.1023366
 ITERATION   4 PLS= 0.314E-03 0.298E-03 ENERGY      -69.490541 DELTAE   -0.0682885
 ITERATION   5 PLS= 0.505E-04 0.834E-04 ENERGY      -69.452141 DELTAE    0.0383996
 CYCLE:   128 TIME:   0.133 TIME LEFT:  2.00W  GRAD.:    10.876 HEAT: -69.45237
 ITERATION   1 PLS= 0.310E-04 0.517E-04 ENERGY      -68.648326 DELTAE -168.6483263
 ITERATION   2 PLS= 0.103E-02 0.106E-02 ENERGY      -69.318362 DELTAE   -0.6700354
 ITERATION   3 PLS= 0.467E-03 0.469E-03 ENERGY      -69.433036 DELTAE   -0.1146738
 ITERATION   4 PLS= 0.239E-03 0.236E-03 ENERGY      -69.499156 DELTAE   -0.0661204
 ITERATION   5 PLS= 0.583E-04 0.564E-04 ENERGY      -69.464800 DELTAE    0.0343563
 CYCLE:   129 TIME:   0.125 TIME LEFT:  2.00W  GRAD.:     8.029 HEAT: -69.46501
 ITERATION   1 PLS= 0.299E-04 0.353E-04 ENERGY      -68.860378 DELTAE -168.8603780
 ITERATION   2 PLS= 0.104E-02 0.107E-02 ENERGY      -69.377849 DELTAE   -0.5174707
 ITERATION   3 PLS= 0.506E-03 0.511E-03 ENERGY      -69.467460 DELTAE   -0.0896110
 ITERATION   4 PLS= 0.256E-03 0.253E-03 ENERGY      -69.525706 DELTAE   -0.0582467
 ITERATION   5 PLS= 0.551E-04 0.536E-04 ENERGY      -69.493363 DELTAE    0.0323433
 CYCLE:   130 TIME:   0.172 TIME LEFT:  2.00W  GRAD.:     7.410 HEAT: -69.49355
 ITERATION   1 PLS= 0.335E-04 0.317E-04 ENERGY      -69.057881 DELTAE -169.0578812
 ITERATION   2 PLS= 0.987E-03 0.101E-02 ENERGY      -69.419536 DELTAE   -0.3616549
 ITERATION   3 PLS= 0.445E-03 0.454E-03 ENERGY      -69.482024 DELTAE   -0.0624883
 ITERATION   4 PLS= 0.232E-03 0.232E-03 ENERGY      -69.522821 DELTAE   -0.0407965
 ITERATION   5 PLS= 0.430E-04 0.613E-04 ENERGY      -69.499645 DELTAE    0.0231763
 CYCLE:   131 TIME:   0.125 TIME LEFT:  2.00W  GRAD.:     4.487 HEAT: -69.49979
 ITERATION   1 PLS= 0.232E-04 0.394E-04 ENERGY      -67.959794 DELTAE -167.9597935
 ITERATION   2 PLS= 0.119E-02 0.121E-02 ENERGY      -69.187862 DELTAE   -1.2280686
 ITERATION   3 PLS= 0.587E-03 0.589E-03 ENERGY      -69.402688 DELTAE   -0.2148256
 ITERATION   4 PLS= 0.304E-03 0.303E-03 ENERGY      -69.548431 DELTAE   -0.1457429
 ITERATION   5 PLS= 0.688E-04 0.953E-04 ENERGY      -69.463675 DELTAE    0.0847556
 CYCLE:   132 TIME:   0.164 TIME LEFT:  2.00W  GRAD.:     6.782 HEAT: -69.46423
 ITERATION   1 PLS= 0.384E-04 0.616E-04 ENERGY      -67.577633 DELTAE -167.5776334
 ITERATION   2 PLS= 0.174E-02 0.177E-02 ENERGY      -69.143123 DELTAE   -1.5654897
 ITERATION   3 PLS= 0.885E-03 0.887E-03 ENERGY      -69.417349 DELTAE   -0.2742260
 ITERATION   4 PLS= 0.462E-03 0.455E-03 ENERGY      -69.601541 DELTAE   -0.1841918
 ITERATION   5 PLS= 0.919E-04 0.870E-04 ENERGY      -69.495099 DELTAE    0.1064418
 ITERATION   6 PLS= 0.476E-04 0.430E-04 ENERGY      -69.495782 DELTAE   -0.0006827
 CYCLE:   133 TIME:   0.195 TIME LEFT:  2.00W  GRAD.:     9.329 HEAT: -69.49635
 ITERATION   1 PLS= 0.288E-04 0.257E-04 ENERGY      -69.057552 DELTAE -169.0575522
 ITERATION   2 PLS= 0.990E-03 0.101E-02 ENERGY      -69.415669 DELTAE   -0.3581173
 ITERATION   3 PLS= 0.479E-03 0.482E-03 ENERGY      -69.476876 DELTAE   -0.0612061
 ITERATION   4 PLS= 0.233E-03 0.230E-03 ENERGY      -69.514826 DELTAE   -0.0379508
 ITERATION   5 PLS= 0.410E-04 0.597E-04 ENERGY      -69.494078 DELTAE    0.0207484
 CYCLE:   134 TIME:   0.102 TIME LEFT:  2.00W  GRAD.:     7.877 HEAT: -69.49420
 ITERATION   1 PLS= 0.230E-04 0.389E-04 ENERGY      -69.465975 DELTAE -169.4659750
 ITERATION   2 PLS= 0.635E-03 0.652E-03 ENERGY      -69.561536 DELTAE   -0.0955606
 ITERATION   3 PLS= 0.293E-03 0.298E-03 ENERGY      -69.577115 DELTAE   -0.0155795
 ITERATION   4 PLS= 0.145E-03 0.156E-03 ENERGY      -69.586572 DELTAE   -0.0094566
 CYCLE:   135 TIME:   0.117 TIME LEFT:  2.00W  GRAD.:     7.482 HEAT: -69.58137
 ITERATION   1 PLS= 0.333E-04 0.706E-04 ENERGY      -69.254613 DELTAE -169.2546129
 ITERATION   2 PLS= 0.635E-03 0.647E-03 ENERGY      -69.502478 DELTAE   -0.2478649
 ITERATION   3 PLS= 0.281E-03 0.282E-03 ENERGY      -69.545765 DELTAE   -0.0432872
 ITERATION   4 PLS= 0.148E-03 0.150E-03 ENERGY      -69.574029 DELTAE   -0.0282644
 ITERATION   5 PLS= 0.298E-04 0.285E-04 ENERGY      -69.557967 DELTAE    0.0160627
 CYCLE:   136 TIME:   0.180 TIME LEFT:  2.00W  GRAD.:     5.101 HEAT: -69.55807
 ITERATION   1 PLS= 0.172E-04 0.176E-04 ENERGY      -66.925008 DELTAE -166.9250076
 ITERATION   2 PLS= 0.161E-02 0.165E-02 ENERGY      -69.037628 DELTAE   -2.1126209
 ITERATION   3 PLS= 0.824E-03 0.836E-03 ENERGY      -69.407797 DELTAE   -0.3701688
 ITERATION   4 PLS= 0.496E-03 0.498E-03 ENERGY      -69.667406 DELTAE   -0.2596084
 ITERATION   5 PLS= 0.934E-04 0.861E-04 ENERGY      -69.512026 DELTAE    0.1553798
 ITERATION   6 PLS= 0.457E-04 0.549E-04 ENERGY      -69.513113 DELTAE   -0.0010871
 CYCLE:   137 TIME:   0.109 TIME LEFT:  2.00W  GRAD.:     7.663 HEAT: -69.51383
 ITERATION   1 PLS= 0.272E-04 0.363E-04 ENERGY      -69.243541 DELTAE -169.2435408
 ITERATION   2 PLS= 0.747E-03 0.763E-03 ENERGY      -69.439887 DELTAE   -0.1963464
 ITERATION   3 PLS= 0.361E-03 0.368E-03 ENERGY      -69.473747 DELTAE   -0.0338597
 ITERATION   4 PLS= 0.222E-03 0.223E-03 ENERGY      -69.495510 DELTAE   -0.0217634
 ITERATION   5 PLS= 0.616E-04 0.629E-04 ENERGY      -69.483329 DELTAE    0.0121814
 CYCLE:   138 TIME:   0.117 TIME LEFT:  2.00W  GRAD.:     8.652 HEAT: -69.48340
 ITERATION   1 PLS= 0.327E-04 0.358E-04 ENERGY      -69.491569 DELTAE -169.4915692
 ITERATION   2 PLS= 0.182E-03 0.183E-03 ENERGY      -69.495087 DELTAE   -0.0035179
 ITERATION   3 PLS= 0.952E-04 0.945E-04 ENERGY      -69.495564 DELTAE   -0.0004771
 ITERATION   4 PLS= 0.520E-04 0.507E-04 ENERGY      -69.495848 DELTAE   -0.0002841
 CYCLE:   139 TIME:   0.164 TIME LEFT:  2.00W  GRAD.:     3.766 HEAT: -69.49569
 ITERATION   1 PLS= 0.114E-04 0.118E-04 ENERGY      -69.172659 DELTAE -169.1726591
 ITERATION   2 PLS= 0.499E-03 0.510E-03 ENERGY      -69.450144 DELTAE   -0.2774848
 ITERATION   3 PLS= 0.315E-03 0.319E-03 ENERGY      -69.498909 DELTAE   -0.0487655
 ITERATION   4 PLS= 0.194E-03 0.195E-03 ENERGY      -69.533299 DELTAE   -0.0343899
 ITERATION   5 PLS= 0.224E-04 0.361E-04 ENERGY      -69.512626 DELTAE    0.0206734
 CYCLE:   140 TIME:   0.195 TIME LEFT:  2.00W  GRAD.:     3.624 HEAT: -69.51277
 ITERATION   1 PLS= 0.152E-04 0.231E-04 ENERGY      -66.430430 DELTAE -166.4304297
 ITERATION   2 PLS= 0.170E-02 0.173E-02 ENERGY      -68.968946 DELTAE   -2.5385165
 ITERATION   3 PLS= 0.114E-02 0.116E-02 ENERGY      -69.415890 DELTAE   -0.4469439
 ITERATION   4 PLS= 0.700E-03 0.701E-03 ENERGY      -69.745080 DELTAE   -0.3291895
 ITERATION   5 PLS= 0.859E-04 0.916E-04 ENERGY      -69.541600 DELTAE    0.2034801
 ITERATION   6 PLS= 0.364E-04 0.582E-04 ENERGY      -69.543186 DELTAE   -0.0015864
 CYCLE:   141 TIME:   0.109 TIME LEFT:  2.00W  GRAD.:    10.248 HEAT: -69.54414
 ITERATION   1 PLS= 0.239E-04 0.386E-04 ENERGY      -68.043302 DELTAE -168.0433019
 ITERATION   2 PLS= 0.135E-02 0.138E-02 ENERGY      -69.263406 DELTAE   -1.2201044
 ITERATION   3 PLS= 0.705E-03 0.716E-03 ENERGY      -69.477014 DELTAE   -0.2136074
 ITERATION   4 PLS= 0.420E-03 0.422E-03 ENERGY      -69.625630 DELTAE   -0.1486166
 ITERATION   5 PLS= 0.756E-04 0.116E-03 ENERGY      -69.537067 DELTAE    0.0885632
 CYCLE:   142 TIME:   0.164 TIME LEFT:  2.00W  GRAD.:     4.802 HEAT: -69.53768
 ITERATION   1 PLS= 0.416E-04 0.787E-04 ENERGY      -69.215054 DELTAE -169.2150539
 ITERATION   2 PLS= 0.754E-03 0.763E-03 ENERGY      -69.488978 DELTAE   -0.2739239
 ITERATION   3 PLS= 0.378E-03 0.377E-03 ENERGY      -69.537375 DELTAE   -0.0483970
 ITERATION   4 PLS= 0.225E-03 0.249E-03 ENERGY      -69.571609 DELTAE   -0.0342338
 ITERATION   5 PLS= 0.306E-04 0.825E-04 ENERGY      -69.551303 DELTAE    0.0203058
 CYCLE:   143 TIME:   0.102 TIME LEFT:  2.00W  GRAD.:     3.236 HEAT: -69.55145
 ITERATION   1 PLS= 0.163E-04 0.565E-04 ENERGY      -69.548831 DELTAE -169.5488315
 ITERATION   2 PLS= 0.310E-03 0.325E-03 ENERGY      -69.557615 DELTAE   -0.0087837
 ITERATION   3 PLS= 0.129E-03 0.136E-03 ENERGY      -69.559171 DELTAE   -0.0015563
 ITERATION   4 PLS= 0.669E-04 0.708E-04 ENERGY      -69.560161 DELTAE   -0.0009891
 CYCLE:   144 TIME:   0.109 TIME LEFT:  2.00W  GRAD.:     2.731 HEAT: -69.55962
 ITERATION   1 PLS= 0.106E-04 0.265E-04 ENERGY      -66.452550 DELTAE -166.4525497
 ITERATION   2 PLS= 0.266E-02 0.272E-02 ENERGY      -68.992769 DELTAE   -2.5402188
 ITERATION   3 PLS= 0.152E-02 0.154E-02 ENERGY      -69.443411 DELTAE   -0.4506424
 ITERATION   4 PLS= 0.890E-03 0.893E-03 ENERGY      -69.773811 DELTAE   -0.3304004
 ITERATION   5 PLS= 0.826E-04 0.150E-03 ENERGY      -69.571137 DELTAE    0.2026739
 ITERATION   6 PLS= 0.575E-04 0.847E-04 ENERGY      -69.572669 DELTAE   -0.0015314
 CYCLE:   145 TIME:   0.133 TIME LEFT:  2.00W  GRAD.:    11.577 HEAT: -69.57370
 ITERATION   1 PLS= 0.389E-04 0.518E-04 ENERGY      -68.827776 DELTAE -168.8277755
 ITERATION   2 PLS= 0.172E-02 0.176E-02 ENERGY      -69.421724 DELTAE   -0.5939485
 ITERATION   3 PLS= 0.836E-03 0.849E-03 ENERGY      -69.525766 DELTAE   -0.1040419
 ITERATION   4 PLS= 0.463E-03 0.465E-03 ENERGY      -69.597605 DELTAE   -0.0718385
 ITERATION   5 PLS= 0.340E-04 0.520E-04 ENERGY      -69.555120 DELTAE    0.0424841
 CYCLE:   146 TIME:   0.125 TIME LEFT:  2.00W  GRAD.:     4.225 HEAT: -69.55541
 ITERATION   1 PLS= 0.231E-04 0.335E-04 ENERGY      -69.532628 DELTAE -169.5326284
 ITERATION   2 PLS= 0.436E-03 0.440E-03 ENERGY      -69.569183 DELTAE   -0.0365548
 ITERATION   3 PLS= 0.242E-03 0.241E-03 ENERGY      -69.575714 DELTAE   -0.0065310
 ITERATION   4 PLS= 0.129E-03 0.127E-03 ENERGY      -69.580199 DELTAE   -0.0044843
 CYCLE:   147 TIME:   0.141 TIME LEFT:  2.00W  GRAD.:     2.501 HEAT: -69.57765
 ITERATION   1 PLS= 0.149E-04 0.420E-04 ENERGY      -69.603262 DELTAE -169.6032624
 ITERATION   2 PLS= 0.428E-03 0.300E-03 ENERGY      -69.622621 DELTAE   -0.0193584
 ITERATION   3 PLS= 0.230E-03 0.167E-03 ENERGY      -69.626158 DELTAE   -0.0035370
 ITERATION   4 PLS= 0.130E-03 0.962E-04 ENERGY      -69.628659 DELTAE   -0.0025007
 CYCLE:   148 TIME:   0.164 TIME LEFT:  2.00W  GRAD.:     3.178 HEAT: -69.62722
 ITERATION   1 PLS= 0.177E-04 0.550E-04 ENERGY      -66.342437 DELTAE -166.3424374
 ITERATION   2 PLS= 0.359E-02 0.212E-02 ENERGY      -69.057533 DELTAE   -2.7150952
 ITERATION   3 PLS= 0.185E-02 0.132E-02 ENERGY      -69.544092 DELTAE   -0.4865592
 ITERATION   4 PLS= 0.101E-02 0.806E-03 ENERGY      -69.903200 DELTAE   -0.3591082
 ITERATION   5 PLS= 0.164E-03 0.330E-03 ENERGY      -69.685460 DELTAE    0.2177398
 ITERATION   6 PLS= 0.750E-04 0.199E-03 ENERGY      -69.687049 DELTAE   -0.0015892
 CYCLE:   149 TIME:   0.203 TIME LEFT:  2.00W  GRAD.:    13.429 HEAT: -69.68828
 ITERATION   1 PLS= 0.488E-04 0.128E-03 ENERGY      -68.481016 DELTAE -168.4810160
[...]
     46         16  H    CARTESIAN X     4.517623      0.248189  KCAL/ANGSTROM
     47         16  H    CARTESIAN Y    -1.824728     -0.322598  KCAL/ANGSTROM
     48         16  H    CARTESIAN Z     1.552089     -0.176768  KCAL/ANGSTROM
     49         17  H    CARTESIAN X     3.116981      0.314879  KCAL/ANGSTROM
     50         17  H    CARTESIAN Y    -2.639909      0.070201  KCAL/ANGSTROM
     51         17  H    CARTESIAN Z     0.837082     -0.357735  KCAL/ANGSTROM
     52         18  H    CARTESIAN X     2.982088      0.047617  KCAL/ANGSTROM
     53         18  H    CARTESIAN Y    -1.866727     -0.130785  KCAL/ANGSTROM
     54         18  H    CARTESIAN Z     2.419702      0.475157  KCAL/ANGSTROM
     55         19  N    CARTESIAN X     3.595283      3.648164  KCAL/ANGSTROM
     56         19  N    CARTESIAN Y    -0.404913      2.245534  KCAL/ANGSTROM
     57         19  N    CARTESIAN Z    -0.609092      0.539891  KCAL/ANGSTROM
     58         20  O    CARTESIAN X     4.635148     -2.704682  KCAL/ANGSTROM
     59         20  O    CARTESIAN Y     0.210547     -1.997422  KCAL/ANGSTROM
     60         20  O    CARTESIAN Z    -0.767129      0.851658  KCAL/ANGSTROM
     61         21  O    CARTESIAN X     3.044065     -0.048415  KCAL/ANGSTROM
     62         21  O    CARTESIAN Y    -1.002349     -0.707727  KCAL/ANGSTROM
     63         21  O    CARTESIAN Z    -1.518688     -1.105579  KCAL/ANGSTROM
     64         22  H    CARTESIAN X     3.464181     -0.188359  KCAL/ANGSTROM
     65         22  H    CARTESIAN Y     0.426714     -0.248107  KCAL/ANGSTROM
     66         22  H    CARTESIAN Z     1.342926     -0.546722  KCAL/ANGSTROM
     67         23  C    CARTESIAN X     1.389500     -0.476393  KCAL/ANGSTROM
     68         23  C    CARTESIAN Y    -0.555335     -0.083375  KCAL/ANGSTROM
     69         23  C    CARTESIAN Z     5.745776      0.188803  KCAL/ANGSTROM
     70         24  N    CARTESIAN X     1.544620     -0.134907  KCAL/ANGSTROM
     71         24  N    CARTESIAN Y    -0.001417     -0.341724  KCAL/ANGSTROM
     72         24  N    CARTESIAN Z     6.982533     -0.198200  KCAL/ANGSTROM
     73         25  C    CARTESIAN X     2.276208      0.283742  KCAL/ANGSTROM
     74         25  C    CARTESIAN Y     1.270714      0.346251  KCAL/ANGSTROM
     75         25  C    CARTESIAN Z     7.127630     -0.071082  KCAL/ANGSTROM
     76         26  C    CARTESIAN X     3.043152     -0.011010  KCAL/ANGSTROM
     77         26  C    CARTESIAN Y     1.653917      0.045553  KCAL/ANGSTROM
     78         26  C    CARTESIAN Z     5.844890     -0.106216  KCAL/ANGSTROM
     79         27  N    CARTESIAN X     2.173921      0.210423  KCAL/ANGSTROM
     80         27  N    CARTESIAN Y     1.558807      0.207581  KCAL/ANGSTROM
     81         27  N    CARTESIAN Z     4.652064     -0.199101  KCAL/ANGSTROM
     82         28  C    CARTESIAN X     1.723910     -0.188673  KCAL/ANGSTROM
     83         28  C    CARTESIAN Y     0.154042      0.210792  KCAL/ANGSTROM
     84         28  C    CARTESIAN Z     4.480933      0.031877  KCAL/ANGSTROM
     85         29  H    CARTESIAN X     1.017829      0.363958  KCAL/ANGSTROM
     86         29  H    CARTESIAN Y    -1.565731     -0.054870  KCAL/ANGSTROM
     87         29  H    CARTESIAN Z     5.678941      0.026897  KCAL/ANGSTROM
     88         30  H    CARTESIAN X     1.668619      0.098377  KCAL/ANGSTROM
     89         30  H    CARTESIAN Y    -0.644520      0.176591  KCAL/ANGSTROM
     90         30  H    CARTESIAN Z     7.762539     -0.529956  KCAL/ANGSTROM
     91         31  H    CARTESIAN X     2.969755     -0.516286  KCAL/ANGSTROM
     92         31  H    CARTESIAN Y     1.214799     -0.327075  KCAL/ANGSTROM
     93         31  H    CARTESIAN Z     7.995345      0.424159  KCAL/ANGSTROM
     94         32  H    CARTESIAN X     1.530661      0.194805  KCAL/ANGSTROM
     95         32  H    CARTESIAN Y     2.063641      0.128480  KCAL/ANGSTROM
     96         32  H    CARTESIAN Z     7.374274      0.039087  KCAL/ANGSTROM
     97         33  H    CARTESIAN X     3.437861      0.216143  KCAL/ANGSTROM
     98         33  H    CARTESIAN Y     2.690259     -0.013644  KCAL/ANGSTROM
     99         33  H    CARTESIAN Z     5.923428     -0.274241  KCAL/ANGSTROM
    100         34  H    CARTESIAN X     3.920115     -0.587058  KCAL/ANGSTROM
    101         34  H    CARTESIAN Y     0.985453     -0.208152  KCAL/ANGSTROM
    102         34  H    CARTESIAN Z     5.697164     -0.790200  KCAL/ANGSTROM
    103         35  H    CARTESIAN X     1.364607      0.323682  KCAL/ANGSTROM
    104         35  H    CARTESIAN Y     2.180336     -0.150068  KCAL/ANGSTROM
    105         35  H    CARTESIAN Z     4.755668     -0.252349  KCAL/ANGSTROM
    106         36  H    CARTESIAN X     0.850892      0.278697  KCAL/ANGSTROM
    107         36  H    CARTESIAN Y     0.141311      0.375893  KCAL/ANGSTROM
    108         36  H    CARTESIAN Z     3.787008      0.098640  KCAL/ANGSTROM
    109         37  H    CARTESIAN X     2.555122      0.558158  KCAL/ANGSTROM
    110         37  H    CARTESIAN Y    -0.393015      0.644968  KCAL/ANGSTROM
    111         37  H    CARTESIAN Z     3.966029      0.586117  KCAL/ANGSTROM
    112         38  H    CARTESIAN X     3.282434     -0.147545  KCAL/ANGSTROM
    113         38  H    CARTESIAN Y     2.019397     -0.090552  KCAL/ANGSTROM
    114         38  H    CARTESIAN Z     3.181202      0.714747  KCAL/ANGSTROM
    115         39  H    CARTESIAN X     4.708290     -0.870082  KCAL/ANGSTROM
    116         39  H    CARTESIAN Y     2.146124      0.513278  KCAL/ANGSTROM
    117         39  H    CARTESIAN Z     2.616639     -0.428817  KCAL/ANGSTROM
    118         40  O    CARTESIAN X     3.788481      0.894102  KCAL/ANGSTROM
    119         40  O    CARTESIAN Y     2.264050     -0.522858  KCAL/ANGSTROM
    120         40  O    CARTESIAN Z     2.375747      0.400397  KCAL/ANGSTROM




   ATOM   CHEMICAL          X               Y               Z
  NUMBER   SYMBOL      (ANGSTROMS)     (ANGSTROMS)     (ANGSTROMS)

     1       C         -0.48120556  *   0.96217930  *   1.30279835  *
     2       C          0.90580431  *   0.82691003  *   1.29480685  *
     3       C          1.50808703  *  -0.29066440  *   0.70796559  *
     4       C          0.71748949  *  -1.26523738  *   0.10067622  *
     5       C         -0.67146872  *  -1.10678387  *   0.09782786  *
     6       C         -1.28480059  *  -0.00385805  *   0.70453308  *
     7       H         -0.94473798  *   1.83136582  *   1.78014177  *
     8       H          1.52563382  *   1.60557363  *   1.75769262  *
     9       H          1.18048798  *  -2.14424967  *  -0.36501177  *
    10       H         -2.37676650  *   0.09563662  *   0.70704680  *
    11       N         -1.49512070  *  -2.10560454  *  -0.54015819  *
    12       O         -2.71114468  *  -1.97475575  *  -0.52410380  *
    13       O         -0.95832831  *  -3.05878944  *  -1.08701434  *
    14       C          3.00258263  *  -0.44180060  *   0.77124387  *
    15       C          3.42683744  *  -1.75779013  *   1.41743179  *
    16       H          4.51762325  *  -1.82472767  *   1.55208882  *
    17       H          3.11698057  *  -2.63990907  *   0.83708212  *
    18       H          2.98208755  *  -1.86672719  *   2.41970240  *
    19       N          3.59528315  *  -0.40491316  *  -0.60909209  *
    20       O          4.63514791  *   0.21054663  *  -0.76712913  *
    21       O          3.04406471  *  -1.00234943  *  -1.51868778  *
    22       H          3.46418075  *   0.42671385  *   1.34292647  *
    23       C          1.38949955  *  -0.55533533  *   5.74577561  *
    24       N          1.54462047  *  -0.00141679  *   6.98253261  *
    25       C          2.27620835  *   1.27071433  *   7.12762996  *
    26       C          3.04315198  *   1.65391669  *   5.84489019  *
    27       N          2.17392092  *   1.55880703  *   4.65206397  *
    28       C          1.72390959  *   0.15404237  *   4.48093305  *
    29       H          1.01782913  *  -1.56573126  *   5.67894144  *
    30       H          1.66861937  *  -0.64451967  *   7.76253940  *
    31       H          2.96975493  *   1.21479899  *   7.99534544  *
    32       H          1.53066135  *   2.06364098  *   7.37427353  *
    33       H          3.43786145  *   2.69025901  *   5.92342799  *
    34       H          3.92011518  *   0.98545286  *   5.69716434  *
    35       H          1.36460655  *   2.18033625  *   4.75566838  *
    36       H          0.85089226  *   0.14131135  *   3.78700822  *
    37       H          2.55512151  *  -0.39301496  *   3.96602864  *
    38       H          3.28243374  *   2.01939736  *   3.18120198  *
    39       H          4.70828952  *   2.14612359  *   2.61663875  *
    40       O          3.78848057  *   2.26405046  *   2.37574658  *

                             CARTESIAN COORDINATES

   1    C       -0.481205560     0.962179298     1.302798348
   2    C        0.905804310     0.826910034     1.294806845
   3    C        1.508087035    -0.290664397     0.707965594
   4    C        0.717489492    -1.265237384     0.100676215
   5    C       -0.671468723    -1.106783874     0.097827861
   6    C       -1.284800593    -0.003858049     0.704533084
   7    H       -0.944737982     1.831365815     1.780141766
   8    H        1.525633822     1.605573627     1.757692621
   9    H        1.180487977    -2.144249672    -0.365011770
  10    H       -2.376766504     0.095636623     0.707046799
  11    N       -1.495120702    -2.105604536    -0.540158195
  12    O       -2.711144679    -1.974755752    -0.524103798
  13    O       -0.958328308    -3.058789438    -1.087014344
  14    C        3.002582626    -0.441800600     0.771243873
  15    C        3.426837441    -1.757790127     1.417431794
  16    H        4.517623248    -1.824727666     1.552088817
  17    H        3.116980572    -2.639909070     0.837082120
  18    H        2.982087552    -1.866727194     2.419702401
  19    N        3.595283146    -0.404913160    -0.609092092
  20    O        4.635147914     0.210546627    -0.767129133
  21    O        3.044064715    -1.002349428    -1.518687776
  22    H        3.464180750     0.426713845     1.342926472
  23    C        1.389499550    -0.555335335     5.745775611
  24    N        1.544620466    -0.001416786     6.982532607
  25    C        2.276208345     1.270714325     7.127629962
  26    C        3.043151976     1.653916691     5.844890193
  27    N        2.173920922     1.558807025     4.652063967
  28    C        1.723909593     0.154042374     4.480933052
  29    H        1.017829135    -1.565731263     5.678941438
  30    H        1.668619374    -0.644519675     7.762539404
  31    H        2.969754926     1.214798987     7.995345436
  32    H        1.530661351     2.063640980     7.374273530
  33    H        3.437861451     2.690259010     5.923427987
  34    H        3.920115183     0.985452861     5.697164344
  35    H        1.364606546     2.180336246     4.755668378
  36    H        0.850892260     0.141311353     3.787008221
  37    H        2.555121512    -0.393014960     3.966028637
  38    H        3.282433737     2.019397364     3.181201981
  39    H        4.708289519     2.146123594     2.616638753
  40    O        3.788480573     2.264050463     2.375746580


           Empirical Formula: C12 H19 N4 O5  =    40 atoms



      MOLECULAR POINT GROUP   :   C1  


          ALPHA EIGENVALUES  
 -37.60868 -37.54342 -36.80879 -34.93705 -31.75417 -31.00934 -30.93964 -29.47233
 -28.83702 -27.78297 -26.38712 -26.29810 -25.13350 -25.02672 -24.49738 -22.69561
 -22.21583 -21.63077 -20.89527 -19.57480 -19.41808 -18.74242 -18.41886 -18.31795
 -17.74642 -17.71119 -17.61431 -17.54628 -17.04559 -16.43781 -16.28744 -16.16357
 -15.39223 -15.35468 -15.28564 -14.51308 -14.49490 -14.34761 -14.04531 -13.85218
 -13.75748 -13.52337 -13.41297 -13.06911 -12.80392 -12.75077 -12.13988 -12.13314
 -12.06610 -12.02647 -11.96511 -11.92056 -11.74753 -11.61873 -11.24200 -10.78851
 -10.61954  -9.86337  -7.70310  -1.55303  -0.81249  -0.55872   0.07813   0.37363
   0.40590   1.67173   2.48866   2.52582   2.89523   3.03988   3.21981   3.45846
   3.59134   3.79577   3.93082   3.98242   4.10375   4.15274   4.19374   4.27549
   4.40114   4.53107   4.60058   4.75838   4.94725   5.01423   5.12329   5.22806
   5.25971   5.32658   5.34635   5.44423   5.50834   5.54172   5.71933   5.81357
   5.95493   6.03081   6.28613   6.44638   6.52259   6.77204   6.89396


           BETA EIGENVALUES 
 -37.60868 -37.54340 -36.55302 -34.74167 -31.75408 -31.00933 -30.93962 -29.47221
 -28.83657 -27.78274 -26.32785 -26.29077 -25.13110 -25.02522 -24.37846 -22.69480
 -22.12420 -21.62983 -20.89513 -19.44531 -19.40001 -18.74143 -18.32230 -18.29812
 -17.74596 -17.70879 -17.60566 -17.54385 -17.04168 -16.34731 -16.25576 -16.05860
 -15.38822 -15.28576 -15.19870 -14.50443 -14.47312 -14.25389 -13.92443 -13.81567
 -13.66617 -13.48236 -13.35451 -13.06780 -12.80284 -12.65204 -12.13349 -12.07897
 -12.06605 -12.02642 -11.96508 -11.92054 -11.74751 -11.61730 -10.80143 -10.61951
 -10.08808  -9.80295  -1.55324  -0.81253  -0.55872   0.07808   0.37364   0.40592
   1.20346   1.67187   2.52081   2.66449   3.01588   3.04362   3.21988   3.45848
   3.59140   3.83021   3.93157   3.98245   4.10397   4.15483   4.25061   4.28187
   4.46370   4.59181   4.64661   4.75951   4.95548   5.05007   5.15866   5.24310
   5.32799   5.35004   5.44345   5.49625   5.52074   5.54967   5.71939   5.84002
   6.00519   6.06678   6.44857   6.49790   6.57874   6.89464   7.03299


              NET ATOMIC CHARGES AND DIPOLE CONTRIBUTIONS

  ATOM NO.   TYPE          CHARGE      No. of ELECS.   s-Pop       p-Pop       
    1          C          -0.170759        4.1708     1.08630     3.08446
    2          C          -0.068056        4.0681     1.10150     2.96656
    3          C          -0.083756        4.0838     1.06365     3.02010
    4          C          -0.045863        4.0459     1.09591     2.94996
    5          C          -0.098637        4.0986     1.06899     3.02964
    6          C          -0.045554        4.0456     1.09812     2.94744
    7          H           0.187011        0.8130     0.81299
    8          H           0.183510        0.8165     0.81649
    9          H           0.200043        0.8000     0.79996
   10          H           0.194857        0.8051     0.80514
   11          N           0.677011        4.3230     1.44577     2.87722
   12          O          -0.458627        6.4586     1.94048     4.51815
   13          O          -0.456970        6.4570     1.94039     4.51658
   14          C          -0.049166        4.0492     1.09668     2.95248
   15          C          -0.467373        4.4674     1.05882     3.40856
   16          H           0.181073        0.8189     0.81893
   17          H           0.183017        0.8170     0.81698
   18          H           0.183144        0.8169     0.81686
   19          N           0.625605        4.3744     1.47817     2.89623
   20          O          -0.449987        6.4500     1.93913     4.51085
   21          O          -0.443459        6.4435     1.93944     4.50402
   22          H           0.219434        0.7806     0.78057
   23          C          -0.277515        4.2775     1.07248     3.20503
   24          N          -0.430819        5.4308     1.56069     3.87013
   25          C          -0.150461        4.1505     1.07577     3.07469
   26          C          -0.143375        4.1434     1.07399     3.06939
   27          N          -0.544033        5.5440     1.66754     3.87649
   28          C          -0.108037        4.1080     1.06166     3.04638
   29          H           0.162162        0.8378     0.83784
   30          H           0.314627        0.6854     0.68537
   31          H           0.157229        0.8428     0.84277
   32          H           0.155850        0.8442     0.84415
   33          H           0.158855        0.8411     0.84114
   34          H           0.158718        0.8413     0.84128
   35          H           0.277015        0.7230     0.72298
   36          H           0.148434        0.8516     0.85157
   37          H           0.151311        0.8487     0.84869
   38          H           0.386512        0.6135     0.61349
   39          H           0.369817        0.6302     0.63018
   40          O          -0.782788        6.7828     1.81641     4.96638
 DIPOLE           X         Y         Z       TOTAL
 POINT-CHG.     2.838     3.951    12.913    13.799
 HYBRID        -0.208    -0.863     0.329     0.947
 SUM            2.630     3.088    13.242    13.850


          ATOMIC ORBITAL ELECTRON POPULATIONS

     Atom    s        px        py        pz   
    1  C   1.08630   0.99461   1.06456   1.02529
    2  C   1.10150   1.02323   1.00772   0.93561
    3  C   1.06365   0.95955   1.00464   1.05591
    4  C   1.09591   0.96824   1.03942   0.94229
    5  C   1.06899   0.95972   0.97200   1.09792
    6  C   1.09812   1.10035   0.93829   0.90879
    7  H   0.81299
    8  H   0.81649
    9  H   0.79996
   10  H   0.80514
   11  N   1.44577   0.97288   0.97112   0.93322
   12  O   1.94048   1.02521   1.82325   1.66968
   13  O   1.94039   1.73802   1.28897   1.48960
   14  C   1.09668   0.98510   1.11379   0.85359
   15  C   1.05882   1.19865   1.03777   1.17213
   16  H   0.81893
   17  H   0.81698
   18  H   0.81686
   19  N   1.47817   0.95505   0.92047   1.02071
   20  O   1.93913   1.16781   1.44014   1.90290
   21  O   1.93944   1.62418   1.45213   1.42770
   22  H   0.78057
   23  C   1.07248   1.24746   1.07423   0.88335
   24  N   1.56069   1.53680   1.18115   1.15218
   25  C   1.07577   1.07147   0.93457   1.06865
   26  C   1.07399   1.01638   1.15946   0.89354
   27  N   1.66754   1.31016   1.15477   1.41156
   28  C   1.06166   1.11864   0.88960   1.03814
   29  H   0.83784
   30  H   0.68537
   31  H   0.84277
   32  H   0.84415
   33  H   0.84114
   34  H   0.84128
   35  H   0.72298
   36  H   0.85157
   37  H   0.84869
   38  H   0.61349
   39  H   0.63018
   40  O   1.81641   1.42458   1.95149   1.59031


                    (SZ)    =    0.500000
                    (S**2)  =    0.752606


          ATOMIC ORBITAL SPIN POPULATIONS

    Atom   Total    s     px     py     pz   
         Atomic
    1  C  0.0001  0.000  0.000  0.000  0.000
    2  C -0.0001 -0.000 -0.000 -0.000 -0.000
    3  C  0.0001  0.000  0.000  0.000  0.000
    4  C -0.0001 -0.000 -0.000 -0.000 -0.000
    5  C  0.0001  0.000  0.000  0.000  0.000
    6  C -0.0000 -0.000 -0.000 -0.000 -0.000
    7  H -0.0000 -0.000
    8  H  0.0000  0.000
    9  H  0.0000  0.000
   10  H  0.0000  0.000
   11  N -0.0000 -0.000  0.000  0.000 -0.000
   12  O -0.0000 -0.000  0.000  0.000 -0.000
   13  O  0.0000  0.000  0.000  0.000  0.000
   14  C -0.0000  0.000 -0.000  0.000 -0.000
   15  C  0.0001  0.000  0.000  0.000  0.000
   16  H -0.0000 -0.000
   17  H -0.0000 -0.000
   18  H -0.0000 -0.000
   19  N  0.0000  0.000 -0.000 -0.000  0.000
   20  O  0.0000  0.000  0.000  0.000  0.000
   21  O -0.0000 -0.000 -0.000 -0.000  0.000
   22  H -0.0000 -0.000
   23  C  0.7525  0.019  0.596  0.123  0.014
   24  N  0.2496  0.027  0.179  0.041  0.002
   25  C -0.0023  0.001  0.004 -0.006 -0.000
   26  C  0.0023  0.000  0.000  0.000  0.001
   27  N  0.0008  0.000 -0.000  0.001 -0.000
   28  C -0.0352 -0.005 -0.005 -0.006 -0.019
   29  H -0.0214 -0.021
   30  H  0.0088  0.009
   31  H  0.0033  0.003
   32  H  0.0049  0.005
   33  H -0.0000 -0.000
   34  H -0.0002 -0.000
   35  H  0.0003  0.000
   36  H  0.0146  0.015
   37  H  0.0219  0.022
   38  H -0.0000 -0.000
   39  H -0.0000 -0.000
   40  O  0.0000 -0.000 -0.000  0.000  0.000

 **********************
 *                    *
 * JOB ENDED NORMALLY *
 *                    *
 **********************



 TOTAL JOB TIME:            37.13 SECONDS

 == MOPAC DONE ==
