 *******************************************************************************
 **                                                                           **
 **                              MOPAC v22.1.0                                **
 **                                                                           **
 *******************************************************************************
 **          Digital Object Identifier (DOI): 10.5281/zenodo.6511958          **
 **    Visit the DOI location for information on how to cite this program.    **
 *******************************************************************************

                              PM7 CALCULATION RESULTS

 *******************************************************************************
 *  CALCULATION DONE:                                Sat Mar 23 21:13:02 2024  *
 *  PM7        - The PM7 Hamiltonian to be used
 *  SINGLET    - SPIN STATE DEFINED AS A SINGLET
 *
 *
 *
 *                 CHARGE ON SYSTEM = 0
 *
 *
 *
 *  EPS=78.4   - USE ANDREAS KLAMT'S COSMO IMPLICIT SOLVATION MODEL
 *  THREADS    - USE A MAXIMUM OF 40 THREADS
 *  T=         - A TIME OF 14.0 DAYS REQUESTED
 *  DUMP=N     - RESTART FILE WRITTEN EVERY 30.0 MINUTES REQUESTED
 *  ITRY=      - DO A MAXIMUM OF 15000 ITERATIONS FOR SCF
 *  AUX        - OUTPUT AUXILIARY INFORMATION
 *  PL         - MONITOR CONVERGENCE IN DENSITY MATRIX
 *******************************************************************************
PM7 CHARGE=0 SINGLET AUX DUMP=30M ITRY=15000 eps=78.4 T=14D PL THREADS=40

 Mopac file generated by Gabedit
   ATOM   CHEMICAL          X               Y               Z
  NUMBER   SYMBOL      (ANGSTROMS)     (ANGSTROMS)     (ANGSTROMS)

     1       C          1.14260000  *   3.28012000  *   2.08074000  *
     2       C          1.68858000  *   1.99824000  *   2.02529000  *
     3       C          0.86524000  *   0.88303000  *   1.84702000  *
     4       C         -0.52492000  *   1.03997000  *   1.73049000  *
     5       C         -1.03842000  *   2.33822000  *   1.77054000  *
     6       C         -0.24020000  *   3.46070000  *   1.92647000  *
     7       H          1.78150000  *   4.14337000  *   2.24765000  *
     8       H          2.77187000  *   1.87760000  *   2.10670000  *
     9       H         -1.17108000  *   0.17339000  *   1.58466000  *
    10      Cl         -2.74502000  *   2.50626000  *   1.61543000  *
    11       H         -0.66768000  *   4.46459000  *   1.90826000  *
    12       C          1.48007000  *  -0.48478000  *   1.76849000  *
    13       C          0.95702000  *  -1.43763000  *   2.83712000  *
    14       H          1.46015000  *  -2.41646000  *   2.79464000  *
    15       H         -0.12173000  *  -1.62127000  *   2.75749000  *
    16       H          1.13282000  *  -1.02278000  *   3.84389000  *
    17       N          1.16867000  *  -1.07032000  *   0.42196000  *
    18       O          2.09870000  *  -1.39203000  *  -0.31183000  *
    19       O          0.00255000  *  -1.20368000  *   0.08343000  *
    20       N          5.44848000  *  -0.54108700  *   2.23848700  *
    21       C          6.26115000  *  -1.71780700  *   1.84119700  *
    22       C          7.68226000  *  -1.68251700  *   2.45168700  *
    23       C          8.41921000  *  -0.37055700  *   2.13071700  *
    24       C          7.52772000  *   0.86260300  *   2.35814700  *
    25       C          6.11784000  *   0.68367300  *   1.74779700  *
    26       H          2.61646000  *  -0.42769000  *   1.85651000  *
    27       H          5.71414000  *  -2.64039700  *   2.13860700  *
    28       H          6.32735000  *  -1.72350700  *   0.73660700  *
    29       H          8.25972000  *  -2.54270700  *   2.07375700  *
    30       H          7.61223000  *  -1.83478700  *   3.53992700  *
    31       H          9.31273000  *  -0.29594700  *   2.78208700  *
    32       H          8.77819000  *  -0.40167700  *   1.08267700  *
    33       H          8.01478000  *   1.74823300  *   1.90662700  *
    34       H          7.43225000  *   1.07721300  *   3.44370700  *
    35       H          5.47791000  *   1.56179300  *   1.99042700  *
    36       H          6.16962000  *   0.62477300  *   0.63789700  *
    37       H          5.36910000  *  -0.50799700  *   3.25669700  *
    38       H          4.39011700  *   0.18354000  *   2.62221000  *
    39       H          4.40028300  *  -1.38422600  *   2.51287800  *
    40       O          4.06942700  *  -0.63916000  *   2.44179000  *



          CARTESIAN COORDINATES 

    NO.       ATOM           X           Y           Z

     1         C          1.1426      3.2801      2.0807
     2         C          1.6886      1.9982      2.0253
     3         C          0.8652      0.8830      1.8470
     4         C         -0.5249      1.0400      1.7305
     5         C         -1.0384      2.3382      1.7705
     6         C         -0.2402      3.4607      1.9265
     7         H          1.7815      4.1434      2.2477
     8         H          2.7719      1.8776      2.1067
     9         H         -1.1711      0.1734      1.5847
    10        Cl         -2.7450      2.5063      1.6154
    11         H         -0.6677      4.4646      1.9083
    12         C          1.4801     -0.4848      1.7685
    13         C          0.9570     -1.4376      2.8371
    14         H          1.4602     -2.4165      2.7946
    15         H         -0.1217     -1.6213      2.7575
    16         H          1.1328     -1.0228      3.8439
    17         N          1.1687     -1.0703      0.4220
    18         O          2.0987     -1.3920     -0.3118
    19         O          0.0026     -1.2037      0.0834
    20         N          5.4485     -0.5411      2.2385
    21         C          6.2611     -1.7178      1.8412
    22         C          7.6823     -1.6825      2.4517
    23         C          8.4192     -0.3706      2.1307
    24         C          7.5277      0.8626      2.3581
    25         C          6.1178      0.6837      1.7478
    26         H          2.6165     -0.4277      1.8565
    27         H          5.7141     -2.6404      2.1386
    28         H          6.3274     -1.7235      0.7366
    29         H          8.2597     -2.5427      2.0738
    30         H          7.6122     -1.8348      3.5399
    31         H          9.3127     -0.2959      2.7821
    32         H          8.7782     -0.4017      1.0827
    33         H          8.0148      1.7482      1.9066
    34         H          7.4322      1.0772      3.4437
    35         H          5.4779      1.5618      1.9904
    36         H          6.1696      0.6248      0.6379
    37         H          5.3691     -0.5080      3.2567
    38         H          4.3901      0.1835      2.6222
    39         H          4.4003     -1.3842      2.5129
    40         O          4.0694     -0.6392      2.4418

 General Reference for PM7:
 "Optimization of Parameters for Semiempirical Methods VI: More Modifications to the 
 NDDO Approximations and Re-optimization of Parameters", J. J. P. Stewart, J. Mol. Mod., 1:32, 19 (2013)
 https://link.springer.com/article/10.1007/s00894-012-1667-x

           Empirical Formula: C13 H21 N2 O3 Cl  =    40 atoms



      MOLECULAR POINT GROUP   :   C1  


 SINGLET STATE CALCULATION


      RHF CALCULATION, NO. OF DOUBLY OCCUPIED LEVELS = 54


          Geometry optimization using L-BFGS
 ITERATION   1 PLS= 0.100E+01 0.000E+00 ENERGY    17897.819677 DELTAE    0.0000000
 ITERATION   2 PLS= 0.135E+01 0.000E+00 ENERGY      712.380270 DELTAE    0.0000000
 ITERATION   3 PLS= 0.131E+00 0.000E+00 ENERGY      515.795560 DELTAE -196.5847100
 ITERATION   4 PLS= 0.127E+00 0.000E+00 ENERGY     -295.110789 DELTAE -810.9063489
 ITERATION   5 PLS= 0.987E-01 0.000E+00 ENERGY      243.578199 DELTAE  538.6889879
 ITERATION   6 PLS= 0.607E-01 0.000E+00 ENERGY      219.753085 DELTAE  -23.8251138
 ITERATION   7 PLS= 0.427E-01 0.000E+00 ENERGY      166.337142 DELTAE  -53.4159433
 ITERATION   8 PLS= 0.347E-01 0.000E+00 ENERGY      174.569332 DELTAE    8.2321903
 ITERATION   9 PLS= 0.273E-01 0.000E+00 ENERGY      171.992070 DELTAE   -2.5772623
 ITERATION  10 PLS= 0.169E-01 0.000E+00 ENERGY      169.204073 DELTAE   -2.7879967
 ITERATION  11 PLS= 0.309E-02 0.000E+00 ENERGY      171.047770 DELTAE    1.8436967
 ITERATION  12 PLS= 0.130E-02 0.000E+00 ENERGY      171.027174 DELTAE   -0.0205963
 ITERATION  13 PLS= 0.449E-03 0.000E+00 ENERGY      171.018690 DELTAE   -0.0084838
 ITERATION  14 PLS= 0.223E-03 0.000E+00 ENERGY      171.021596 DELTAE    0.0029061
 ITERATION  15 PLS= 0.149E-03 0.000E+00 ENERGY      171.021542 DELTAE   -0.0000542
 ITERATION  16 PLS= 0.109E-03 0.000E+00 ENERGY      171.021375 DELTAE   -0.0001670
 ITERATION  17 PLS= 0.214E-04 0.000E+00 ENERGY      171.021500 DELTAE    0.0001247
 ITERATION   1 PLS= 0.141E-04 0.000E+00 ENERGY      159.243589 DELTAE   59.2435894
 ITERATION   2 PLS= 0.185E-01 0.000E+00 ENERGY      157.816487 DELTAE   -1.4271022
 ITERATION   3 PLS= 0.872E-02 0.000E+00 ENERGY      157.486026 DELTAE   -0.3304611
 ITERATION   4 PLS= 0.388E-02 0.000E+00 ENERGY      157.323775 DELTAE   -0.1622516
 ITERATION   5 PLS= 0.110E-02 0.000E+00 ENERGY      157.382877 DELTAE    0.0591021
 ITERATION   6 PLS= 0.799E-03 0.000E+00 ENERGY      157.381122 DELTAE   -0.0017550
 ITERATION   7 PLS= 0.590E-03 0.000E+00 ENERGY      157.376571 DELTAE   -0.0045511
 ITERATION   8 PLS= 0.186E-03 0.000E+00 ENERGY      157.379718 DELTAE    0.0031473
 ITERATION   9 PLS= 0.131E-03 0.000E+00 ENERGY      157.379697 DELTAE   -0.0000210
 CYCLE:     1 TIME:   0.430 TIME LEFT:  2.00W  GRAD.:   751.099 HEAT:  157.3796
 ITERATION   1 PLS= 0.950E-04 0.000E+00 ENERGY      151.849453 DELTAE   51.8494528
 ITERATION   2 PLS= 0.317E-02 0.000E+00 ENERGY      151.814955 DELTAE   -0.0344978
 ITERATION   3 PLS= 0.198E-02 0.000E+00 ENERGY      151.808277 DELTAE   -0.0066776
 ITERATION   4 PLS= 0.123E-02 0.000E+00 ENERGY      151.801039 DELTAE   -0.0072386
 CYCLE:     2 TIME:   0.141 TIME LEFT:  2.00W  GRAD.:   732.932 HEAT:  151.8053
 ITERATION   1 PLS= 0.116E-03 0.000E+00 ENERGY       59.437619 DELTAE  -40.5623805
 ITERATION   2 PLS= 0.118E+00 0.000E+00 ENERGY       22.292215 DELTAE  -37.1454046
 ITERATION   3 PLS= 0.676E-01 0.000E+00 ENERGY       15.198455 DELTAE   -7.0937601
 ITERATION   4 PLS= 0.368E-01 0.000E+00 ENERGY        9.459409 DELTAE   -5.7390454
 ITERATION   5 PLS= 0.308E-02 0.000E+00 ENERGY       12.582063 DELTAE    3.1226540
 ITERATION   6 PLS= 0.130E-02 0.000E+00 ENERGY       12.572269 DELTAE   -0.0097941
 CYCLE:     3 TIME:   0.102 TIME LEFT:  2.00W  GRAD.:   237.028 HEAT:  12.56528
 ITERATION   1 PLS= 0.770E-03 0.000E+00 ENERGY      193.256514 DELTAE   93.2565145
 ITERATION   2 PLS= 0.988E-01 0.000E+00 ENERGY      161.751543 DELTAE  -31.5049714
 ITERATION   3 PLS= 0.726E-01 0.000E+00 ENERGY      154.534678 DELTAE   -7.2168651
 ITERATION   4 PLS= 0.378E-01 0.000E+00 ENERGY      149.932489 DELTAE   -4.6021893
 ITERATION   5 PLS= 0.953E-02 0.000E+00 ENERGY      151.869868 DELTAE    1.9373790
 ITERATION   6 PLS= 0.573E-02 0.000E+00 ENERGY      151.829546 DELTAE   -0.0403213
 ITERATION   7 PLS= 0.389E-02 0.000E+00 ENERGY      151.743367 DELTAE   -0.0861798
 ITERATION   8 PLS= 0.104E-02 0.000E+00 ENERGY      151.803380 DELTAE    0.0600134
 CYCLE:     4 TIME:   0.086 TIME LEFT:  2.00W  GRAD.:   732.513 HEAT:  151.8031
 ITERATION   1 PLS= 0.573E-03 0.000E+00 ENERGY      146.072827 DELTAE   46.0728270
 ITERATION   2 PLS= 0.265E-02 0.000E+00 ENERGY      146.044633 DELTAE   -0.0281942
 ITERATION   3 PLS= 0.163E-02 0.000E+00 ENERGY      146.039639 DELTAE   -0.0049934
 ITERATION   4 PLS= 0.973E-03 0.000E+00 ENERGY      146.035512 DELTAE   -0.0041277
 CYCLE:     5 TIME:   0.062 TIME LEFT:  2.00W  GRAD.:   715.564 HEAT:  146.0377
 ITERATION   1 PLS= 0.873E-04 0.000E+00 ENERGY       36.777133 DELTAE  -63.2228674
 ITERATION   2 PLS= 0.914E-01 0.000E+00 ENERGY       10.903877 DELTAE  -25.8732560
 ITERATION   3 PLS= 0.474E-01 0.000E+00 ENERGY        6.999113 DELTAE   -3.9047638
 ITERATION   4 PLS= 0.271E-01 0.000E+00 ENERGY        3.509629 DELTAE   -3.4894839
 ITERATION   5 PLS= 0.190E-02 0.000E+00 ENERGY        5.536873 DELTAE    2.0272440
 ITERATION   6 PLS= 0.782E-03 0.000E+00 ENERGY        5.530295 DELTAE   -0.0065779
 CYCLE:     6 TIME:   0.070 TIME LEFT:  2.00W  GRAD.:   276.283 HEAT:  5.525461
 ITERATION   1 PLS= 0.395E-03 0.000E+00 ENERGY      -23.373808 DELTAE -123.3738084
 ITERATION   2 PLS= 0.466E-01 0.000E+00 ENERGY      -32.624904 DELTAE   -9.2510959
 ITERATION   3 PLS= 0.265E-01 0.000E+00 ENERGY      -34.472174 DELTAE   -1.8472694
 ITERATION   4 PLS= 0.161E-01 0.000E+00 ENERGY      -36.027267 DELTAE   -1.5550938
 ITERATION   5 PLS= 0.242E-02 0.000E+00 ENERGY      -35.151586 DELTAE    0.8756819
 ITERATION   6 PLS= 0.105E-02 0.000E+00 ENERGY      -35.154519 DELTAE   -0.0029331
 CYCLE:     7 TIME:   0.078 TIME LEFT:  2.00W  GRAD.:   105.934 HEAT: -35.15686
 ITERATION   1 PLS= 0.470E-03 0.000E+00 ENERGY      -43.690165 DELTAE -143.6901655
 ITERATION   2 PLS= 0.252E-01 0.000E+00 ENERGY      -47.829253 DELTAE   -4.1390878
 ITERATION   3 PLS= 0.132E-01 0.000E+00 ENERGY      -48.566201 DELTAE   -0.7369482
 ITERATION   4 PLS= 0.686E-02 0.000E+00 ENERGY      -49.138130 DELTAE   -0.5719282
 ITERATION   5 PLS= 0.120E-02 0.000E+00 ENERGY      -48.821887 DELTAE    0.3162424
 ITERATION   6 PLS= 0.691E-03 0.000E+00 ENERGY      -48.822975 DELTAE   -0.0010875
 CYCLE:     8 TIME:   0.094 TIME LEFT:  2.00W  GRAD.:   104.532 HEAT: -48.82389
 ITERATION   1 PLS= 0.408E-03 0.000E+00 ENERGY      -44.176253 DELTAE -144.1762530
 ITERATION   2 PLS= 0.420E-01 0.000E+00 ENERGY      -54.740224 DELTAE  -10.5639713
 ITERATION   3 PLS= 0.138E-01 0.000E+00 ENERGY      -56.300659 DELTAE   -1.5604348
 ITERATION   4 PLS= 0.751E-02 0.000E+00 ENERGY      -57.329925 DELTAE   -1.0292658
 ITERATION   5 PLS= 0.159E-02 0.000E+00 ENERGY      -56.811403 DELTAE    0.5185221
 ITERATION   6 PLS= 0.925E-03 0.000E+00 ENERGY      -56.814202 DELTAE   -0.0027994
 CYCLE:     9 TIME:   0.102 TIME LEFT:  2.00W  GRAD.:   166.793 HEAT: -56.81791
 ITERATION   1 PLS= 0.550E-03 0.000E+00 ENERGY      -60.181425 DELTAE -160.1814249
 ITERATION   2 PLS= 0.232E-01 0.000E+00 ENERGY      -62.534212 DELTAE   -2.3527868
 ITERATION   3 PLS= 0.809E-02 0.000E+00 ENERGY      -62.845872 DELTAE   -0.3116606
 ITERATION   4 PLS= 0.373E-02 0.000E+00 ENERGY      -63.031148 DELTAE   -0.1852755
 ITERATION   5 PLS= 0.457E-03 0.000E+00 ENERGY      -62.941686 DELTAE    0.0894614
 CYCLE:    10 TIME:   0.094 TIME LEFT:  2.00W  GRAD.:   105.025 HEAT: -62.94202
 ITERATION   1 PLS= 0.245E-03 0.000E+00 ENERGY      -64.816507 DELTAE -164.8165069
 ITERATION   2 PLS= 0.163E-01 0.000E+00 ENERGY      -67.002842 DELTAE   -2.1863353
 ITERATION   3 PLS= 0.946E-02 0.000E+00 ENERGY      -67.427046 DELTAE   -0.4242035
 ITERATION   4 PLS= 0.529E-02 0.000E+00 ENERGY      -67.740959 DELTAE   -0.3139135
 ITERATION   5 PLS= 0.473E-03 0.000E+00 ENERGY      -67.566949 DELTAE    0.1740097
 ITERATION   6 PLS= 0.322E-03 0.000E+00 ENERGY      -67.567388 DELTAE   -0.0004382
 CYCLE:    11 TIME:   0.125 TIME LEFT:  2.00W  GRAD.:    97.506 HEAT: -67.56810
 ITERATION   1 PLS= 0.245E-03 0.000E+00 ENERGY      -66.956007 DELTAE -166.9560065
 ITERATION   2 PLS= 0.280E-01 0.000E+00 ENERGY      -71.626542 DELTAE   -4.6705357
 ITERATION   3 PLS= 0.163E-01 0.000E+00 ENERGY      -72.597524 DELTAE   -0.9709818
 ITERATION   4 PLS= 0.887E-02 0.000E+00 ENERGY      -73.286037 DELTAE   -0.6885132
 ITERATION   5 PLS= 0.635E-03 0.000E+00 ENERGY      -72.911540 DELTAE    0.3744973
 ITERATION   6 PLS= 0.336E-03 0.000E+00 ENERGY      -72.912386 DELTAE   -0.0008457
 CYCLE:    12 TIME:   0.078 TIME LEFT:  2.00W  GRAD.:    88.032 HEAT: -72.91342
 ITERATION   1 PLS= 0.250E-03 0.000E+00 ENERGY      -68.270770 DELTAE -168.2707696
 ITERATION   2 PLS= 0.382E-01 0.000E+00 ENERGY      -74.317342 DELTAE   -6.0465724
 ITERATION   3 PLS= 0.219E-01 0.000E+00 ENERGY      -75.424464 DELTAE   -1.1071218
 ITERATION   4 PLS= 0.118E-01 0.000E+00 ENERGY      -76.125105 DELTAE   -0.7006413
 ITERATION   5 PLS= 0.564E-03 0.000E+00 ENERGY      -75.760391 DELTAE    0.3647141
 ITERATION   6 PLS= 0.311E-03 0.000E+00 ENERGY      -75.760985 DELTAE   -0.0005945
 CYCLE:    13 TIME:   0.086 TIME LEFT:  2.00W  GRAD.:   120.753 HEAT: -75.76141
 ITERATION   1 PLS= 0.192E-03 0.000E+00 ENERGY      -77.821017 DELTAE -177.8210168
 ITERATION   2 PLS= 0.101E-01 0.000E+00 ENERGY      -78.740669 DELTAE   -0.9196526
 ITERATION   3 PLS= 0.527E-02 0.000E+00 ENERGY      -78.850983 DELTAE   -0.1103135
 ITERATION   4 PLS= 0.274E-02 0.000E+00 ENERGY      -78.907818 DELTAE   -0.0568355
 ITERATION   5 PLS= 0.358E-03 0.000E+00 ENERGY      -78.881341 DELTAE    0.0264776
 CYCLE:    14 TIME:   0.078 TIME LEFT:  2.00W  GRAD.:    49.521 HEAT: -78.88149
 ITERATION   1 PLS= 0.165E-03 0.000E+00 ENERGY      -79.938413 DELTAE -179.9384132
 ITERATION   2 PLS= 0.123E-01 0.000E+00 ENERGY      -80.372606 DELTAE   -0.4341932
 ITERATION   3 PLS= 0.610E-02 0.000E+00 ENERGY      -80.443749 DELTAE   -0.0711426
 ITERATION   4 PLS= 0.312E-02 0.000E+00 ENERGY      -80.485603 DELTAE   -0.0418535
 ITERATION   5 PLS= 0.475E-03 0.000E+00 ENERGY      -80.465243 DELTAE    0.0203596
 CYCLE:    15 TIME:   0.078 TIME LEFT:  2.00W  GRAD.:    44.494 HEAT: -80.46534
 ITERATION   1 PLS= 0.209E-03 0.000E+00 ENERGY      -81.184612 DELTAE -181.1846125
 ITERATION   2 PLS= 0.222E-01 0.000E+00 ENERGY      -81.997245 DELTAE   -0.8126329
 ITERATION   3 PLS= 0.108E-01 0.000E+00 ENERGY      -82.166415 DELTAE   -0.1691694
 ITERATION   4 PLS= 0.540E-02 0.000E+00 ENERGY      -82.282483 DELTAE   -0.1160680
 ITERATION   5 PLS= 0.265E-03 0.000E+00 ENERGY      -82.222987 DELTAE    0.0594956
 CYCLE:    16 TIME:   0.070 TIME LEFT:  2.00W  GRAD.:    55.886 HEAT: -82.22307
 ITERATION   1 PLS= 0.150E-03 0.000E+00 ENERGY      -81.520136 DELTAE -181.5201359
 ITERATION   2 PLS= 0.333E-01 0.000E+00 ENERGY      -83.872357 DELTAE   -2.3522206
 ITERATION   3 PLS= 0.161E-01 0.000E+00 ENERGY      -84.368321 DELTAE   -0.4959640
 ITERATION   4 PLS= 0.806E-02 0.000E+00 ENERGY      -84.700009 DELTAE   -0.3316882
 ITERATION   5 PLS= 0.731E-03 0.000E+00 ENERGY      -84.535938 DELTAE    0.1640711
 ITERATION   6 PLS= 0.324E-03 0.000E+00 ENERGY      -84.536411 DELTAE   -0.0004737
 CYCLE:    17 TIME:   0.086 TIME LEFT:  2.00W  GRAD.:    62.709 HEAT: -84.53700
 ITERATION   1 PLS= 0.201E-03 0.000E+00 ENERGY      -82.114542 DELTAE -182.1145418
 ITERATION   2 PLS= 0.324E-01 0.000E+00 ENERGY      -85.686081 DELTAE   -3.5715395
 ITERATION   3 PLS= 0.158E-01 0.000E+00 ENERGY      -86.478915 DELTAE   -0.7928339
 ITERATION   4 PLS= 0.842E-02 0.000E+00 ENERGY      -87.043303 DELTAE   -0.5643877
 ITERATION   5 PLS= 0.432E-03 0.000E+00 ENERGY      -86.754264 DELTAE    0.2890389
 ITERATION   6 PLS= 0.246E-03 0.000E+00 ENERGY      -86.754661 DELTAE   -0.0003966
 CYCLE:    18 TIME:   0.086 TIME LEFT:  2.00W  GRAD.:    48.469 HEAT: -86.75513
 ITERATION   1 PLS= 0.166E-03 0.000E+00 ENERGY      -87.239694 DELTAE -187.2396943
 ITERATION   2 PLS= 0.158E-01 0.000E+00 ENERGY      -88.087502 DELTAE   -0.8478074
 ITERATION   3 PLS= 0.798E-02 0.000E+00 ENERGY      -88.247944 DELTAE   -0.1604419
 ITERATION   4 PLS= 0.419E-02 0.000E+00 ENERGY      -88.359556 DELTAE   -0.1116125
 ITERATION   5 PLS= 0.346E-03 0.000E+00 ENERGY      -88.302171 DELTAE    0.0573847
 CYCLE:    19 TIME:   0.078 TIME LEFT:  2.00W  GRAD.:    32.629 HEAT: -88.30230
 ITERATION   1 PLS= 0.183E-03 0.000E+00 ENERGY      -87.984937 DELTAE -187.9849371
 ITERATION   2 PLS= 0.127E-01 0.000E+00 ENERGY      -89.456545 DELTAE   -1.4716076
 ITERATION   3 PLS= 0.404E-02 0.000E+00 ENERGY      -89.690675 DELTAE   -0.2341299
 ITERATION   4 PLS= 0.230E-02 0.000E+00 ENERGY      -89.830503 DELTAE   -0.1398281
 ITERATION   5 PLS= 0.582E-03 0.000E+00 ENERGY      -89.760838 DELTAE    0.0696645
 CYCLE:    20 TIME:   0.086 TIME LEFT:  2.00W  GRAD.:    44.636 HEAT: -89.76116
 ITERATION   1 PLS= 0.368E-03 0.000E+00 ENERGY      -88.874814 DELTAE -188.8748141
 ITERATION   2 PLS= 0.170E-01 0.000E+00 ENERGY      -90.094724 DELTAE   -1.2199095
 ITERATION   3 PLS= 0.930E-02 0.000E+00 ENERGY      -90.342209 DELTAE   -0.2474855
 ITERATION   4 PLS= 0.514E-02 0.000E+00 ENERGY      -90.529932 DELTAE   -0.1877228
 ITERATION   5 PLS= 0.787E-03 0.000E+00 ENERGY      -90.425465 DELTAE    0.1044672
 ITERATION   6 PLS= 0.349E-03 0.000E+00 ENERGY      -90.425756 DELTAE   -0.0002912
 CYCLE:    21 TIME:   0.078 TIME LEFT:  2.00W  GRAD.:    34.965 HEAT: -90.42595
 ITERATION   1 PLS= 0.161E-03 0.000E+00 ENERGY      -90.718740 DELTAE -190.7187398
 ITERATION   2 PLS= 0.503E-02 0.000E+00 ENERGY      -91.182425 DELTAE   -0.4636850
 ITERATION   3 PLS= 0.282E-02 0.000E+00 ENERGY      -91.256445 DELTAE   -0.0740199
 ITERATION   4 PLS= 0.169E-02 0.000E+00 ENERGY      -91.302992 DELTAE   -0.0465470
 ITERATION   5 PLS= 0.259E-03 0.000E+00 ENERGY      -91.277266 DELTAE    0.0257258
 CYCLE:    22 TIME:   0.078 TIME LEFT:  2.00W  GRAD.:    23.784 HEAT: -91.27742
 ITERATION   1 PLS= 0.166E-03 0.000E+00 ENERGY      -91.281955 DELTAE -191.2819551
 ITERATION   2 PLS= 0.102E-01 0.000E+00 ENERGY      -91.842842 DELTAE   -0.5608870
 ITERATION   3 PLS= 0.571E-02 0.000E+00 ENERGY      -91.938174 DELTAE   -0.0953323
 ITERATION   4 PLS= 0.324E-02 0.000E+00 ENERGY      -92.003580 DELTAE   -0.0654051
 ITERATION   5 PLS= 0.586E-03 0.000E+00 ENERGY      -91.967538 DELTAE    0.0360417
 CYCLE:    23 TIME:   0.078 TIME LEFT:  2.00W  GRAD.:    28.292 HEAT: -91.96773
 ITERATION   1 PLS= 0.263E-03 0.000E+00 ENERGY      -92.191863 DELTAE -192.1918628
 ITERATION   2 PLS= 0.309E-02 0.000E+00 ENERGY      -92.333083 DELTAE   -0.1412207
 ITERATION   3 PLS= 0.139E-02 0.000E+00 ENERGY      -92.356624 DELTAE   -0.0235406
 ITERATION   4 PLS= 0.729E-03 0.000E+00 ENERGY      -92.371595 DELTAE   -0.0149712
 CYCLE:    24 TIME:   0.070 TIME LEFT:  2.00W  GRAD.:    23.396 HEAT: -92.36407
 ITERATION   1 PLS= 0.188E-03 0.000E+00 ENERGY      -92.398763 DELTAE -192.3987631
 ITERATION   2 PLS= 0.501E-02 0.000E+00 ENERGY      -92.750839 DELTAE   -0.3520759
 ITERATION   3 PLS= 0.254E-02 0.000E+00 ENERGY      -92.825424 DELTAE   -0.0745845
 ITERATION   4 PLS= 0.135E-02 0.000E+00 ENERGY      -92.879205 DELTAE   -0.0537819
 ITERATION   5 PLS= 0.100E-03 0.000E+00 ENERGY      -92.851152 DELTAE    0.0280530
 CYCLE:    25 TIME:   0.078 TIME LEFT:  2.00W  GRAD.:    18.683 HEAT: -92.85120
 ITERATION   1 PLS= 0.586E-04 0.000E+00 ENERGY      -92.829409 DELTAE -192.8294087
 ITERATION   2 PLS= 0.498E-02 0.000E+00 ENERGY      -93.163776 DELTAE   -0.3343672
 ITERATION   3 PLS= 0.223E-02 0.000E+00 ENERGY      -93.234027 DELTAE   -0.0702516
 ITERATION   4 PLS= 0.123E-02 0.000E+00 ENERGY      -93.283273 DELTAE   -0.0492451
 ITERATION   5 PLS= 0.116E-03 0.000E+00 ENERGY      -93.258241 DELTAE    0.0250314
 CYCLE:    26 TIME:   0.086 TIME LEFT:  2.00W  GRAD.:    22.542 HEAT: -93.25827
 ITERATION   1 PLS= 0.696E-04 0.000E+00 ENERGY      -93.093284 DELTAE -193.0932842
 ITERATION   2 PLS= 0.530E-02 0.000E+00 ENERGY      -93.359201 DELTAE   -0.2659168
 ITERATION   3 PLS= 0.304E-02 0.000E+00 ENERGY      -93.424929 DELTAE   -0.0657278
 ITERATION   4 PLS= 0.166E-02 0.000E+00 ENERGY      -93.477346 DELTAE   -0.0524175
 ITERATION   5 PLS= 0.111E-03 0.000E+00 ENERGY      -93.448467 DELTAE    0.0288798
 CYCLE:    27 TIME:   0.078 TIME LEFT:  2.00W  GRAD.:    22.394 HEAT: -93.44849
 ITERATION   1 PLS= 0.695E-04 0.000E+00 ENERGY      -92.086522 DELTAE -192.0865218
 ITERATION   2 PLS= 0.165E-01 0.000E+00 ENERGY      -93.552387 DELTAE   -1.4658650
 ITERATION   3 PLS= 0.994E-02 0.000E+00 ENERGY      -93.911409 DELTAE   -0.3590226
 ITERATION   4 PLS= 0.554E-02 0.000E+00 ENERGY      -94.200950 DELTAE   -0.2895411
 ITERATION   5 PLS= 0.304E-03 0.000E+00 ENERGY      -94.039795 DELTAE    0.1611554
 ITERATION   6 PLS= 0.199E-03 0.000E+00 ENERGY      -94.040023 DELTAE   -0.0002282
 CYCLE:    28 TIME:   0.086 TIME LEFT:  2.00W  GRAD.:    20.588 HEAT: -94.04026
 ITERATION   1 PLS= 0.118E-03 0.000E+00 ENERGY      -93.222927 DELTAE -193.2229274
 ITERATION   2 PLS= 0.120E-01 0.000E+00 ENERGY      -93.811546 DELTAE   -0.5886188
 ITERATION   3 PLS= 0.659E-02 0.000E+00 ENERGY      -93.938495 DELTAE   -0.1269485
 ITERATION   4 PLS= 0.354E-02 0.000E+00 ENERGY      -94.031997 DELTAE   -0.0935019
 ITERATION   5 PLS= 0.145E-03 0.000E+00 ENERGY      -93.982780 DELTAE    0.0492168
 CYCLE:    29 TIME:   0.078 TIME LEFT:  2.00W  GRAD.:    25.668 HEAT: -93.98298
 ITERATION   1 PLS= 0.976E-04 0.000E+00 ENERGY      -94.084409 DELTAE -194.0844092
 ITERATION   2 PLS= 0.406E-02 0.000E+00 ENERGY      -94.161035 DELTAE   -0.0766258
 ITERATION   3 PLS= 0.214E-02 0.000E+00 ENERGY      -94.175763 DELTAE   -0.0147277
 ITERATION   4 PLS= 0.113E-02 0.000E+00 ENERGY      -94.185994 DELTAE   -0.0102313
 CYCLE:    30 TIME:   0.078 TIME LEFT:  2.00W  GRAD.:    10.777 HEAT: -94.18076
 ITERATION   1 PLS= 0.211E-03 0.000E+00 ENERGY      -94.263789 DELTAE -194.2637885
 ITERATION   2 PLS= 0.389E-02 0.000E+00 ENERGY      -94.303803 DELTAE   -0.0400140
 ITERATION   3 PLS= 0.197E-02 0.000E+00 ENERGY      -94.312434 DELTAE   -0.0086316
 ITERATION   4 PLS= 0.102E-02 0.000E+00 ENERGY      -94.318608 DELTAE   -0.0061738
 CYCLE:    31 TIME:   0.070 TIME LEFT:  2.00W  GRAD.:     8.475 HEAT: -94.31538
 ITERATION   1 PLS= 0.532E-04 0.000E+00 ENERGY      -94.271133 DELTAE -194.2711332
 ITERATION   2 PLS= 0.725E-02 0.000E+00 ENERGY      -94.412045 DELTAE   -0.1409121
 ITERATION   3 PLS= 0.373E-02 0.000E+00 ENERGY      -94.444898 DELTAE   -0.0328525
 ITERATION   4 PLS= 0.193E-02 0.000E+00 ENERGY      -94.469376 DELTAE   -0.0244780
 ITERATION   5 PLS= 0.911E-04 0.000E+00 ENERGY      -94.456485 DELTAE    0.0128908
 CYCLE:    32 TIME:   0.086 TIME LEFT:  2.00W  GRAD.:     9.505 HEAT: -94.45651
 ITERATION   1 PLS= 0.566E-04 0.000E+00 ENERGY      -94.124638 DELTAE -194.1246376
 ITERATION   2 PLS= 0.118E-01 0.000E+00 ENERGY      -94.492325 DELTAE   -0.3676871
 ITERATION   3 PLS= 0.637E-02 0.000E+00 ENERGY      -94.579115 DELTAE   -0.0867898
 ITERATION   4 PLS= 0.337E-02 0.000E+00 ENERGY      -94.645081 DELTAE   -0.0659668
 ITERATION   5 PLS= 0.123E-03 0.000E+00 ENERGY      -94.610618 DELTAE    0.0344637
 CYCLE:    33 TIME:   0.078 TIME LEFT:  2.00W  GRAD.:    16.915 HEAT: -94.61074
 ITERATION   1 PLS= 0.761E-04 0.000E+00 ENERGY      -94.598884 DELTAE -194.5988840
 ITERATION   2 PLS= 0.129E-01 0.000E+00 ENERGY      -94.927284 DELTAE   -0.3284005
 ITERATION   3 PLS= 0.693E-02 0.000E+00 ENERGY      -95.005725 DELTAE   -0.0784404
 ITERATION   4 PLS= 0.368E-02 0.000E+00 ENERGY      -95.064019 DELTAE   -0.0582937
 ITERATION   5 PLS= 0.135E-03 0.000E+00 ENERGY      -95.033444 DELTAE    0.0305749
 CYCLE:    34 TIME:   0.078 TIME LEFT:  2.00W  GRAD.:    10.870 HEAT: -95.03348
 ITERATION   1 PLS= 0.652E-04 0.000E+00 ENERGY      -95.011851 DELTAE -195.0118509
 ITERATION   2 PLS= 0.310E-02 0.000E+00 ENERGY      -95.057062 DELTAE   -0.0452114
 ITERATION   3 PLS= 0.176E-02 0.000E+00 ENERGY      -95.065745 DELTAE   -0.0086827
 ITERATION   4 PLS= 0.960E-03 0.000E+00 ENERGY      -95.071724 DELTAE   -0.0059792
 CYCLE:    35 TIME:   0.078 TIME LEFT:  2.00W  GRAD.:     8.136 HEAT: -95.06876
 ITERATION   1 PLS= 0.832E-04 0.000E+00 ENERGY      -94.814749 DELTAE -194.8147490
 ITERATION   2 PLS= 0.355E-02 0.000E+00 ENERGY      -94.854918 DELTAE   -0.0401687
 ITERATION   3 PLS= 0.183E-02 0.000E+00 ENERGY      -94.862928 DELTAE   -0.0080105
 ITERATION   4 PLS= 0.945E-03 0.000E+00 ENERGY      -94.868117 DELTAE   -0.0051891
 CYCLE:    36 TIME:   0.062 TIME LEFT:  2.00W  GRAD.:     7.377 HEAT: -94.86550
 ITERATION   1 PLS= 0.568E-04 0.000E+00 ENERGY      -94.881868 DELTAE -194.8818676
 ITERATION   2 PLS= 0.305E-02 0.000E+00 ENERGY      -94.903878 DELTAE   -0.0220103
 ITERATION   3 PLS= 0.161E-02 0.000E+00 ENERGY      -94.908597 DELTAE   -0.0047195
 ITERATION   4 PLS= 0.846E-03 0.000E+00 ENERGY      -94.911838 DELTAE   -0.0032406
 CYCLE:    37 TIME:   0.070 TIME LEFT:  2.00W  GRAD.:     5.753 HEAT: -94.91017
 ITERATION   1 PLS= 0.466E-04 0.000E+00 ENERGY      -94.932245 DELTAE -194.9322450
 ITERATION   2 PLS= 0.163E-02 0.000E+00 ENERGY      -94.976521 DELTAE   -0.0442760
 ITERATION   3 PLS= 0.913E-03 0.000E+00 ENERGY      -94.984362 DELTAE   -0.0078407
 ITERATION   4 PLS= 0.508E-03 0.000E+00 ENERGY      -94.989147 DELTAE   -0.0047858
 CYCLE:    38 TIME:   0.070 TIME LEFT:  2.00W  GRAD.:     7.587 HEAT: -94.98661
 ITERATION   1 PLS= 0.844E-04 0.000E+00 ENERGY      -94.951270 DELTAE -194.9512703
 ITERATION   2 PLS= 0.417E-02 0.000E+00 ENERGY      -95.063203 DELTAE   -0.1119331
 ITERATION   3 PLS= 0.214E-02 0.000E+00 ENERGY      -95.084236 DELTAE   -0.0210330
 ITERATION   4 PLS= 0.111E-02 0.000E+00 ENERGY      -95.097130 DELTAE   -0.0128938
 CYCLE:    39 TIME:   0.070 TIME LEFT:  2.00W  GRAD.:    12.826 HEAT: -95.09045
 ITERATION   1 PLS= 0.716E-04 0.000E+00 ENERGY      -95.114473 DELTAE -195.1144727
 ITERATION   2 PLS= 0.295E-02 0.000E+00 ENERGY      -95.147912 DELTAE   -0.0334390
 ITERATION   3 PLS= 0.158E-02 0.000E+00 ENERGY      -95.154297 DELTAE   -0.0063858
 ITERATION   4 PLS= 0.837E-03 0.000E+00 ENERGY      -95.158439 DELTAE   -0.0041418
 CYCLE:    40 TIME:   0.062 TIME LEFT:  2.00W  GRAD.:     6.744 HEAT: -95.15628
 ITERATION   1 PLS= 0.435E-04 0.000E+00 ENERGY      -95.177188 DELTAE -195.1771883
 ITERATION   2 PLS= 0.126E-02 0.000E+00 ENERGY      -95.195576 DELTAE   -0.0183875
 ITERATION   3 PLS= 0.694E-03 0.000E+00 ENERGY      -95.198793 DELTAE   -0.0032167
 ITERATION   4 PLS= 0.400E-03 0.000E+00 ENERGY      -95.200830 DELTAE   -0.0020379
 CYCLE:    41 TIME:   0.070 TIME LEFT:  2.00W  GRAD.:     5.368 HEAT: -95.19973
 ITERATION   1 PLS= 0.435E-04 0.000E+00 ENERGY      -95.205913 DELTAE -195.2059128
 ITERATION   2 PLS= 0.104E-02 0.000E+00 ENERGY      -95.233195 DELTAE   -0.0272823
 ITERATION   3 PLS= 0.601E-03 0.000E+00 ENERGY      -95.237835 DELTAE   -0.0046394
 ITERATION   4 PLS= 0.357E-03 0.000E+00 ENERGY      -95.240618 DELTAE   -0.0027837
 CYCLE:    42 TIME:   0.094 TIME LEFT:  2.00W  GRAD.:     6.257 HEAT: -95.23908
 ITERATION   1 PLS= 0.478E-04 0.000E+00 ENERGY      -95.143045 DELTAE -195.1430450
 ITERATION   2 PLS= 0.176E-02 0.000E+00 ENERGY      -95.255232 DELTAE   -0.1121871
 ITERATION   3 PLS= 0.764E-03 0.000E+00 ENERGY      -95.273791 DELTAE   -0.0185593
 ITERATION   4 PLS= 0.380E-03 0.000E+00 ENERGY      -95.283235 DELTAE   -0.0094435
 CYCLE:    43 TIME:   0.078 TIME LEFT:  2.00W  GRAD.:    13.054 HEAT: -95.27858
 ITERATION   1 PLS= 0.701E-04 0.000E+00 ENERGY      -95.309592 DELTAE -195.3095925
 ITERATION   2 PLS= 0.172E-02 0.000E+00 ENERGY      -95.326927 DELTAE   -0.0173340
 ITERATION   3 PLS= 0.629E-03 0.000E+00 ENERGY      -95.329165 DELTAE   -0.0022381
 ITERATION   4 PLS= 0.309E-03 0.000E+00 ENERGY      -95.330242 DELTAE   -0.0010771
 CYCLE:    44 TIME:   0.070 TIME LEFT:  2.00W  GRAD.:     5.886 HEAT: -95.32972
 ITERATION   1 PLS= 0.445E-04 0.000E+00 ENERGY      -95.350920 DELTAE -195.3509198
 ITERATION   2 PLS= 0.976E-03 0.000E+00 ENERGY      -95.362933 DELTAE   -0.0120135
 ITERATION   3 PLS= 0.506E-03 0.000E+00 ENERGY      -95.365050 DELTAE   -0.0021168
 ITERATION   4 PLS= 0.264E-03 0.000E+00 ENERGY      -95.366326 DELTAE   -0.0012760
 CYCLE:    45 TIME:   0.070 TIME LEFT:  2.00W  GRAD.:     6.105 HEAT: -95.36565
 ITERATION   1 PLS= 0.331E-04 0.000E+00 ENERGY      -95.353107 DELTAE -195.3531067
 ITERATION   2 PLS= 0.176E-02 0.000E+00 ENERGY      -95.392877 DELTAE   -0.0397702
 ITERATION   3 PLS= 0.914E-03 0.000E+00 ENERGY      -95.400319 DELTAE   -0.0074423
 ITERATION   4 PLS= 0.477E-03 0.000E+00 ENERGY      -95.404733 DELTAE   -0.0044142
 CYCLE:    46 TIME:   0.062 TIME LEFT:  2.00W  GRAD.:     7.300 HEAT: -95.40240
 ITERATION   1 PLS= 0.630E-04 0.000E+00 ENERGY      -95.356914 DELTAE -195.3569139
 ITERATION   2 PLS= 0.164E-02 0.000E+00 ENERGY      -95.464881 DELTAE   -0.1079674
 ITERATION   3 PLS= 0.834E-03 0.000E+00 ENERGY      -95.484738 DELTAE   -0.0198568
 ITERATION   4 PLS= 0.426E-03 0.000E+00 ENERGY      -95.496337 DELTAE   -0.0115993
 CYCLE:    47 TIME:   0.070 TIME LEFT:  2.00W  GRAD.:     6.640 HEAT: -95.49010
 ITERATION   1 PLS= 0.113E-03 0.000E+00 ENERGY      -95.315953 DELTAE -195.3159535
 ITERATION   2 PLS= 0.197E-02 0.000E+00 ENERGY      -95.519037 DELTAE   -0.2030838
 ITERATION   3 PLS= 0.939E-03 0.000E+00 ENERGY      -95.556484 DELTAE   -0.0374470
 ITERATION   4 PLS= 0.454E-03 0.000E+00 ENERGY      -95.580541 DELTAE   -0.0240571
 ITERATION   5 PLS= 0.123E-03 0.000E+00 ENERGY      -95.568554 DELTAE    0.0119869
 CYCLE:    48 TIME:   0.086 TIME LEFT:  2.00W  GRAD.:    16.457 HEAT: -95.56879
 ITERATION   1 PLS= 0.765E-04 0.000E+00 ENERGY      -95.589654 DELTAE -195.5896536
 ITERATION   2 PLS= 0.172E-02 0.000E+00 ENERGY      -95.622594 DELTAE   -0.0329403
 ITERATION   3 PLS= 0.797E-03 0.000E+00 ENERGY      -95.628011 DELTAE   -0.0054170
 ITERATION   4 PLS= 0.368E-03 0.000E+00 ENERGY      -95.632217 DELTAE   -0.0042059
 CYCLE:    49 TIME:   0.070 TIME LEFT:  2.00W  GRAD.:     4.743 HEAT: -95.63064
 ITERATION   1 PLS= 0.351E-04 0.000E+00 ENERGY      -95.629120 DELTAE -195.6291198
 ITERATION   2 PLS= 0.104E-02 0.000E+00 ENERGY      -95.633359 DELTAE   -0.0042396
 ITERATION   3 PLS= 0.547E-03 0.000E+00 ENERGY      -95.634195 DELTAE   -0.0008357
 ITERATION   4 PLS= 0.287E-03 0.000E+00 ENERGY      -95.634752 DELTAE   -0.0005567
 CYCLE:    50 TIME:   0.070 TIME LEFT:  2.00W  GRAD.:     3.201 HEAT: -95.63447
 ITERATION   1 PLS= 0.128E-04 0.000E+00 ENERGY      -95.608978 DELTAE -195.6089777
 ITERATION   2 PLS= 0.249E-02 0.000E+00 ENERGY      -95.627001 DELTAE   -0.0180235
 ITERATION   3 PLS= 0.131E-02 0.000E+00 ENERGY      -95.631013 DELTAE   -0.0040117
 ITERATION   4 PLS= 0.693E-03 0.000E+00 ENERGY      -95.633884 DELTAE   -0.0028708
 CYCLE:    51 TIME:   0.062 TIME LEFT:  2.00W  GRAD.:     4.482 HEAT: -95.63239
 ITERATION   1 PLS= 0.228E-04 0.000E+00 ENERGY      -95.389469 DELTAE -195.3894689
 ITERATION   2 PLS= 0.346E-02 0.000E+00 ENERGY      -95.468351 DELTAE   -0.0788822
 ITERATION   3 PLS= 0.183E-02 0.000E+00 ENERGY      -95.484315 DELTAE   -0.0159635
 ITERATION   4 PLS= 0.971E-03 0.000E+00 ENERGY      -95.494456 DELTAE   -0.0101414
 CYCLE:    52 TIME:   0.070 TIME LEFT:  2.00W  GRAD.:     6.465 HEAT: -95.48920
 ITERATION   1 PLS= 0.724E-04 0.000E+00 ENERGY      -95.249378 DELTAE -195.2493781
 ITERATION   2 PLS= 0.486E-02 0.000E+00 ENERGY      -95.481803 DELTAE   -0.2324248
 ITERATION   3 PLS= 0.252E-02 0.000E+00 ENERGY      -95.526878 DELTAE   -0.0450746
 ITERATION   4 PLS= 0.130E-02 0.000E+00 ENERGY      -95.554969 DELTAE   -0.0280915
 ITERATION   5 PLS= 0.140E-03 0.000E+00 ENERGY      -95.539579 DELTAE    0.0153903
 CYCLE:    53 TIME:   0.078 TIME LEFT:  2.00W  GRAD.:     8.122 HEAT: -95.53964
 ITERATION   1 PLS= 0.883E-04 0.000E+00 ENERGY      -95.234284 DELTAE -195.2342836
 ITERATION   2 PLS= 0.666E-02 0.000E+00 ENERGY      -95.542200 DELTAE   -0.3079169
 ITERATION   3 PLS= 0.346E-02 0.000E+00 ENERGY      -95.603372 DELTAE   -0.0611718
 ITERATION   4 PLS= 0.179E-02 0.000E+00 ENERGY      -95.641802 DELTAE   -0.0384302
 ITERATION   5 PLS= 0.167E-03 0.000E+00 ENERGY      -95.621167 DELTAE    0.0206352
 CYCLE:    54 TIME:   0.078 TIME LEFT:  2.00W  GRAD.:    11.472 HEAT: -95.62123
 ITERATION   1 PLS= 0.978E-04 0.000E+00 ENERGY      -95.118548 DELTAE -195.1185476
 ITERATION   2 PLS= 0.897E-02 0.000E+00 ENERGY      -95.570852 DELTAE   -0.4523043
 ITERATION   3 PLS= 0.469E-02 0.000E+00 ENERGY      -95.662766 DELTAE   -0.0919141
 ITERATION   4 PLS= 0.244E-02 0.000E+00 ENERGY      -95.721856 DELTAE   -0.0590898
 ITERATION   5 PLS= 0.198E-03 0.000E+00 ENERGY      -95.690124 DELTAE    0.0317320
 CYCLE:    55 TIME:   0.086 TIME LEFT:  2.00W  GRAD.:     9.791 HEAT: -95.69023
 ITERATION   1 PLS= 0.131E-03 0.000E+00 ENERGY      -94.860699 DELTAE -194.8606993
 ITERATION   2 PLS= 0.110E-01 0.000E+00 ENERGY      -95.535138 DELTAE   -0.6744388
 ITERATION   3 PLS= 0.569E-02 0.000E+00 ENERGY      -95.671672 DELTAE   -0.1365341
 ITERATION   4 PLS= 0.294E-02 0.000E+00 ENERGY      -95.758013 DELTAE   -0.0863411
 ITERATION   5 PLS= 0.250E-03 0.000E+00 ENERGY      -95.712121 DELTAE    0.0458921
 CYCLE:    56 TIME:   0.086 TIME LEFT:  2.00W  GRAD.:    10.362 HEAT: -95.71226
 ITERATION   1 PLS= 0.156E-03 0.000E+00 ENERGY      -94.474588 DELTAE -194.4745885
 ITERATION   2 PLS= 0.143E-01 0.000E+00 ENERGY      -95.631486 DELTAE   -1.1568975
 ITERATION   3 PLS= 0.720E-02 0.000E+00 ENERGY      -95.861430 DELTAE   -0.2299445
 ITERATION   4 PLS= 0.365E-02 0.000E+00 ENERGY      -96.006001 DELTAE   -0.1445708
 ITERATION   5 PLS= 0.328E-03 0.000E+00 ENERGY      -95.931456 DELTAE    0.0745449
 CYCLE:    57 TIME:   0.078 TIME LEFT:  2.00W  GRAD.:    22.940 HEAT: -95.93168
 ITERATION   1 PLS= 0.234E-03 0.000E+00 ENERGY      -95.563071 DELTAE -195.5630707
 ITERATION   2 PLS= 0.649E-02 0.000E+00 ENERGY      -95.862995 DELTAE   -0.2999244
 ITERATION   3 PLS= 0.346E-02 0.000E+00 ENERGY      -95.912845 DELTAE   -0.0498494
 ITERATION   4 PLS= 0.182E-02 0.000E+00 ENERGY      -95.942350 DELTAE   -0.0295055
 ITERATION   5 PLS= 0.145E-03 0.000E+00 ENERGY      -95.927725 DELTAE    0.0146249
 CYCLE:    58 TIME:   0.086 TIME LEFT:  2.00W  GRAD.:    17.503 HEAT: -95.92784
 ITERATION   1 PLS= 0.113E-03 0.000E+00 ENERGY      -95.526783 DELTAE -195.5267825
 ITERATION   2 PLS= 0.727E-02 0.000E+00 ENERGY      -95.955358 DELTAE   -0.4285755
 ITERATION   3 PLS= 0.404E-02 0.000E+00 ENERGY      -96.036758 DELTAE   -0.0813999
 ITERATION   4 PLS= 0.219E-02 0.000E+00 ENERGY      -96.086032 DELTAE   -0.0492738
 ITERATION   5 PLS= 0.219E-03 0.000E+00 ENERGY      -96.059829 DELTAE    0.0262029
 CYCLE:    59 TIME:   0.086 TIME LEFT:  2.00W  GRAD.:    10.461 HEAT: -96.05993
 ITERATION   1 PLS= 0.109E-03 0.000E+00 ENERGY      -95.424768 DELTAE -195.4247676
 ITERATION   2 PLS= 0.826E-02 0.000E+00 ENERGY      -95.865712 DELTAE   -0.4409443
 ITERATION   3 PLS= 0.429E-02 0.000E+00 ENERGY      -95.949922 DELTAE   -0.0842102
 ITERATION   4 PLS= 0.222E-02 0.000E+00 ENERGY      -96.000847 DELTAE   -0.0509253
 ITERATION   5 PLS= 0.162E-03 0.000E+00 ENERGY      -95.974440 DELTAE    0.0264069
 CYCLE:    60 TIME:   0.094 TIME LEFT:  2.00W  GRAD.:    16.650 HEAT: -95.97452
 ITERATION   1 PLS= 0.917E-04 0.000E+00 ENERGY      -94.961653 DELTAE -194.9616528
 ITERATION   2 PLS= 0.130E-01 0.000E+00 ENERGY      -95.896018 DELTAE   -0.9343657
 ITERATION   3 PLS= 0.682E-02 0.000E+00 ENERGY      -96.083554 DELTAE   -0.1875360
 ITERATION   4 PLS= 0.357E-02 0.000E+00 ENERGY      -96.199972 DELTAE   -0.1164175
 ITERATION   5 PLS= 0.260E-03 0.000E+00 ENERGY      -96.138606 DELTAE    0.0613659
 CYCLE:    61 TIME:   0.094 TIME LEFT:  2.00W  GRAD.:    10.903 HEAT: -96.13879
 ITERATION   1 PLS= 0.160E-03 0.000E+00 ENERGY      -95.419736 DELTAE -195.4197363
 ITERATION   2 PLS= 0.919E-02 0.000E+00 ENERGY      -96.052350 DELTAE   -0.6326132
 ITERATION   3 PLS= 0.486E-02 0.000E+00 ENERGY      -96.176346 DELTAE   -0.1239967
 ITERATION   4 PLS= 0.257E-02 0.000E+00 ENERGY      -96.251475 DELTAE   -0.0751285
 ITERATION   5 PLS= 0.224E-03 0.000E+00 ENERGY      -96.212190 DELTAE    0.0392852
 CYCLE:    62 TIME:   0.102 TIME LEFT:  2.00W  GRAD.:    11.652 HEAT: -96.21232
 ITERATION   1 PLS= 0.131E-03 0.000E+00 ENERGY      -96.143756 DELTAE -196.1437556
 ITERATION   2 PLS= 0.232E-02 0.000E+00 ENERGY      -96.273753 DELTAE   -0.1299973
 ITERATION   3 PLS= 0.117E-02 0.000E+00 ENERGY      -96.297751 DELTAE   -0.0239983
 ITERATION   4 PLS= 0.596E-03 0.000E+00 ENERGY      -96.312697 DELTAE   -0.0149455
 CYCLE:    63 TIME:   0.070 TIME LEFT:  2.00W  GRAD.:    12.317 HEAT: -96.30455
 ITERATION   1 PLS= 0.948E-04 0.000E+00 ENERGY      -93.933361 DELTAE -193.9333614
 ITERATION   2 PLS= 0.120E-01 0.000E+00 ENERGY      -95.965511 DELTAE   -2.0321493
 ITERATION   3 PLS= 0.628E-02 0.000E+00 ENERGY      -96.358275 DELTAE   -0.3927643
 ITERATION   4 PLS= 0.329E-02 0.000E+00 ENERGY      -96.592500 DELTAE   -0.2342253
 ITERATION   5 PLS= 0.401E-03 0.000E+00 ENERGY      -96.468901 DELTAE    0.1235996
 ITERATION   6 PLS= 0.240E-03 0.000E+00 ENERGY      -96.469317 DELTAE   -0.0004166
 CYCLE:    64 TIME:   0.094 TIME LEFT:  2.00W  GRAD.:    15.690 HEAT: -96.46975
 ITERATION   1 PLS= 0.149E-03 0.000E+00 ENERGY      -96.030636 DELTAE -196.0306361
 ITERATION   2 PLS= 0.729E-02 0.000E+00 ENERGY      -96.457785 DELTAE   -0.4271486
 ITERATION   3 PLS= 0.426E-02 0.000E+00 ENERGY      -96.535897 DELTAE   -0.0781124
 ITERATION   4 PLS= 0.241E-02 0.000E+00 ENERGY      -96.588352 DELTAE   -0.0524548
 ITERATION   5 PLS= 0.380E-03 0.000E+00 ENERGY      -96.558958 DELTAE    0.0293943
 CYCLE:    65 TIME:   0.086 TIME LEFT:  2.00W  GRAD.:    23.191 HEAT: -96.55911
 ITERATION   1 PLS= 0.170E-03 0.000E+00 ENERGY      -95.421695 DELTAE -195.4216952
 ITERATION   2 PLS= 0.101E-01 0.000E+00 ENERGY      -96.579791 DELTAE   -1.1580959
 ITERATION   3 PLS= 0.487E-02 0.000E+00 ENERGY      -96.799751 DELTAE   -0.2199598
 ITERATION   4 PLS= 0.237E-02 0.000E+00 ENERGY      -96.926425 DELTAE   -0.1266738
 ITERATION   5 PLS= 0.290E-03 0.000E+00 ENERGY      -96.860474 DELTAE    0.0659507
 CYCLE:    66 TIME:   0.078 TIME LEFT:  2.00W  GRAD.:    11.993 HEAT: -96.86069
 ITERATION   1 PLS= 0.192E-03 0.000E+00 ENERGY      -94.132189 DELTAE -194.1321890
 ITERATION   2 PLS= 0.169E-01 0.000E+00 ENERGY      -96.595270 DELTAE   -2.4630814
 ITERATION   3 PLS= 0.823E-02 0.000E+00 ENERGY      -97.066257 DELTAE   -0.4709869
 ITERATION   4 PLS= 0.405E-02 0.000E+00 ENERGY      -97.336017 DELTAE   -0.2697593
 ITERATION   5 PLS= 0.443E-03 0.000E+00 ENERGY      -97.196352 DELTAE    0.1396649
 ITERATION   6 PLS= 0.279E-03 0.000E+00 ENERGY      -97.196821 DELTAE   -0.0004698
 CYCLE:    67 TIME:   0.094 TIME LEFT:  2.00W  GRAD.:    15.975 HEAT: -97.19737
 ITERATION   1 PLS= 0.177E-03 0.000E+00 ENERGY      -96.886296 DELTAE -196.8862961
 ITERATION   2 PLS= 0.551E-02 0.000E+00 ENERGY      -97.093594 DELTAE   -0.2072979
 ITERATION   3 PLS= 0.333E-02 0.000E+00 ENERGY      -97.130032 DELTAE   -0.0364378
 ITERATION   4 PLS= 0.187E-02 0.000E+00 ENERGY      -97.151732 DELTAE   -0.0216998
 ITERATION   5 PLS= 0.265E-03 0.000E+00 ENERGY      -97.141030 DELTAE    0.0107015
 CYCLE:    68 TIME:   0.070 TIME LEFT:  2.00W  GRAD.:    21.045 HEAT: -97.14107
 ITERATION   1 PLS= 0.107E-03 0.000E+00 ENERGY      -95.105613 DELTAE -195.1056126
 ITERATION   2 PLS= 0.132E-01 0.000E+00 ENERGY      -96.897681 DELTAE   -1.7920682
 ITERATION   3 PLS= 0.606E-02 0.000E+00 ENERGY      -97.230085 DELTAE   -0.3324044
 ITERATION   4 PLS= 0.283E-02 0.000E+00 ENERGY      -97.415230 DELTAE   -0.1851446
 ITERATION   5 PLS= 0.341E-03 0.000E+00 ENERGY      -97.318869 DELTAE    0.0963606
 CYCLE:    69 TIME:   0.078 TIME LEFT:  2.00W  GRAD.:    13.237 HEAT: -97.31922
 ITERATION   1 PLS= 0.218E-03 0.000E+00 ENERGY      -92.868661 DELTAE -192.8686609
 ITERATION   2 PLS= 0.219E-01 0.000E+00 ENERGY      -96.690295 DELTAE   -3.8216336
 ITERATION   3 PLS= 0.991E-02 0.000E+00 ENERGY      -97.402116 DELTAE   -0.7118210
 ITERATION   4 PLS= 0.478E-02 0.000E+00 ENERGY      -97.791502 DELTAE   -0.3893863
 ITERATION   5 PLS= 0.517E-03 0.000E+00 ENERGY      -97.592659 DELTAE    0.1988425
 ITERATION   6 PLS= 0.328E-03 0.000E+00 ENERGY      -97.593341 DELTAE   -0.0006816
 CYCLE:    70 TIME:   0.086 TIME LEFT:  2.00W  GRAD.:    18.598 HEAT: -97.59414
 ITERATION   1 PLS= 0.210E-03 0.000E+00 ENERGY      -97.402064 DELTAE -197.4020643
 ITERATION   2 PLS= 0.707E-02 0.000E+00 ENERGY      -97.728297 DELTAE   -0.3262330
 ITERATION   3 PLS= 0.425E-02 0.000E+00 ENERGY      -97.791617 DELTAE   -0.0633194
 ITERATION   4 PLS= 0.232E-02 0.000E+00 ENERGY      -97.834308 DELTAE   -0.0426916
 ITERATION   5 PLS= 0.106E-03 0.000E+00 ENERGY      -97.811732 DELTAE    0.0225765
 CYCLE:    71 TIME:   0.086 TIME LEFT:  2.00W  GRAD.:    23.090 HEAT: -97.81180
 ITERATION   1 PLS= 0.610E-04 0.000E+00 ENERGY      -96.203228 DELTAE -196.2032285
 ITERATION   2 PLS= 0.139E-01 0.000E+00 ENERGY      -97.675461 DELTAE   -1.4722323
 ITERATION   3 PLS= 0.703E-02 0.000E+00 ENERGY      -97.950216 DELTAE   -0.2747548
 ITERATION   4 PLS= 0.353E-02 0.000E+00 ENERGY      -98.098413 DELTAE   -0.1481972
 ITERATION   5 PLS= 0.320E-03 0.000E+00 ENERGY      -98.022809 DELTAE    0.0756034
 CYCLE:    72 TIME:   0.094 TIME LEFT:  2.00W  GRAD.:    18.279 HEAT: -98.02304
 ITERATION   1 PLS= 0.191E-03 0.000E+00 ENERGY      -97.983317 DELTAE -197.9833166
 ITERATION   2 PLS= 0.388E-02 0.000E+00 ENERGY      -98.148866 DELTAE   -0.1655498
 ITERATION   3 PLS= 0.192E-02 0.000E+00 ENERGY      -98.179006 DELTAE   -0.0301396
 ITERATION   4 PLS= 0.942E-03 0.000E+00 ENERGY      -98.195255 DELTAE   -0.0162487
 CYCLE:    73 TIME:   0.102 TIME LEFT:  2.00W  GRAD.:    11.607 HEAT: -98.18687
 ITERATION   1 PLS= 0.102E-03 0.000E+00 ENERGY      -97.527332 DELTAE -197.5273320
 ITERATION   2 PLS= 0.775E-02 0.000E+00 ENERGY      -98.149472 DELTAE   -0.6221399
 ITERATION   3 PLS= 0.381E-02 0.000E+00 ENERGY      -98.265043 DELTAE   -0.1155714
 ITERATION   4 PLS= 0.187E-02 0.000E+00 ENERGY      -98.324760 DELTAE   -0.0597165
 ITERATION   5 PLS= 0.187E-03 0.000E+00 ENERGY      -98.294809 DELTAE    0.0299508
 CYCLE:    74 TIME:   0.086 TIME LEFT:  2.00W  GRAD.:    13.839 HEAT: -98.29490
 ITERATION   1 PLS= 0.121E-03 0.000E+00 ENERGY      -97.846751 DELTAE -197.8467512
 ITERATION   2 PLS= 0.641E-02 0.000E+00 ENERGY      -98.168245 DELTAE   -0.3214935
 ITERATION   3 PLS= 0.253E-02 0.000E+00 ENERGY      -98.220127 DELTAE   -0.0518822
 ITERATION   4 PLS= 0.153E-02 0.000E+00 ENERGY      -98.254774 DELTAE   -0.0346469
 ITERATION   5 PLS= 0.288E-03 0.000E+00 ENERGY      -98.236301 DELTAE    0.0184729
 CYCLE:    75 TIME:   0.102 TIME LEFT:  2.00W  GRAD.:    24.701 HEAT: -98.23640
 ITERATION   1 PLS= 0.160E-03 0.000E+00 ENERGY      -97.031601 DELTAE -197.0316011
 ITERATION   2 PLS= 0.101E-01 0.000E+00 ENERGY      -98.276752 DELTAE   -1.2451507
 ITERATION   3 PLS= 0.469E-02 0.000E+00 ENERGY      -98.500613 DELTAE   -0.2238609
 ITERATION   4 PLS= 0.236E-02 0.000E+00 ENERGY      -98.614610 DELTAE   -0.1139970
 ITERATION   5 PLS= 0.272E-03 0.000E+00 ENERGY      -98.558323 DELTAE    0.0562869
 CYCLE:    76 TIME:   0.109 TIME LEFT:  2.00W  GRAD.:    14.168 HEAT: -98.55851
 ITERATION   1 PLS= 0.167E-03 0.000E+00 ENERGY      -98.627633 DELTAE -198.6276328
 ITERATION   2 PLS= 0.218E-02 0.000E+00 ENERGY      -98.678455 DELTAE   -0.0508226
 ITERATION   3 PLS= 0.108E-02 0.000E+00 ENERGY      -98.687343 DELTAE   -0.0088879
 ITERATION   4 PLS= 0.547E-03 0.000E+00 ENERGY      -98.692189 DELTAE   -0.0048462
 CYCLE:    77 TIME:   0.078 TIME LEFT:  2.00W  GRAD.:     9.952 HEAT: -98.68985
 ITERATION   1 PLS= 0.493E-04 0.000E+00 ENERGY      -98.666006 DELTAE -198.6660062
 ITERATION   2 PLS= 0.355E-02 0.000E+00 ENERGY      -98.783491 DELTAE   -0.1174845
 ITERATION   3 PLS= 0.181E-02 0.000E+00 ENERGY      -98.805185 DELTAE   -0.0216946
 ITERATION   4 PLS= 0.934E-03 0.000E+00 ENERGY      -98.817402 DELTAE   -0.0122169
 CYCLE:    78 TIME:   0.078 TIME LEFT:  2.00W  GRAD.:     9.900 HEAT: -98.81082
 ITERATION   1 PLS= 0.684E-04 0.000E+00 ENERGY      -97.979533 DELTAE -197.9795331
 ITERATION   2 PLS= 0.861E-02 0.000E+00 ENERGY      -98.813556 DELTAE   -0.8340232
 ITERATION   3 PLS= 0.410E-02 0.000E+00 ENERGY      -98.967530 DELTAE   -0.1539734
 ITERATION   4 PLS= 0.201E-02 0.000E+00 ENERGY      -99.046968 DELTAE   -0.0794379
 ITERATION   5 PLS= 0.168E-03 0.000E+00 ENERGY      -99.006019 DELTAE    0.0409490
 CYCLE:    79 TIME:   0.078 TIME LEFT:  2.00W  GRAD.:    11.884 HEAT: -99.00614
 ITERATION   1 PLS= 0.985E-04 0.000E+00 ENERGY      -98.106397 DELTAE -198.1063967
 ITERATION   2 PLS= 0.681E-02 0.000E+00 ENERGY      -98.738789 DELTAE   -0.6323923
 ITERATION   3 PLS= 0.343E-02 0.000E+00 ENERGY      -98.849141 DELTAE   -0.1103523
 ITERATION   4 PLS= 0.173E-02 0.000E+00 ENERGY      -98.908359 DELTAE   -0.0592179
 ITERATION   5 PLS= 0.160E-03 0.000E+00 ENERGY      -98.877471 DELTAE    0.0308878
 CYCLE:    80 TIME:   0.078 TIME LEFT:  2.00W  GRAD.:    37.378 HEAT: -98.87759
 ITERATION   1 PLS= 0.104E-03 0.000E+00 ENERGY      -98.879977 DELTAE -198.8799765
 ITERATION   2 PLS= 0.224E-02 0.000E+00 ENERGY      -99.031007 DELTAE   -0.1510308
 ITERATION   3 PLS= 0.101E-02 0.000E+00 ENERGY      -99.053509 DELTAE   -0.0225015
 ITERATION   4 PLS= 0.525E-03 0.000E+00 ENERGY      -99.065444 DELTAE   -0.0119353
 CYCLE:    81 TIME:   0.070 TIME LEFT:  2.00W  GRAD.:     8.306 HEAT: -99.05888
 ITERATION   1 PLS= 0.105E-03 0.000E+00 ENERGY      -99.069039 DELTAE -199.0690386
 ITERATION   2 PLS= 0.236E-02 0.000E+00 ENERGY      -99.163604 DELTAE   -0.0945653
 ITERATION   3 PLS= 0.123E-02 0.000E+00 ENERGY      -99.180590 DELTAE   -0.0169862
 ITERATION   4 PLS= 0.638E-03 0.000E+00 ENERGY      -99.189356 DELTAE   -0.0087663
 CYCLE:    82 TIME:   0.062 TIME LEFT:  2.00W  GRAD.:     6.068 HEAT: -99.18497
 ITERATION   1 PLS= 0.819E-04 0.000E+00 ENERGY      -98.844810 DELTAE -198.8448104
 ITERATION   2 PLS= 0.357E-02 0.000E+00 ENERGY      -98.964310 DELTAE   -0.1194992
 ITERATION   3 PLS= 0.184E-02 0.000E+00 ENERGY      -98.987419 DELTAE   -0.0231091
 ITERATION   4 PLS= 0.973E-03 0.000E+00 ENERGY      -99.000944 DELTAE   -0.0135254
 CYCLE:    83 TIME:   0.070 TIME LEFT:  2.00W  GRAD.:     7.618 HEAT: -98.99366
 ITERATION   1 PLS= 0.637E-04 0.000E+00 ENERGY      -97.554719 DELTAE -197.5547187
 ITERATION   2 PLS= 0.120E-01 0.000E+00 ENERGY      -98.779591 DELTAE   -1.2248726
 ITERATION   3 PLS= 0.588E-02 0.000E+00 ENERGY      -99.014653 DELTAE   -0.2350614
 ITERATION   4 PLS= 0.291E-02 0.000E+00 ENERGY      -99.142811 DELTAE   -0.1281579
 ITERATION   5 PLS= 0.190E-03 0.000E+00 ENERGY      -99.076499 DELTAE    0.0663120
 CYCLE:    84 TIME:   0.094 TIME LEFT:  2.00W  GRAD.:    12.236 HEAT: -99.07668
 ITERATION   1 PLS= 0.120E-03 0.000E+00 ENERGY      -97.467317 DELTAE -197.4673166
 ITERATION   2 PLS= 0.127E-01 0.000E+00 ENERGY      -98.730833 DELTAE   -1.2635166
 ITERATION   3 PLS= 0.637E-02 0.000E+00 ENERGY      -98.952406 DELTAE   -0.2215730
 ITERATION   4 PLS= 0.323E-02 0.000E+00 ENERGY      -99.073879 DELTAE   -0.1214729
 ITERATION   5 PLS= 0.264E-03 0.000E+00 ENERGY      -99.013355 DELTAE    0.0605243
 CYCLE:    85 TIME:   0.102 TIME LEFT:  2.00W  GRAD.:    42.633 HEAT: -99.01354
 ITERATION   1 PLS= 0.198E-03 0.000E+00 ENERGY      -98.785772 DELTAE -198.7857723
 ITERATION   2 PLS= 0.731E-02 0.000E+00 ENERGY      -99.187825 DELTAE   -0.4020523
 ITERATION   3 PLS= 0.256E-02 0.000E+00 ENERGY      -99.246838 DELTAE   -0.0590129
 ITERATION   4 PLS= 0.123E-02 0.000E+00 ENERGY      -99.275009 DELTAE   -0.0281714
 ITERATION   5 PLS= 0.183E-03 0.000E+00 ENERGY      -99.261495 DELTAE    0.0135139
 CYCLE:    86 TIME:   0.078 TIME LEFT:  2.00W  GRAD.:    11.460 HEAT: -99.26155
 ITERATION   1 PLS= 0.145E-03 0.000E+00 ENERGY      -98.994177 DELTAE -198.9941772
 ITERATION   2 PLS= 0.484E-02 0.000E+00 ENERGY      -99.256334 DELTAE   -0.2621573
 ITERATION   3 PLS= 0.221E-02 0.000E+00 ENERGY      -99.303130 DELTAE   -0.0467950
 ITERATION   4 PLS= 0.104E-02 0.000E+00 ENERGY      -99.326132 DELTAE   -0.0230027
 ITERATION   5 PLS= 0.921E-04 0.000E+00 ENERGY      -99.314783 DELTAE    0.0113495
 CYCLE:    87 TIME:   0.078 TIME LEFT:  2.00W  GRAD.:     8.470 HEAT: -99.31481
 ITERATION   1 PLS= 0.332E-04 0.000E+00 ENERGY      -99.266446 DELTAE -199.2664461
 ITERATION   2 PLS= 0.431E-02 0.000E+00 ENERGY      -99.359683 DELTAE   -0.0932370
 ITERATION   3 PLS= 0.225E-02 0.000E+00 ENERGY      -99.379247 DELTAE   -0.0195641
 ITERATION   4 PLS= 0.118E-02 0.000E+00 ENERGY      -99.391235 DELTAE   -0.0119880
 CYCLE:    88 TIME:   0.086 TIME LEFT:  2.00W  GRAD.:     8.593 HEAT: -99.38513
 ITERATION   1 PLS= 0.566E-04 0.000E+00 ENERGY      -98.097233 DELTAE -198.0972328
 ITERATION   2 PLS= 0.142E-01 0.000E+00 ENERGY      -99.211652 DELTAE   -1.1144191
 ITERATION   3 PLS= 0.711E-02 0.000E+00 ENERGY      -99.431884 DELTAE   -0.2202319
 ITERATION   4 PLS= 0.359E-02 0.000E+00 ENERGY      -99.556853 DELTAE   -0.1249691
 ITERATION   5 PLS= 0.132E-03 0.000E+00 ENERGY      -99.492085 DELTAE    0.0647676
 CYCLE:    89 TIME:   0.102 TIME LEFT:  2.00W  GRAD.:     9.128 HEAT: -99.49224
 ITERATION   1 PLS= 0.858E-04 0.000E+00 ENERGY      -97.103705 DELTAE -197.1037052
 ITERATION   2 PLS= 0.162E-01 0.000E+00 ENERGY      -98.838132 DELTAE   -1.7344268
 ITERATION   3 PLS= 0.816E-02 0.000E+00 ENERGY      -99.173307 DELTAE   -0.3351750
 ITERATION   4 PLS= 0.417E-02 0.000E+00 ENERGY      -99.364056 DELTAE   -0.1907488
 ITERATION   5 PLS= 0.284E-03 0.000E+00 ENERGY      -99.266871 DELTAE    0.0971845
 CYCLE:    90 TIME:   0.109 TIME LEFT:  2.00W  GRAD.:    32.787 HEAT: -99.26745
 ITERATION   1 PLS= 0.201E-03 0.000E+00 ENERGY      -99.179430 DELTAE -199.1794304
 ITERATION   2 PLS= 0.446E-02 0.000E+00 ENERGY      -99.432343 DELTAE   -0.2529121
 ITERATION   3 PLS= 0.214E-02 0.000E+00 ENERGY      -99.475567 DELTAE   -0.0432245
 ITERATION   4 PLS= 0.105E-02 0.000E+00 ENERGY      -99.498668 DELTAE   -0.0231005
 ITERATION   5 PLS= 0.164E-03 0.000E+00 ENERGY      -99.486996 DELTAE    0.0116717
 CYCLE:    91 TIME:   0.117 TIME LEFT:  2.00W  GRAD.:     6.778 HEAT: -99.48712
 ITERATION   1 PLS= 0.109E-03 0.000E+00 ENERGY      -99.320539 DELTAE -199.3205387
 ITERATION   2 PLS= 0.351E-02 0.000E+00 ENERGY      -99.461790 DELTAE   -0.1412516
 ITERATION   3 PLS= 0.164E-02 0.000E+00 ENERGY      -99.488194 DELTAE   -0.0264042
 ITERATION   4 PLS= 0.780E-03 0.000E+00 ENERGY      -99.503072 DELTAE   -0.0148771
 CYCLE:    92 TIME:   0.070 TIME LEFT:  2.00W  GRAD.:     5.546 HEAT: -99.49512
 ITERATION   1 PLS= 0.106E-03 0.000E+00 ENERGY      -99.453441 DELTAE -199.4534414
 ITERATION   2 PLS= 0.220E-02 0.000E+00 ENERGY      -99.520200 DELTAE   -0.0667581
 ITERATION   3 PLS= 0.116E-02 0.000E+00 ENERGY      -99.532848 DELTAE   -0.0126487
 ITERATION   4 PLS= 0.603E-03 0.000E+00 ENERGY      -99.539574 DELTAE   -0.0067255
 CYCLE:    93 TIME:   0.086 TIME LEFT:  2.00W  GRAD.:     5.368 HEAT: -99.53630
 ITERATION   1 PLS= 0.513E-04 0.000E+00 ENERGY      -99.262368 DELTAE -199.2623685
 ITERATION   2 PLS= 0.385E-02 0.000E+00 ENERGY      -99.545395 DELTAE   -0.2830265
 ITERATION   3 PLS= 0.166E-02 0.000E+00 ENERGY      -99.597967 DELTAE   -0.0525724
 ITERATION   4 PLS= 0.838E-03 0.000E+00 ENERGY      -99.624103 DELTAE   -0.0261352
 ITERATION   5 PLS= 0.631E-04 0.000E+00 ENERGY      -99.611511 DELTAE    0.0125913
 CYCLE:    94 TIME:   0.094 TIME LEFT:  2.00W  GRAD.:     8.359 HEAT: -99.61155
 ITERATION   1 PLS= 0.414E-04 0.000E+00 ENERGY      -98.468436 DELTAE -198.4684362
 ITERATION   2 PLS= 0.606E-02 0.000E+00 ENERGY      -99.409418 DELTAE   -0.9409818
 ITERATION   3 PLS= 0.281E-02 0.000E+00 ENERGY      -99.581775 DELTAE   -0.1723573
 ITERATION   4 PLS= 0.135E-02 0.000E+00 ENERGY      -99.668552 DELTAE   -0.0867765
 ITERATION   5 PLS= 0.126E-03 0.000E+00 ENERGY      -99.625518 DELTAE    0.0430335
 CYCLE:    95 TIME:   0.078 TIME LEFT:  2.00W  GRAD.:    13.955 HEAT: -99.62571
 ITERATION   1 PLS= 0.801E-04 0.000E+00 ENERGY      -99.662602 DELTAE -199.6626021
 ITERATION   2 PLS= 0.938E-03 0.000E+00 ENERGY      -99.693169 DELTAE   -0.0305673
 ITERATION   3 PLS= 0.473E-03 0.000E+00 ENERGY      -99.698162 DELTAE   -0.0049931
 ITERATION   4 PLS= 0.239E-03 0.000E+00 ENERGY      -99.700795 DELTAE   -0.0026330
 CYCLE:    96 TIME:   0.070 TIME LEFT:  2.00W  GRAD.:     6.574 HEAT: -99.69946
 ITERATION   1 PLS= 0.520E-04 0.000E+00 ENERGY      -99.629501 DELTAE -199.6295012
 ITERATION   2 PLS= 0.477E-02 0.000E+00 ENERGY      -99.713683 DELTAE   -0.0841815
 ITERATION   3 PLS= 0.237E-02 0.000E+00 ENERGY      -99.731011 DELTAE   -0.0173285
 ITERATION   4 PLS= 0.119E-02 0.000E+00 ENERGY      -99.741827 DELTAE   -0.0108155
 CYCLE:    97 TIME:   0.078 TIME LEFT:  2.00W  GRAD.:     7.966 HEAT: -99.73630
 ITERATION   1 PLS= 0.581E-04 0.000E+00 ENERGY      -99.352680 DELTAE -199.3526803
 ITERATION   2 PLS= 0.284E-02 0.000E+00 ENERGY      -99.736478 DELTAE   -0.3837977
 ITERATION   3 PLS= 0.145E-02 0.000E+00 ENERGY      -99.805325 DELTAE   -0.0688473
 ITERATION   4 PLS= 0.724E-03 0.000E+00 ENERGY      -99.840660 DELTAE   -0.0353346
 ITERATION   5 PLS= 0.104E-03 0.000E+00 ENERGY      -99.822000 DELTAE    0.0186601
 CYCLE:    98 TIME:   0.094 TIME LEFT:  2.00W  GRAD.:     9.959 HEAT: -99.82206
 ITERATION   1 PLS= 0.471E-04 0.000E+00 ENERGY      -99.078107 DELTAE -199.0781066
 ITERATION   2 PLS= 0.350E-02 0.000E+00 ENERGY      -99.718665 DELTAE   -0.6405588
 ITERATION   3 PLS= 0.161E-02 0.000E+00 ENERGY      -99.834262 DELTAE   -0.1155968
 ITERATION   4 PLS= 0.761E-03 0.000E+00 ENERGY      -99.894114 DELTAE   -0.0598523
 ITERATION   5 PLS= 0.104E-03 0.000E+00 ENERGY      -99.862931 DELTAE    0.0311835
 CYCLE:    99 TIME:   0.086 TIME LEFT:  2.00W  GRAD.:    11.767 HEAT: -99.86302
 ITERATION   1 PLS= 0.676E-04 0.000E+00 ENERGY      -99.660689 DELTAE -199.6606893
 ITERATION   2 PLS= 0.571E-02 0.000E+00 ENERGY      -99.858255 DELTAE   -0.1975662
 ITERATION   3 PLS= 0.301E-02 0.000E+00 ENERGY      -99.898363 DELTAE   -0.0401074
 ITERATION   4 PLS= 0.158E-02 0.000E+00 ENERGY      -99.925076 DELTAE   -0.0267134
 ITERATION   5 PLS= 0.101E-03 0.000E+00 ENERGY      -99.910946 DELTAE    0.0141300
 CYCLE:   100 TIME:   0.078 TIME LEFT:  2.00W  GRAD.:     9.113 HEAT: -99.91100
 ITERATION   1 PLS= 0.526E-04 0.000E+00 ENERGY      -99.901023 DELTAE -199.9010232
 ITERATION   2 PLS= 0.499E-02 0.000E+00 ENERGY      -99.978549 DELTAE   -0.0775258
 ITERATION   3 PLS= 0.247E-02 0.000E+00 ENERGY      -99.995594 DELTAE   -0.0170447
 ITERATION   4 PLS= 0.127E-02 0.000E+00 ENERGY     -100.007934 DELTAE   -0.0123403
 CYCLE:   101 TIME:   0.102 TIME LEFT:  2.00W  GRAD.:     9.380 HEAT: -100.0016
 ITERATION   1 PLS= 0.988E-04 0.000E+00 ENERGY      -99.603165 DELTAE -199.6031649
 ITERATION   2 PLS= 0.835E-02 0.000E+00 ENERGY     -100.021415 DELTAE   -0.4182504
 ITERATION   3 PLS= 0.428E-02 0.000E+00 ENERGY     -100.104825 DELTAE   -0.0834095
 ITERATION   4 PLS= 0.220E-02 0.000E+00 ENERGY     -100.156724 DELTAE   -0.0518996
 ITERATION   5 PLS= 0.139E-03 0.000E+00 ENERGY     -100.129519 DELTAE    0.0272053
 CYCLE:   102 TIME:   0.141 TIME LEFT:  2.00W  GRAD.:    12.595 HEAT: -100.1296
 ITERATION   1 PLS= 0.875E-04 0.000E+00 ENERGY      -98.732900 DELTAE -198.7329005
 ITERATION   2 PLS= 0.137E-01 0.000E+00 ENERGY      -99.861094 DELTAE   -1.1281936
 ITERATION   3 PLS= 0.670E-02 0.000E+00 ENERGY     -100.075409 DELTAE   -0.2143151
 ITERATION   4 PLS= 0.331E-02 0.000E+00 ENERGY     -100.200324 DELTAE   -0.1249144
 ITERATION   5 PLS= 0.257E-03 0.000E+00 ENERGY     -100.136041 DELTAE    0.0642826
 CYCLE:   103 TIME:   0.102 TIME LEFT:  2.00W  GRAD.:    18.337 HEAT: -100.1362
 ITERATION   1 PLS= 0.154E-03 0.000E+00 ENERGY     -100.172943 DELTAE -200.1729430
 ITERATION   2 PLS= 0.502E-02 0.000E+00 ENERGY     -100.265939 DELTAE   -0.0929957
 ITERATION   3 PLS= 0.253E-02 0.000E+00 ENERGY     -100.282914 DELTAE   -0.0169753
 ITERATION   4 PLS= 0.129E-02 0.000E+00 ENERGY     -100.292854 DELTAE   -0.0099397
 CYCLE:   104 TIME:   0.133 TIME LEFT:  2.00W  GRAD.:     8.525 HEAT: -100.2880
 ITERATION   1 PLS= 0.638E-04 0.000E+00 ENERGY     -100.278373 DELTAE -200.2783730
 ITERATION   2 PLS= 0.236E-02 0.000E+00 ENERGY     -100.330691 DELTAE   -0.0523182
 ITERATION   3 PLS= 0.993E-03 0.000E+00 ENERGY     -100.340094 DELTAE   -0.0094024
 ITERATION   4 PLS= 0.552E-03 0.000E+00 ENERGY     -100.345807 DELTAE   -0.0057136
 CYCLE:   105 TIME:   0.109 TIME LEFT:  2.00W  GRAD.:     7.937 HEAT: -100.3429
 ITERATION   1 PLS= 0.969E-04 0.000E+00 ENERGY     -100.154815 DELTAE -200.1548149
 ITERATION   2 PLS= 0.733E-02 0.000E+00 ENERGY     -100.462563 DELTAE   -0.3077483
 ITERATION   3 PLS= 0.337E-02 0.000E+00 ENERGY     -100.520840 DELTAE   -0.0582771
 ITERATION   4 PLS= 0.157E-02 0.000E+00 ENERGY     -100.551353 DELTAE   -0.0305131
 ITERATION   5 PLS= 0.127E-03 0.000E+00 ENERGY     -100.536392 DELTAE    0.0149612
 CYCLE:   106 TIME:   0.070 TIME LEFT:  2.00W  GRAD.:    11.107 HEAT: -100.5364
 ITERATION   1 PLS= 0.555E-04 0.000E+00 ENERGY      -99.883599 DELTAE -199.8835993
 ITERATION   2 PLS= 0.153E-01 0.000E+00 ENERGY     -100.456135 DELTAE   -0.5725359
 ITERATION   3 PLS= 0.749E-02 0.000E+00 ENERGY     -100.579910 DELTAE   -0.1237751
 ITERATION   4 PLS= 0.389E-02 0.000E+00 ENERGY     -100.660074 DELTAE   -0.0801636
 ITERATION   5 PLS= 0.183E-03 0.000E+00 ENERGY     -100.619646 DELTAE    0.0404278
 CYCLE:   107 TIME:   0.070 TIME LEFT:  2.00W  GRAD.:    17.678 HEAT: -100.6198
 ITERATION   1 PLS= 0.735E-04 0.000E+00 ENERGY     -100.377737 DELTAE -200.3777374
 ITERATION   2 PLS= 0.541E-02 0.000E+00 ENERGY     -100.634754 DELTAE   -0.2570171
 ITERATION   3 PLS= 0.260E-02 0.000E+00 ENERGY     -100.683252 DELTAE   -0.0484974
 ITERATION   4 PLS= 0.126E-02 0.000E+00 ENERGY     -100.710503 DELTAE   -0.0272512
 ITERATION   5 PLS= 0.123E-03 0.000E+00 ENERGY     -100.696617 DELTAE    0.0138864
 CYCLE:   108 TIME:   0.070 TIME LEFT:  2.00W  GRAD.:    10.846 HEAT: -100.6967
 ITERATION   1 PLS= 0.749E-04 0.000E+00 ENERGY     -100.717602 DELTAE -200.7176020
 ITERATION   2 PLS= 0.161E-02 0.000E+00 ENERGY     -100.741763 DELTAE   -0.0241613
 ITERATION   3 PLS= 0.635E-03 0.000E+00 ENERGY     -100.746127 DELTAE   -0.0043635
 ITERATION   4 PLS= 0.353E-03 0.000E+00 ENERGY     -100.749462 DELTAE   -0.0033354
 CYCLE:   109 TIME:   0.070 TIME LEFT:  2.00W  GRAD.:     6.712 HEAT: -100.7476
 ITERATION   1 PLS= 0.121E-03 0.000E+00 ENERGY     -100.502653 DELTAE -200.5026530
 ITERATION   2 PLS= 0.909E-02 0.000E+00 ENERGY     -100.745589 DELTAE   -0.2429356
 ITERATION   3 PLS= 0.458E-02 0.000E+00 ENERGY     -100.796631 DELTAE   -0.0510420
 ITERATION   4 PLS= 0.232E-02 0.000E+00 ENERGY     -100.828276 DELTAE   -0.0316455
 ITERATION   5 PLS= 0.117E-03 0.000E+00 ENERGY     -100.812231 DELTAE    0.0160455
 CYCLE:   110 TIME:   0.062 TIME LEFT:  2.00W  GRAD.:     7.141 HEAT: -100.8123
 ITERATION   1 PLS= 0.603E-04 0.000E+00 ENERGY     -100.412398 DELTAE -200.4123984
 ITERATION   2 PLS= 0.104E-01 0.000E+00 ENERGY     -100.728394 DELTAE   -0.3159952
 ITERATION   3 PLS= 0.523E-02 0.000E+00 ENERGY     -100.794071 DELTAE   -0.0656775
 ITERATION   4 PLS= 0.263E-02 0.000E+00 ENERGY     -100.834527 DELTAE   -0.0404555
 ITERATION   5 PLS= 0.126E-03 0.000E+00 ENERGY     -100.814246 DELTAE    0.0202811
 CYCLE:   111 TIME:   0.070 TIME LEFT:  2.00W  GRAD.:    13.012 HEAT: -100.8143
 ITERATION   1 PLS= 0.749E-04 0.000E+00 ENERGY     -100.509059 DELTAE -200.5090586
 ITERATION   2 PLS= 0.923E-02 0.000E+00 ENERGY     -100.773355 DELTAE   -0.2642966
 ITERATION   3 PLS= 0.456E-02 0.000E+00 ENERGY     -100.827503 DELTAE   -0.0541478
 ITERATION   4 PLS= 0.227E-02 0.000E+00 ENERGY     -100.859811 DELTAE   -0.0323082
 ITERATION   5 PLS= 0.910E-04 0.000E+00 ENERGY     -100.843538 DELTAE    0.0162732
 CYCLE:   112 TIME:   0.070 TIME LEFT:  2.00W  GRAD.:     7.502 HEAT: -100.8436
 ITERATION   1 PLS= 0.570E-04 0.000E+00 ENERGY     -100.792611 DELTAE -200.7926109
 ITERATION   2 PLS= 0.400E-02 0.000E+00 ENERGY     -100.860361 DELTAE   -0.0677497
 ITERATION   3 PLS= 0.192E-02 0.000E+00 ENERGY     -100.873499 DELTAE   -0.0131388
 ITERATION   4 PLS= 0.932E-03 0.000E+00 ENERGY     -100.880897 DELTAE   -0.0073971
 CYCLE:   113 TIME:   0.078 TIME LEFT:  2.00W  GRAD.:     5.284 HEAT: -100.8772
 ITERATION   1 PLS= 0.422E-04 0.000E+00 ENERGY     -100.869262 DELTAE -200.8692623
 ITERATION   2 PLS= 0.825E-03 0.000E+00 ENERGY     -100.899131 DELTAE   -0.0298686
 ITERATION   3 PLS= 0.449E-03 0.000E+00 ENERGY     -100.904534 DELTAE   -0.0054032
 ITERATION   4 PLS= 0.261E-03 0.000E+00 ENERGY     -100.907902 DELTAE   -0.0033680
 CYCLE:   114 TIME:   0.062 TIME LEFT:  2.00W  GRAD.:     6.872 HEAT: -100.9062
 ITERATION   1 PLS= 0.378E-04 0.000E+00 ENERGY     -100.612972 DELTAE -200.6129716
 ITERATION   2 PLS= 0.802E-02 0.000E+00 ENERGY     -100.892895 DELTAE   -0.2799231
 ITERATION   3 PLS= 0.383E-02 0.000E+00 ENERGY     -100.947505 DELTAE   -0.0546106
 ITERATION   4 PLS= 0.185E-02 0.000E+00 ENERGY     -100.979051 DELTAE   -0.0315462
 ITERATION   5 PLS= 0.103E-03 0.000E+00 ENERGY     -100.962812 DELTAE    0.0162390
 CYCLE:   115 TIME:   0.125 TIME LEFT:  2.00W  GRAD.:    10.837 HEAT: -100.9629
 ITERATION   1 PLS= 0.449E-04 0.000E+00 ENERGY     -100.854881 DELTAE -200.8548812
 ITERATION   2 PLS= 0.228E-02 0.000E+00 ENERGY     -100.901114 DELTAE   -0.0462323
 ITERATION   3 PLS= 0.111E-02 0.000E+00 ENERGY     -100.908920 DELTAE   -0.0078067
 ITERATION   4 PLS= 0.553E-03 0.000E+00 ENERGY     -100.913368 DELTAE   -0.0044476
 CYCLE:   116 TIME:   0.078 TIME LEFT:  2.00W  GRAD.:     8.221 HEAT: -100.9113
 ITERATION   1 PLS= 0.408E-04 0.000E+00 ENERGY     -100.893579 DELTAE -200.8935786
 ITERATION   2 PLS= 0.111E-02 0.000E+00 ENERGY     -100.933184 DELTAE   -0.0396051
 ITERATION   3 PLS= 0.446E-03 0.000E+00 ENERGY     -100.940156 DELTAE   -0.0069723
 ITERATION   4 PLS= 0.190E-03 0.000E+00 ENERGY     -100.943661 DELTAE   -0.0035051
 CYCLE:   117 TIME:   0.078 TIME LEFT:  2.00W  GRAD.:     4.427 HEAT: -100.9420
 ITERATION   1 PLS= 0.509E-04 0.000E+00 ENERGY     -100.924806 DELTAE -200.9248064
 ITERATION   2 PLS= 0.540E-02 0.000E+00 ENERGY     -101.002267 DELTAE   -0.0774603
 ITERATION   3 PLS= 0.265E-02 0.000E+00 ENERGY     -101.018872 DELTAE   -0.0166054
 ITERATION   4 PLS= 0.131E-02 0.000E+00 ENERGY     -101.029064 DELTAE   -0.0101918
 CYCLE:   118 TIME:   0.094 TIME LEFT:  2.00W  GRAD.:     4.533 HEAT: -101.0240
 ITERATION   1 PLS= 0.401E-04 0.000E+00 ENERGY     -100.534416 DELTAE -200.5344156
 ITERATION   2 PLS= 0.116E-01 0.000E+00 ENERGY     -100.945258 DELTAE   -0.4108422
 ITERATION   3 PLS= 0.564E-02 0.000E+00 ENERGY     -101.031767 DELTAE   -0.0865092
 ITERATION   4 PLS= 0.278E-02 0.000E+00 ENERGY     -101.083887 DELTAE   -0.0521200
 ITERATION   5 PLS= 0.871E-04 0.000E+00 ENERGY     -101.057882 DELTAE    0.0260055
 CYCLE:   119 TIME:   0.086 TIME LEFT:  2.00W  GRAD.:     7.604 HEAT: -101.0579
 ITERATION   1 PLS= 0.564E-04 0.000E+00 ENERGY     -100.999844 DELTAE -200.9998435
 ITERATION   2 PLS= 0.296E-02 0.000E+00 ENERGY     -101.033344 DELTAE   -0.0335006
 ITERATION   3 PLS= 0.146E-02 0.000E+00 ENERGY     -101.040104 DELTAE   -0.0067596
 ITERATION   4 PLS= 0.728E-03 0.000E+00 ENERGY     -101.044258 DELTAE   -0.0041547
 CYCLE:   120 TIME:   0.070 TIME LEFT:  2.00W  GRAD.:     4.561 HEAT: -101.0422
 ITERATION   1 PLS= 0.307E-04 0.000E+00 ENERGY     -101.065497 DELTAE -201.0654971
 ITERATION   2 PLS= 0.123E-02 0.000E+00 ENERGY     -101.074516 DELTAE   -0.0090190
 ITERATION   3 PLS= 0.607E-03 0.000E+00 ENERGY     -101.076308 DELTAE   -0.0017924
 ITERATION   4 PLS= 0.302E-03 0.000E+00 ENERGY     -101.077421 DELTAE   -0.0011127
 CYCLE:   121 TIME:   0.070 TIME LEFT:  2.00W  GRAD.:     3.926 HEAT: -101.0769
 ITERATION   1 PLS= 0.133E-04 0.000E+00 ENERGY     -101.055967 DELTAE -201.0559671
 ITERATION   2 PLS= 0.308E-02 0.000E+00 ENERGY     -101.103383 DELTAE   -0.0474160
 ITERATION   3 PLS= 0.152E-02 0.000E+00 ENERGY     -101.113239 DELTAE   -0.0098560
 ITERATION   4 PLS= 0.751E-03 0.000E+00 ENERGY     -101.119432 DELTAE   -0.0061926
 CYCLE:   122 TIME:   0.070 TIME LEFT:  2.00W  GRAD.:     5.474 HEAT: -101.1163
 ITERATION   1 PLS= 0.353E-04 0.000E+00 ENERGY     -100.854967 DELTAE -200.8549673
 ITERATION   2 PLS= 0.589E-02 0.000E+00 ENERGY     -101.035815 DELTAE   -0.1808476
 ITERATION   3 PLS= 0.286E-02 0.000E+00 ENERGY     -101.072102 DELTAE   -0.0362870
 ITERATION   4 PLS= 0.146E-02 0.000E+00 ENERGY     -101.094198 DELTAE   -0.0220963
 ITERATION   5 PLS= 0.537E-04 0.000E+00 ENERGY     -101.082818 DELTAE    0.0113798
 CYCLE:   123 TIME:   0.070 TIME LEFT:  2.00W  GRAD.:     7.630 HEAT: -101.0828
 ITERATION   1 PLS= 0.296E-04 0.000E+00 ENERGY     -101.058734 DELTAE -201.0587344
 ITERATION   2 PLS= 0.267E-02 0.000E+00 ENERGY     -101.103823 DELTAE   -0.0450884
 ITERATION   3 PLS= 0.132E-02 0.000E+00 ENERGY     -101.112537 DELTAE   -0.0087145
 ITERATION   4 PLS= 0.649E-03 0.000E+00 ENERGY     -101.117636 DELTAE   -0.0050989
 CYCLE:   124 TIME:   0.078 TIME LEFT:  2.00W  GRAD.:     4.011 HEAT: -101.1150
 ITERATION   1 PLS= 0.355E-04 0.000E+00 ENERGY     -101.121468 DELTAE -201.1214680
 ITERATION   2 PLS= 0.655E-03 0.000E+00 ENERGY     -101.128757 DELTAE   -0.0072887
 ITERATION   3 PLS= 0.326E-03 0.000E+00 ENERGY     -101.130062 DELTAE   -0.0013056
 ITERATION   4 PLS= 0.164E-03 0.000E+00 ENERGY     -101.130851 DELTAE   -0.0007884
 CYCLE:   125 TIME:   0.062 TIME LEFT:  2.00W  GRAD.:     3.820 HEAT: -101.1305
 ITERATION   1 PLS= 0.225E-04 0.000E+00 ENERGY     -101.126819 DELTAE -201.1268188
 ITERATION   2 PLS= 0.144E-02 0.000E+00 ENERGY     -101.147774 DELTAE   -0.0209548
 ITERATION   3 PLS= 0.703E-03 0.000E+00 ENERGY     -101.152027 DELTAE   -0.0042536
 ITERATION   4 PLS= 0.346E-03 0.000E+00 ENERGY     -101.154696 DELTAE   -0.0026690
 CYCLE:   126 TIME:   0.078 TIME LEFT:  2.00W  GRAD.:     4.172 HEAT: -101.1534
 ITERATION   1 PLS= 0.321E-04 0.000E+00 ENERGY     -100.894762 DELTAE -200.8947622
 ITERATION   2 PLS= 0.509E-02 0.000E+00 ENERGY     -101.064562 DELTAE   -0.1697997
 ITERATION   3 PLS= 0.248E-02 0.000E+00 ENERGY     -101.098653 DELTAE   -0.0340915
 ITERATION   4 PLS= 0.124E-02 0.000E+00 ENERGY     -101.119760 DELTAE   -0.0211068
 ITERATION   5 PLS= 0.770E-04 0.000E+00 ENERGY     -101.108852 DELTAE    0.0109084
 CYCLE:   127 TIME:   0.086 TIME LEFT:  2.00W  GRAD.:     7.409 HEAT: -101.1089
 ITERATION   1 PLS= 0.493E-04 0.000E+00 ENERGY     -101.090898 DELTAE -201.0908979
 ITERATION   2 PLS= 0.140E-02 0.000E+00 ENERGY     -101.125318 DELTAE   -0.0344204
 ITERATION   3 PLS= 0.698E-03 0.000E+00 ENERGY     -101.131491 DELTAE   -0.0061728
 ITERATION   4 PLS= 0.349E-03 0.000E+00 ENERGY     -101.134907 DELTAE   -0.0034155
 CYCLE:   128 TIME:   0.094 TIME LEFT:  2.00W  GRAD.:     5.471 HEAT: -101.1333
 ITERATION   1 PLS= 0.265E-04 0.000E+00 ENERGY     -101.142136 DELTAE -201.1421361
 ITERATION   2 PLS= 0.647E-03 0.000E+00 ENERGY     -101.148401 DELTAE   -0.0062650
 ITERATION   3 PLS= 0.378E-03 0.000E+00 ENERGY     -101.149566 DELTAE   -0.0011649
 ITERATION   4 PLS= 0.212E-03 0.000E+00 ENERGY     -101.150327 DELTAE   -0.0007614
 CYCLE:   129 TIME:   0.070 TIME LEFT:  2.00W  GRAD.:     4.041 HEAT: -101.1499
 ITERATION   1 PLS= 0.290E-04 0.000E+00 ENERGY     -101.107227 DELTAE -201.1072270
 ITERATION   2 PLS= 0.215E-02 0.000E+00 ENERGY     -101.153399 DELTAE   -0.0461724
 ITERATION   3 PLS= 0.106E-02 0.000E+00 ENERGY     -101.162449 DELTAE   -0.0090501
 ITERATION   4 PLS= 0.526E-03 0.000E+00 ENERGY     -101.168068 DELTAE   -0.0056189
 CYCLE:   130 TIME:   0.086 TIME LEFT:  2.00W  GRAD.:     4.088 HEAT: -101.1652
 ITERATION   1 PLS= 0.450E-04 0.000E+00 ENERGY     -101.065453 DELTAE -201.0654534
 ITERATION   2 PLS= 0.268E-02 0.000E+00 ENERGY     -101.169479 DELTAE   -0.1040251
 ITERATION   3 PLS= 0.132E-02 0.000E+00 ENERGY     -101.189325 DELTAE   -0.0198463
 ITERATION   4 PLS= 0.650E-03 0.000E+00 ENERGY     -101.201696 DELTAE   -0.0123715
 CYCLE:   131 TIME:   0.086 TIME LEFT:  2.00W  GRAD.:     5.452 HEAT: -101.1952
 ITERATION   1 PLS= 0.826E-04 0.000E+00 ENERGY     -101.070934 DELTAE -201.0709341
 ITERATION   2 PLS= 0.216E-02 0.000E+00 ENERGY     -101.170483 DELTAE   -0.0995491
 ITERATION   3 PLS= 0.106E-02 0.000E+00 ENERGY     -101.189894 DELTAE   -0.0194109
 ITERATION   4 PLS= 0.522E-03 0.000E+00 ENERGY     -101.202165 DELTAE   -0.0122704
 CYCLE:   132 TIME:   0.078 TIME LEFT:  2.00W  GRAD.:     5.285 HEAT: -101.1959
 ITERATION   1 PLS= 0.808E-04 0.000E+00 ENERGY     -101.200743 DELTAE -201.2007426
 ITERATION   2 PLS= 0.379E-03 0.000E+00 ENERGY     -101.207962 DELTAE   -0.0072194
 ITERATION   3 PLS= 0.172E-03 0.000E+00 ENERGY     -101.209380 DELTAE   -0.0014182
 ITERATION   4 PLS= 0.782E-04 0.000E+00 ENERGY     -101.210339 DELTAE   -0.0009591
 CYCLE:   133 TIME:   0.062 TIME LEFT:  2.00W  GRAD.:     3.505 HEAT: -101.2099
 ITERATION   1 PLS= 0.274E-04 0.000E+00 ENERGY     -101.226515 DELTAE -201.2265147
 ITERATION   2 PLS= 0.659E-03 0.000E+00 ENERGY     -101.240710 DELTAE   -0.0141955
 ITERATION   3 PLS= 0.345E-03 0.000E+00 ENERGY     -101.243566 DELTAE   -0.0028562
 ITERATION   4 PLS= 0.179E-03 0.000E+00 ENERGY     -101.245400 DELTAE   -0.0018338
 CYCLE:   134 TIME:   0.078 TIME LEFT:  2.00W  GRAD.:     3.628 HEAT: -101.2445
 ITERATION   1 PLS= 0.273E-04 0.000E+00 ENERGY     -101.197238 DELTAE -201.1972377
 ITERATION   2 PLS= 0.884E-03 0.000E+00 ENERGY     -101.246117 DELTAE   -0.0488798
 ITERATION   3 PLS= 0.419E-03 0.000E+00 ENERGY     -101.255412 DELTAE   -0.0092946
 ITERATION   4 PLS= 0.207E-03 0.000E+00 ENERGY     -101.261136 DELTAE   -0.0057239
 CYCLE:   135 TIME:   0.086 TIME LEFT:  2.00W  GRAD.:     5.011 HEAT: -101.2581
 ITERATION   1 PLS= 0.431E-04 0.000E+00 ENERGY     -101.068538 DELTAE -201.0685380
 ITERATION   2 PLS= 0.214E-02 0.000E+00 ENERGY     -101.247406 DELTAE   -0.1788680
 ITERATION   3 PLS= 0.103E-02 0.000E+00 ENERGY     -101.281697 DELTAE   -0.0342907
 ITERATION   4 PLS= 0.500E-03 0.000E+00 ENERGY     -101.302408 DELTAE   -0.0207110
 ITERATION   5 PLS= 0.709E-04 0.000E+00 ENERGY     -101.291518 DELTAE    0.0108900
 CYCLE:   136 TIME:   0.070 TIME LEFT:  2.00W  GRAD.:     4.694 HEAT: -101.2916
 ITERATION   1 PLS= 0.435E-04 0.000E+00 ENERGY     -101.229610 DELTAE -201.2296099
 ITERATION   2 PLS= 0.622E-03 0.000E+00 ENERGY     -101.307176 DELTAE   -0.0775660
 ITERATION   3 PLS= 0.280E-03 0.000E+00 ENERGY     -101.321982 DELTAE   -0.0148061
 ITERATION   4 PLS= 0.148E-03 0.000E+00 ENERGY     -101.330668 DELTAE   -0.0086865
 CYCLE:   137 TIME:   0.078 TIME LEFT:  2.00W  GRAD.:     6.402 HEAT: -101.3264
 ITERATION   1 PLS= 0.477E-04 0.000E+00 ENERGY     -101.311178 DELTAE -201.3111783
 ITERATION   2 PLS= 0.114E-02 0.000E+00 ENERGY     -101.320692 DELTAE   -0.0095137
 ITERATION   3 PLS= 0.603E-03 0.000E+00 ENERGY     -101.322541 DELTAE   -0.0018488
 ITERATION   4 PLS= 0.315E-03 0.000E+00 ENERGY     -101.323750 DELTAE   -0.0012090
 CYCLE:   138 TIME:   0.102 TIME LEFT:  2.00W  GRAD.:     3.641 HEAT: -101.3231
 ITERATION   1 PLS= 0.331E-04 0.000E+00 ENERGY     -101.333368 DELTAE -201.3333683
 ITERATION   2 PLS= 0.138E-02 0.000E+00 ENERGY     -101.345811 DELTAE   -0.0124430
 ITERATION   3 PLS= 0.706E-03 0.000E+00 ENERGY     -101.348414 DELTAE   -0.0026023
 ITERATION   4 PLS= 0.358E-03 0.000E+00 ENERGY     -101.350205 DELTAE   -0.0017909
 CYCLE:   139 TIME:   0.070 TIME LEFT:  2.00W  GRAD.:     3.474 HEAT: -101.3493
 ITERATION   1 PLS= 0.372E-04 0.000E+00 ENERGY     -101.331683 DELTAE -201.3316829
 ITERATION   2 PLS= 0.190E-02 0.000E+00 ENERGY     -101.378308 DELTAE   -0.0466250
 ITERATION   3 PLS= 0.960E-03 0.000E+00 ENERGY     -101.387897 DELTAE   -0.0095888
 ITERATION   4 PLS= 0.488E-03 0.000E+00 ENERGY     -101.394312 DELTAE   -0.0064148
 CYCLE:   140 TIME:   0.102 TIME LEFT:  2.00W  GRAD.:     5.185 HEAT: -101.3909
 ITERATION   1 PLS= 0.406E-04 0.000E+00 ENERGY     -101.282536 DELTAE -201.2825357
 ITERATION   2 PLS= 0.196E-02 0.000E+00 ENERGY     -101.414093 DELTAE   -0.1315574
 ITERATION   3 PLS= 0.983E-03 0.000E+00 ENERGY     -101.440843 DELTAE   -0.0267495
 ITERATION   4 PLS= 0.495E-03 0.000E+00 ENERGY     -101.458660 DELTAE   -0.0178172
 CYCLE:   141 TIME:   0.086 TIME LEFT:  2.00W  GRAD.:     4.527 HEAT: -101.4491
 ITERATION   1 PLS= 0.798E-04 0.000E+00 ENERGY     -101.388294 DELTAE -201.3882943
 ITERATION   2 PLS= 0.881E-03 0.000E+00 ENERGY     -101.447153 DELTAE   -0.0588589
 ITERATION   3 PLS= 0.452E-03 0.000E+00 ENERGY     -101.459118 DELTAE   -0.0119643
 ITERATION   4 PLS= 0.233E-03 0.000E+00 ENERGY     -101.467296 DELTAE   -0.0081784
 CYCLE:   142 TIME:   0.086 TIME LEFT:  2.00W  GRAD.:     3.352 HEAT: -101.4629
 ITERATION   1 PLS= 0.604E-04 0.000E+00 ENERGY     -101.407876 DELTAE -201.4078757
 ITERATION   2 PLS= 0.198E-02 0.000E+00 ENERGY     -101.471443 DELTAE   -0.0635677
 ITERATION   3 PLS= 0.104E-02 0.000E+00 ENERGY     -101.484685 DELTAE   -0.0132412
 ITERATION   4 PLS= 0.541E-03 0.000E+00 ENERGY     -101.493700 DELTAE   -0.0090150
 ITERATION   5 PLS= 0.727E-04 0.000E+00 ENERGY     -101.488925 DELTAE    0.0047749
 CYCLE:   143 TIME:   0.070 TIME LEFT:  2.00W  GRAD.:     4.181 HEAT: -101.4889
 ITERATION   1 PLS= 0.470E-04 0.000E+00 ENERGY     -101.473264 DELTAE -201.4732641
 ITERATION   2 PLS= 0.251E-02 0.000E+00 ENERGY     -101.500667 DELTAE   -0.0274032
 ITERATION   3 PLS= 0.130E-02 0.000E+00 ENERGY     -101.506413 DELTAE   -0.0057456
 ITERATION   4 PLS= 0.671E-03 0.000E+00 ENERGY     -101.510311 DELTAE   -0.0038980
 CYCLE:   144 TIME:   0.070 TIME LEFT:  2.00W  GRAD.:     5.603 HEAT: -101.5083
 ITERATION   1 PLS= 0.404E-04 0.000E+00 ENERGY     -101.463118 DELTAE -201.4631177
 ITERATION   2 PLS= 0.331E-02 0.000E+00 ENERGY     -101.513408 DELTAE   -0.0502903
 ITERATION   3 PLS= 0.170E-02 0.000E+00 ENERGY     -101.524319 DELTAE   -0.0109113
 ITERATION   4 PLS= 0.873E-03 0.000E+00 ENERGY     -101.531648 DELTAE   -0.0073289
 CYCLE:   145 TIME:   0.062 TIME LEFT:  2.00W  GRAD.:     4.867 HEAT: -101.5279
 ITERATION   1 PLS= 0.572E-04 0.000E+00 ENERGY     -101.256346 DELTAE -201.2563457
 ITERATION   2 PLS= 0.533E-02 0.000E+00 ENERGY     -101.441241 DELTAE   -0.1848950
 ITERATION   3 PLS= 0.274E-02 0.000E+00 ENERGY     -101.480603 DELTAE   -0.0393618
 ITERATION   4 PLS= 0.140E-02 0.000E+00 ENERGY     -101.506888 DELTAE   -0.0262855
 ITERATION   5 PLS= 0.816E-04 0.000E+00 ENERGY     -101.493125 DELTAE    0.0137628
 CYCLE:   146 TIME:   0.070 TIME LEFT:  2.00W  GRAD.:     4.612 HEAT: -101.4932
 ITERATION   1 PLS= 0.544E-04 0.000E+00 ENERGY     -101.455459 DELTAE -201.4554591
 ITERATION   2 PLS= 0.257E-02 0.000E+00 ENERGY     -101.494288 DELTAE   -0.0388288
 ITERATION   3 PLS= 0.133E-02 0.000E+00 ENERGY     -101.502377 DELTAE   -0.0080887
 ITERATION   4 PLS= 0.681E-03 0.000E+00 ENERGY     -101.507718 DELTAE   -0.0053412
 CYCLE:   147 TIME:   0.086 TIME LEFT:  2.00W  GRAD.:     4.464 HEAT: -101.5050
 ITERATION   1 PLS= 0.423E-04 0.000E+00 ENERGY     -101.464538 DELTAE -201.4645382
 ITERATION   2 PLS= 0.226E-02 0.000E+00 ENERGY     -101.520757 DELTAE   -0.0562185
 ITERATION   3 PLS= 0.117E-02 0.000E+00 ENERGY     -101.532447 DELTAE   -0.0116898
 ITERATION   4 PLS= 0.601E-03 0.000E+00 ENERGY     -101.540139 DELTAE   -0.0076921
 CYCLE:   148 TIME:   0.086 TIME LEFT:  2.00W  GRAD.:     4.731 HEAT: -101.5362
 ITERATION   1 PLS= 0.482E-04 0.000E+00 ENERGY     -101.301455 DELTAE -201.3014551
 ITERATION   2 PLS= 0.300E-02 0.000E+00 ENERGY     -101.477237 DELTAE   -0.1757816
 ITERATION   3 PLS= 0.154E-02 0.000E+00 ENERGY     -101.513277 DELTAE   -0.0360407
 ITERATION   4 PLS= 0.793E-03 0.000E+00 ENERGY     -101.537456 DELTAE   -0.0241788
 ITERATION   5 PLS= 0.975E-04 0.000E+00 ENERGY     -101.524609 DELTAE    0.0128467
 CYCLE:   149 TIME:   0.086 TIME LEFT:  2.00W  GRAD.:     5.479 HEAT: -101.5247
 ITERATION   1 PLS= 0.592E-04 0.000E+00 ENERGY     -101.326256 DELTAE -201.3262561
 ITERATION   2 PLS= 0.210E-02 0.000E+00 ENERGY     -101.496911 DELTAE   -0.1706547
 ITERATION   3 PLS= 0.105E-02 0.000E+00 ENERGY     -101.531334 DELTAE   -0.0344235
 ITERATION   4 PLS= 0.544E-03 0.000E+00 ENERGY     -101.554446 DELTAE   -0.0231117
 ITERATION   5 PLS= 0.102E-03 0.000E+00 ENERGY     -101.542106 DELTAE    0.0123401
 CYCLE:   150 TIME:   0.102 TIME LEFT:  2.00W  GRAD.:     4.278 HEAT: -101.5422
 ITERATION   1 PLS= 0.604E-04 0.000E+00 ENERGY     -101.543596 DELTAE -201.5435956
 ITERATION   2 PLS= 0.507E-03 0.000E+00 ENERGY     -101.557797 DELTAE   -0.0142010
 ITERATION   3 PLS= 0.292E-03 0.000E+00 ENERGY     -101.560573 DELTAE   -0.0027768
 ITERATION   4 PLS= 0.174E-03 0.000E+00 ENERGY     -101.562663 DELTAE   -0.0020891
 CYCLE:   151 TIME:   0.086 TIME LEFT:  2.00W  GRAD.:     3.104 HEAT: -101.5615
 ITERATION   1 PLS= 0.304E-04 0.000E+00 ENERGY     -101.521621 DELTAE -201.5216208
 ITERATION   2 PLS= 0.765E-03 0.000E+00 ENERGY     -101.576425 DELTAE   -0.0548042
[...]
     13          5  C    CARTESIAN X    -0.967832     -0.040151  KCAL/ANGSTROM
     14          5  C    CARTESIAN Y     2.383930      0.173045  KCAL/ANGSTROM
     15          5  C    CARTESIAN Z     1.720421     -0.139846  KCAL/ANGSTROM
     16          6  C    CARTESIAN X    -0.031137      0.002136  KCAL/ANGSTROM
     17          6  C    CARTESIAN Y     3.368817     -0.184065  KCAL/ANGSTROM
     18          6  C    CARTESIAN Z     2.003832     -0.080061  KCAL/ANGSTROM
     19          7  H    CARTESIAN X     2.073755     -0.002139  KCAL/ANGSTROM
     20          7  H    CARTESIAN Y     3.753710     -0.065758  KCAL/ANGSTROM
     21          7  H    CARTESIAN Z     2.277431      0.091713  KCAL/ANGSTROM
     22          8  H    CARTESIAN X     2.745923     -0.371951  KCAL/ANGSTROM
     23          8  H    CARTESIAN Y     1.401718     -0.023791  KCAL/ANGSTROM
     24          8  H    CARTESIAN Z     1.878730      0.016563  KCAL/ANGSTROM
     25          9  H    CARTESIAN X    -1.389391     -0.156632  KCAL/ANGSTROM
     26          9  H    CARTESIAN Y     0.303442     -0.245865  KCAL/ANGSTROM
     27          9  H    CARTESIAN Z     1.274729     -0.042032  KCAL/ANGSTROM
     28         10 Cl    CARTESIAN X    -2.626312     -0.172109  KCAL/ANGSTROM
     29         10 Cl    CARTESIAN Y     2.822431      0.090769  KCAL/ANGSTROM
     30         10 Cl    CARTESIAN Z     1.646528      0.086318  KCAL/ANGSTROM
     31         11  H    CARTESIAN X    -0.327319     -0.181699  KCAL/ANGSTROM
     32         11  H    CARTESIAN Y     4.405313      0.031265  KCAL/ANGSTROM
     33         11  H    CARTESIAN Z     2.182896      0.172048  KCAL/ANGSTROM
     34         12  C    CARTESIAN X     1.157629     -0.105493  KCAL/ANGSTROM
     35         12  C    CARTESIAN Y    -0.718455      0.287982  KCAL/ANGSTROM
     36         12  C    CARTESIAN Z     1.352856      0.081876  KCAL/ANGSTROM
     37         13  C    CARTESIAN X     0.458496      0.105624  KCAL/ANGSTROM
     38         13  C    CARTESIAN Y    -1.674651      0.151733  KCAL/ANGSTROM
     39         13  C    CARTESIAN Z     2.310705      0.113361  KCAL/ANGSTROM
     40         14  H    CARTESIAN X     0.798994      0.142345  KCAL/ANGSTROM
     41         14  H    CARTESIAN Y    -2.712780     -0.148392  KCAL/ANGSTROM
     42         14  H    CARTESIAN Z     2.183942      0.052534  KCAL/ANGSTROM
     43         15  H    CARTESIAN X    -0.634831      0.079234  KCAL/ANGSTROM
     44         15  H    CARTESIAN Y    -1.665516      0.235206  KCAL/ANGSTROM
     45         15  H    CARTESIAN Z     2.203225     -0.120542  KCAL/ANGSTROM
     46         16  H    CARTESIAN X     0.687028     -0.163438  KCAL/ANGSTROM
     47         16  H    CARTESIAN Y    -1.395979      0.077232  KCAL/ANGSTROM
     48         16  H    CARTESIAN Z     3.353868      0.096857  KCAL/ANGSTROM
     49         17  N    CARTESIAN X     0.839083      0.943107  KCAL/ANGSTROM
     50         17  N    CARTESIAN Y    -1.114068     -0.299346  KCAL/ANGSTROM
     51         17  N    CARTESIAN Z    -0.061874      0.023289  KCAL/ANGSTROM
     52         18  O    CARTESIAN X     1.770034     -0.133564  KCAL/ANGSTROM
     53         18  O    CARTESIAN Y    -1.348545      0.190207  KCAL/ANGSTROM
     54         18  O    CARTESIAN Z    -0.816335      0.167510  KCAL/ANGSTROM
     55         19  O    CARTESIAN X    -0.325163     -1.053966  KCAL/ANGSTROM
     56         19  O    CARTESIAN Y    -1.179640      0.287333  KCAL/ANGSTROM
     57         19  O    CARTESIAN Z    -0.420770     -0.165823  KCAL/ANGSTROM
     58         20  N    CARTESIAN X     6.158307     -0.109357  KCAL/ANGSTROM
     59         20  N    CARTESIAN Y    -0.389601     -0.084905  KCAL/ANGSTROM
     60         20  N    CARTESIAN Z     3.305048      0.047182  KCAL/ANGSTROM
     61         21  C    CARTESIAN X     6.613676      0.016341  KCAL/ANGSTROM
     62         21  C    CARTESIAN Y    -1.615208     -0.157143  KCAL/ANGSTROM
     63         21  C    CARTESIAN Z     2.603831     -0.004041  KCAL/ANGSTROM
     64         22  C    CARTESIAN X     8.102964      0.177356  KCAL/ANGSTROM
     65         22  C    CARTESIAN Y    -1.558055     -0.141874  KCAL/ANGSTROM
     66         22  C    CARTESIAN Z     2.216078      0.043161  KCAL/ANGSTROM
     67         23  C    CARTESIAN X     8.379170      0.035517  KCAL/ANGSTROM
     68         23  C    CARTESIAN Y    -0.312790      0.004123  KCAL/ANGSTROM
     69         23  C    CARTESIAN Z     1.363838      0.019117  KCAL/ANGSTROM
     70         24  C    CARTESIAN X     7.896504      0.022688  KCAL/ANGSTROM
     71         24  C    CARTESIAN Y     0.954474      0.141343  KCAL/ANGSTROM
     72         24  C    CARTESIAN Z     2.081018     -0.007750  KCAL/ANGSTROM
     73         25  C    CARTESIAN X     6.414049     -0.010897  KCAL/ANGSTROM
     74         25  C    CARTESIAN Y     0.809936      0.070497  KCAL/ANGSTROM
     75         25  C    CARTESIAN Z     2.470061     -0.017072  KCAL/ANGSTROM
     76         26  H    CARTESIAN X     2.282880      0.091046  KCAL/ANGSTROM
     77         26  H    CARTESIAN Y    -0.817596      0.032025  KCAL/ANGSTROM
     78         26  H    CARTESIAN Z     1.483435     -0.176833  KCAL/ANGSTROM
     79         27  H    CARTESIAN X     6.416728      0.018688  KCAL/ANGSTROM
     80         27  H    CARTESIAN Y    -2.486987     -0.170309  KCAL/ANGSTROM
     81         27  H    CARTESIAN Z     3.263769     -0.082924  KCAL/ANGSTROM
     82         28  H    CARTESIAN X     5.985584     -0.016848  KCAL/ANGSTROM
     83         28  H    CARTESIAN Y    -1.752013     -0.056271  KCAL/ANGSTROM
     84         28  H    CARTESIAN Z     1.696209      0.070786  KCAL/ANGSTROM
     85         29  H    CARTESIAN X     8.387494      0.086507  KCAL/ANGSTROM
     86         29  H    CARTESIAN Y    -2.473200     -0.149546  KCAL/ANGSTROM
     87         29  H    CARTESIAN Z     1.664853     -0.106384  KCAL/ANGSTROM
     88         30  H    CARTESIAN X     8.732282      0.160785  KCAL/ANGSTROM
     89         30  H    CARTESIAN Y    -1.545789     -0.193927  KCAL/ANGSTROM
     90         30  H    CARTESIAN Z     3.125588      0.173967  KCAL/ANGSTROM
     91         31  H    CARTESIAN X     9.460094      0.128827  KCAL/ANGSTROM
     92         31  H    CARTESIAN Y    -0.235799      0.014279  KCAL/ANGSTROM
     93         31  H    CARTESIAN Z     1.141520     -0.007105  KCAL/ANGSTROM
     94         32  H    CARTESIAN X     7.873914     -0.026230  KCAL/ANGSTROM
     95         32  H    CARTESIAN Y    -0.406354      0.023548  KCAL/ANGSTROM
     96         32  H    CARTESIAN Z     0.383130     -0.114741  KCAL/ANGSTROM
     97         33  H    CARTESIAN X     8.035485      0.063730  KCAL/ANGSTROM
     98         33  H    CARTESIAN Y     1.840478      0.143134  KCAL/ANGSTROM
     99         33  H    CARTESIAN Z     1.434901     -0.086943  KCAL/ANGSTROM
    100         34  H    CARTESIAN X     8.509771      0.061474  KCAL/ANGSTROM
    101         34  H    CARTESIAN Y     1.140163      0.123883  KCAL/ANGSTROM
    102         34  H    CARTESIAN Z     2.982495      0.167497  KCAL/ANGSTROM
    103         35  H    CARTESIAN X     6.069330     -0.026111  KCAL/ANGSTROM
    104         35  H    CARTESIAN Y     1.703850     -0.073504  KCAL/ANGSTROM
    105         35  H    CARTESIAN Z     3.032557     -0.108335  KCAL/ANGSTROM
    106         36  H    CARTESIAN X     5.782342     -0.046820  KCAL/ANGSTROM
    107         36  H    CARTESIAN Y     0.741929      0.026463  KCAL/ANGSTROM
    108         36  H    CARTESIAN Z     1.556873      0.089016  KCAL/ANGSTROM
    109         37  H    CARTESIAN X     6.653263      0.370803  KCAL/ANGSTROM
    110         37  H    CARTESIAN Y    -0.300018     -0.079295  KCAL/ANGSTROM
    111         37  H    CARTESIAN Z     4.199356      0.054516  KCAL/ANGSTROM
    112         38  H    CARTESIAN X     2.979627     -0.051250  KCAL/ANGSTROM
    113         38  H    CARTESIAN Y     0.213358      0.094724  KCAL/ANGSTROM
    114         38  H    CARTESIAN Z     3.971589      0.062429  KCAL/ANGSTROM
    115         39  H    CARTESIAN X     4.207472      0.045607  KCAL/ANGSTROM
    116         39  H    CARTESIAN Y    -0.496323     -0.062795  KCAL/ANGSTROM
    117         39  H    CARTESIAN Z     3.380507      0.237095  KCAL/ANGSTROM
    118         40  O    CARTESIAN X     3.231145     -0.239955  KCAL/ANGSTROM
    119         40  O    CARTESIAN Y    -0.541472      0.144517  KCAL/ANGSTROM
    120         40  O    CARTESIAN Z     3.438498     -0.198092  KCAL/ANGSTROM




   ATOM   CHEMICAL          X               Y               Z
  NUMBER   SYMBOL      (ANGSTROMS)     (ANGSTROMS)     (ANGSTROMS)

     1       C          1.31228817  *   3.00108131  *   2.05717279  *
     2       C          1.68831628  *   1.67759270  *   1.83338341  *
     3       C          0.72277478  *   0.70811395  *   1.55688430  *
     4       C         -0.62855630  *   1.05868004  *   1.49580920  *
     5       C         -0.96783238  *   2.38392983  *   1.72042093  *
     6       C         -0.03113749  *   3.36881739  *   2.00383159  *
     7       H          2.07375455  *   3.75371007  *   2.27743140  *
     8       H          2.74592313  *   1.40171789  *   1.87872987  *
     9       H         -1.38939073  *   0.30344169  *   1.27472898  *
    10      Cl         -2.62631197  *   2.82243055  *   1.64652782  *
    11       H         -0.32731946  *   4.40531262  *   2.18289621  *
    12       C          1.15762909  *  -0.71845489  *   1.35285632  *
    13       C          0.45849644  *  -1.67465061  *   2.31070501  *
    14       H          0.79899413  *  -2.71278026  *   2.18394179  *
    15       H         -0.63483076  *  -1.66551594  *   2.20322489  *
    16       H          0.68702836  *  -1.39597929  *   3.35386785  *
    17       N          0.83908256  *  -1.11406831  *  -0.06187369  *
    18       O          1.77003408  *  -1.34854457  *  -0.81633474  *
    19       O         -0.32516278  *  -1.17963958  *  -0.42076952  *
    20       N          6.15830711  *  -0.38960115  *   3.30504776  *
    21       C          6.61367596  *  -1.61520770  *   2.60383139  *
    22       C          8.10296446  *  -1.55805471  *   2.21607753  *
    23       C          8.37916976  *  -0.31278994  *   1.36383801  *
    24       C          7.89650434  *   0.95447363  *   2.08101839  *
    25       C          6.41404918  *   0.80993627  *   2.47006088  *
    26       H          2.28287967  *  -0.81759570  *   1.48343544  *
    27       H          6.41672847  *  -2.48698670  *   3.26376885  *
    28       H          5.98558441  *  -1.75201284  *   1.69620919  *
    29       H          8.38749410  *  -2.47320014  *   1.66485276  *
    30       H          8.73228243  *  -1.54578878  *   3.12558761  *
    31       H          9.46009354  *  -0.23579889  *   1.14152002  *
    32       H          7.87391416  *  -0.40635396  *   0.38312998  *
    33       H          8.03548498  *   1.84047774  *   1.43490054  *
    34       H          8.50977150  *   1.14016315  *   2.98249519  *
    35       H          6.06933001  *   1.70385047  *   3.03255655  *
    36       H          5.78234225  *   0.74192865  *   1.55687283  *
    37       H          6.65326333  *  -0.30001810  *   4.19935637  *
    38       H          2.97962651  *   0.21335816  *   3.97158942  *
    39       H          4.20747248  *  -0.49632319  *   3.38050700  *
    40       O          3.23114492  *  -0.54147233  *   3.43849814  *

                             CARTESIAN COORDINATES

   1    C        1.312288168     3.001081310     2.057172794
   2    C        1.688316276     1.677592701     1.833383411
   3    C        0.722774781     0.708113951     1.556884296
   4    C       -0.628556297     1.058680038     1.495809197
   5    C       -0.967832384     2.383929831     1.720420934
   6    C       -0.031137490     3.368817390     2.003831590
   7    H        2.073754550     3.753710066     2.277431403
   8    H        2.745923131     1.401717886     1.878729874
   9    H       -1.389390732     0.303441690     1.274728984
  10   Cl       -2.626311973     2.822430553     1.646527825
  11    H       -0.327319464     4.405312624     2.182896207
  12    C        1.157629090    -0.718454886     1.352856317
  13    C        0.458496442    -1.674650610     2.310705006
  14    H        0.798994130    -2.712780264     2.183941787
  15    H       -0.634830757    -1.665515936     2.203224890
  16    H        0.687028358    -1.395979292     3.353867851
  17    N        0.839082564    -1.114068315    -0.061873686
  18    O        1.770034083    -1.348544573    -0.816334739
  19    O       -0.325162778    -1.179639582    -0.420769516
  20    N        6.158307110    -0.389601149     3.305047763
  21    C        6.613675964    -1.615207696     2.603831393
  22    C        8.102964462    -1.558054708     2.216077531
  23    C        8.379169756    -0.312789940     1.363838007
  24    C        7.896504337     0.954473632     2.081018391
  25    C        6.414049180     0.809936271     2.470060883
  26    H        2.282879668    -0.817595698     1.483435439
  27    H        6.416728471    -2.486986701     3.263768848
  28    H        5.985584411    -1.752012844     1.696209193
  29    H        8.387494105    -2.473200137     1.664852762
  30    H        8.732282430    -1.545788780     3.125587612
  31    H        9.460093543    -0.235798891     1.141520020
  32    H        7.873914157    -0.406353961     0.383129984
  33    H        8.035484979     1.840477740     1.434900541
  34    H        8.509771500     1.140163153     2.982495191
  35    H        6.069330008     1.703850466     3.032556548
  36    H        5.782342254     0.741928649     1.556872826
  37    H        6.653263334    -0.300018105     4.199356373
  38    H        2.979626506     0.213358162     3.971589417
  39    H        4.207472478    -0.496323189     3.380507002
  40    O        3.231144919    -0.541472326     3.438498143


           Empirical Formula: C13 H21 N2 O3 Cl  =    40 atoms



      MOLECULAR POINT GROUP   :   C1  


                  EIGENVALUES  
 -37.43428 -35.43841 -31.59615 -30.90646 -29.33054 -28.77422 -28.15860 -27.49476
 -26.12213 -26.08280 -25.02337 -24.96522 -22.50586 -22.34112 -21.26106 -21.22334
 -20.49241 -19.73052 -18.56281 -18.47566 -17.65732 -17.42092 -17.27070 -16.81103
 -16.38509 -15.66251 -15.52252 -15.44969 -15.15967 -15.01345 -14.78794 -14.57050
 -14.20222 -14.07840 -13.95825 -13.77930 -13.13765 -13.09086 -12.98927 -12.73743
 -12.59406 -12.21226 -12.11847 -12.05689 -11.99497 -11.98767 -11.85202 -11.59165
 -11.47312 -11.36875 -11.29963 -10.43734 -10.11584  -9.49697  -0.76947  -0.47832
  -0.46031   0.45967   0.62139   1.83723   2.82344   3.07335   3.21326   3.65438
   3.81197   3.91900   4.02377   4.03674   4.23999   4.26896   4.33417   4.40971
   4.47970   4.64953   4.75202   4.75607   5.08751   5.10067   5.39674   5.42040
   5.45656   5.51412   5.57772   5.64665   5.67417   5.73988   5.84158   5.86426
   5.97207   6.14738   6.32960   6.49508   6.56153   6.60549   6.64095   6.70166
   7.03393  69.37502  69.38960  69.41981  69.66066  69.67597


              NET ATOMIC CHARGES AND DIPOLE CONTRIBUTIONS

  ATOM NO.   TYPE          CHARGE      No. of ELECS.   s-Pop       p-Pop       d-Pop       
    1          C          -0.132088        4.1321     1.08889     3.04320
    2          C          -0.129978        4.1300     1.09117     3.03880
    3          C          -0.044775        4.0448     1.06854     2.97624
    4          C          -0.163220        4.1632     1.08829     3.07493
    5          C           0.012900        3.9871     1.09425     2.89285
    6          C          -0.158861        4.1589     1.08922     3.06964
    7          H           0.178951        0.8210     0.82105
    8          H           0.179796        0.8202     0.82020
    9          H           0.196611        0.8034     0.80339
   10         Cl          -0.111875        7.1119     1.98053     5.12493     0.00642
   11          H           0.187396        0.8126     0.81260
   12          C          -0.035460        4.0355     1.09736     2.93810
   13          C          -0.460531        4.4605     1.05803     3.40250
   14          H           0.176345        0.8237     0.82366
   15          H           0.173762        0.8262     0.82624
   16          H           0.187460        0.8125     0.81254
   17          N           0.617182        4.3828     1.48207     2.90075
   18          O          -0.452492        6.4525     1.93976     4.51273
   19          O          -0.444697        6.4447     1.93926     4.50544
   20          N          -0.559013        5.5590     1.67091     3.88811
   21          C          -0.117257        4.1173     1.06997     3.04728
   22          C          -0.315558        4.3156     1.06498     3.25058
   23          C          -0.262932        4.2629     1.05782     3.20511
   24          C          -0.318652        4.3187     1.06499     3.25366
   25          C          -0.116778        4.1168     1.07011     3.04667
   26          H           0.222343        0.7777     0.77766
   27          H           0.139475        0.8605     0.86053
   28          H           0.149296        0.8507     0.85070
   29          H           0.147793        0.8522     0.85221
   30          H           0.144733        0.8553     0.85527
   31          H           0.139029        0.8610     0.86097
   32          H           0.142547        0.8575     0.85745
   33          H           0.146559        0.8534     0.85344
   34          H           0.144233        0.8558     0.85577
   35          H           0.140900        0.8591     0.85910
   36          H           0.150985        0.8490     0.84902
   37          H           0.269526        0.7305     0.73047
   38          H           0.361036        0.6390     0.63896
   39          H           0.382926        0.6171     0.61707
   40          O          -0.767616        6.7676     1.81597     4.95165
 DIPOLE           X         Y         Z       TOTAL
 POINT-CHG.     6.675     2.423     5.836     9.191
 HYBRID         0.852     0.178    -0.112     0.878
 SUM            7.527     2.600     5.723     9.807


          ATOMIC ORBITAL ELECTRON POPULATIONS

     Atom    s        px        py        pz      x^2-y^2     xz        z^2       yz        xy
    1  C   1.08889   1.02902   1.03532   0.97886
    2  C   1.09117   1.08349   0.98268   0.97263
    3  C   1.06854   0.98157   0.95978   1.03488
    4  C   1.08829   1.04301   1.02653   1.00540
    5  C   1.09425   0.85570   0.98694   1.05021
    6  C   1.08922   0.99421   1.08168   0.99376
    7  H   0.82105
    8  H   0.82020
    9  H   0.80339
   10 Cl   1.98053   1.21783   1.93784   1.96926   0.00232   0.00071   0.00122   0.00010   0.00207
   11  H   0.81260
   12  C   1.09736   1.14650   0.98190   0.80969
   13  C   1.05803   1.15983   1.11765   1.12502
   14  H   0.82366
   15  H   0.82624
   16  H   0.81254
   17  N   1.48207   0.95622   0.91554   1.02899
   18  O   1.93976   1.37193   1.55632   1.58448
   19  O   1.93926   1.08630   1.58186   1.83728
   20  N   1.67091   1.60877   1.10590   1.17343
   21  C   1.06997   1.00219   0.94895   1.09615
   22  C   1.06498   1.04648   1.07630   1.12779
   23  C   1.05782   1.13940   0.98753   1.07818
   24  C   1.06499   1.04517   1.06893   1.13956
   25  C   1.07011   1.01404   0.96129   1.07134
   26  H   0.77766
   27  H   0.86053
   28  H   0.85070
   29  H   0.85221
   30  H   0.85527
   31  H   0.86097
   32  H   0.85745
   33  H   0.85344
   34  H   0.85577
   35  H   0.85910
   36  H   0.84902
   37  H   0.73047
   38  H   0.63896
   39  H   0.61707
   40  O   1.81597   1.47969   1.64578   1.82618

 **********************
 *                    *
 * JOB ENDED NORMALLY *
 *                    *
 **********************



 TOTAL JOB TIME:            15.98 SECONDS

 == MOPAC DONE ==
