
                                 *****************
                                 * O   R   C   A *
                                 *****************

                                            #,                                       
                                            ###                                      
                                            ####                                     
                                            #####                                    
                                            ######                                   
                                           ########,                                 
                                     ,,################,,,,,                         
                               ,,#################################,,                 
                          ,,##########################################,,             
                       ,#########################################, ''#####,          
                    ,#############################################,,   '####,        
                  ,##################################################,,,,####,       
                ,###########''''           ''''###############################       
              ,#####''   ,,,,##########,,,,          '''####'''          '####       
            ,##' ,,,,###########################,,,                        '##       
           ' ,,###''''                  '''############,,,                           
         ,,##''                                '''############,,,,        ,,,,,,###''
      ,#''                                            '''#######################'''  
     '                                                          ''''####''''         
             ,#######,   #######,   ,#######,      ##                                
            ,#'     '#,  ##    ##  ,#'     '#,    #''#        ######   ,####,        
            ##       ##  ##   ,#'  ##            #'  '#       #        #'  '#        
            ##       ##  #######   ##           ,######,      #####,   #    #        
            '#,     ,#'  ##    ##  '#,     ,#' ,#      #,         ##   #,  ,#        
             '#######'   ##     ##  '#######'  #'      '#     #####' # '####'        



                  #######################################################
                  #                        -***-                        #
                  #          Department of theory and spectroscopy      #
                  #    Directorship and core code : Frank Neese         #
                  #        Max Planck Institute fuer Kohlenforschung    #
                  #                Kaiser Wilhelm Platz 1               #
                  #                 D-45470 Muelheim/Ruhr               #
                  #                      Germany                        #
                  #                                                     #
                  #                  All rights reserved                #
                  #                        -***-                        #
                  #######################################################


                         Program Version 5.0.4 -  RELEASE  -


 With contributions from (in alphabetic order):
   Daniel Aravena         : Magnetic Suceptibility
   Michael Atanasov       : Ab Initio Ligand Field Theory (pilot matlab implementation)
   Alexander A. Auer      : GIAO ZORA, VPT2 properties, NMR spectrum
   Ute Becker             : Parallelization
   Giovanni Bistoni       : ED, misc. LED, open-shell LED, HFLD
   Martin Brehm           : Molecular dynamics
   Dmytro Bykov           : SCF Hessian
   Vijay G. Chilkuri      : MRCI spin determinant printing, contributions to CSF-ICE
   Dipayan Datta          : RHF DLPNO-CCSD density
   Achintya Kumar Dutta   : EOM-CC, STEOM-CC
   Dmitry Ganyushin       : Spin-Orbit,Spin-Spin,Magnetic field MRCI
   Miquel Garcia          : C-PCM and meta-GGA Hessian, CC/C-PCM, Gaussian charge scheme
   Yang Guo               : DLPNO-NEVPT2, F12-NEVPT2, CIM, IAO-localization
   Andreas Hansen         : Spin unrestricted coupled pair/coupled cluster methods
   Benjamin Helmich-Paris : MC-RPA, TRAH-SCF, COSX integrals
   Lee Huntington         : MR-EOM, pCC
   Robert Izsak           : Overlap fitted RIJCOSX, COSX-SCS-MP3, EOM
   Marcus Kettner         : VPT2
   Christian Kollmar      : KDIIS, OOCD, Brueckner-CCSD(T), CCSD density, CASPT2, CASPT2-K
   Simone Kossmann        : Meta GGA functionals, TD-DFT gradient, OOMP2, MP2 Hessian
   Martin Krupicka        : Initial AUTO-CI
   Lucas Lang             : DCDCAS
   Marvin Lechner         : AUTO-CI (C++ implementation), FIC-MRCC
   Dagmar Lenk            : GEPOL surface, SMD
   Dimitrios Liakos       : Extrapolation schemes; Compound Job, initial MDCI parallelization
   Dimitrios Manganas     : Further ROCIS development; embedding schemes
   Dimitrios Pantazis     : SARC Basis sets
   Anastasios Papadopoulos: AUTO-CI, single reference methods and gradients
   Taras Petrenko         : DFT Hessian,TD-DFT gradient, ASA, ECA, R-Raman, ABS, FL, XAS/XES, NRVS
   Peter Pinski           : DLPNO-MP2, DLPNO-MP2 Gradient
   Christoph Reimann      : Effective Core Potentials
   Marius Retegan         : Local ZFS, SOC
   Christoph Riplinger    : Optimizer, TS searches, QM/MM, DLPNO-CCSD(T), (RO)-DLPNO pert. Triples
   Tobias Risthaus        : Range-separated hybrids, TD-DFT gradient, RPA, STAB
   Michael Roemelt        : Original ROCIS implementation
   Masaaki Saitow         : Open-shell DLPNO-CCSD energy and density
   Barbara Sandhoefer     : DKH picture change effects
   Avijit Sen             : IP-ROCIS
   Kantharuban Sivalingam : CASSCF convergence, NEVPT2, FIC-MRCI
   Bernardo de Souza      : ESD, SOC TD-DFT
   Georgi Stoychev        : AutoAux, RI-MP2 NMR, DLPNO-MP2 response
   Willem Van den Heuvel  : Paramagnetic NMR
   Boris Wezisla          : Elementary symmetry handling
   Frank Wennmohs         : Technical directorship


 We gratefully acknowledge several colleagues who have allowed us to
 interface, adapt or use parts of their codes:
   Stefan Grimme, W. Hujo, H. Kruse, P. Pracht,  : VdW corrections, initial TS optimization,
                  C. Bannwarth, S. Ehlert          DFT functionals, gCP, sTDA/sTD-DF
   Ed Valeev, F. Pavosevic, A. Kumar             : LibInt (2-el integral package), F12 methods
   Garnet Chan, S. Sharma, J. Yang, R. Olivares  : DMRG
   Ulf Ekstrom                                   : XCFun DFT Library
   Mihaly Kallay                                 : mrcc  (arbitrary order and MRCC methods)
   Jiri Pittner, Ondrej Demel                    : Mk-CCSD
   Frank Weinhold                                : gennbo (NPA and NBO analysis)
   Christopher J. Cramer and Donald G. Truhlar   : smd solvation model
   Lars Goerigk                                  : TD-DFT with DH, B97 family of functionals
   V. Asgeirsson, H. Jonsson                     : NEB implementation
   FAccTs GmbH                                   : IRC, NEB, NEB-TS, DLPNO-Multilevel, CI-OPT
                                                   MM, QMMM, 2- and 3-layer-ONIOM, Crystal-QMMM,
                                                   LR-CPCM, SF, NACMEs, symmetry and pop. for TD-DFT,
                                                   nearIR, NL-DFT gradient (VV10), updates on ESD,
                                                   ML-optimized integration grids
   S Lehtola, MJT Oliveira, MAL Marques          : LibXC Library
   Liviu Ungur et al                             : ANISO software


 Your calculation uses the libint2 library for the computation of 2-el integrals
 For citations please refer to: http://libint.valeyev.net

 Your ORCA version has been built with support for libXC version: 5.1.0
 For citations please refer to: https://tddft.org/programs/libxc/

 This ORCA versions uses:
   CBLAS   interface :  Fast vector & matrix operations
   LAPACKE interface :  Fast linear algebra routines
   SCALAPACK package :  Parallel linear algebra routines
   Shared memory     :  Shared parallel matrices
   BLAS/LAPACK       :  OpenBLAS 0.3.15  USE64BITINT DYNAMIC_ARCH NO_AFFINITY Prescott SINGLE_THREADED
        Core in use  :  Prescott
   Copyright (c) 2011-2014, The OpenBLAS Project




***************************************
The coordinates will be read from file: start.xyz
***************************************


Your calculation utilizes the atom-pairwise dispersion correction
with the Becke-Johnson damping scheme (D3BJ)
Cite in your paper:
S.Grimme, S.Ehrlich, L.Goerigk, J Comput Chem, (2011), 32, 1456–1465 
S.Grimme, J.Antony, S.Ehrlich and H.Krieg, J.Chem.Phys., 132, (2010), 154104 
   

Your calculation utilizes a Nudged-Elastic-Band implementation
 by V.Asgeirsson, C. Riplinger & H. Jonsson
Please cite in your paper:
 V. Asgeirsson et al., in prep. (2019)
   

================================================================================

----- Orbital basis set information -----
Your calculation utilizes the basis: def2-TZVP
   F. Weigend and R. Ahlrichs, Phys. Chem. Chem. Phys. 7, 3297 (2005).

----- AuxJ basis set information -----
Your calculation utilizes the auxiliary basis: def2/J
   F. Weigend, Phys. Chem. Chem. Phys. 8, 1057 (2006).

================================================================================
                                        WARNINGS
                       Please study these warnings very carefully!
================================================================================


WARNING: Geometry Optimization
  ===> : Switching off AutoStart
         For restart on a previous wavefunction, please use MOREAD

INFO   : the flag for use of the SHARK integral package has been found!

================================================================================
                                       INPUT FILE
================================================================================
NAME = neb.inp
|  1> ! NEB-TS b3lyp D3 def2-TZVP CPCM
|  2> 
|  3> %pal
|  4> nprocs 102
|  5> end
|  6> 
|  7> %cpcm
|  8> epsilon 78.4
|  9> end
| 10> 
| 11> %neb
| 12> NEB_End_XYZFile "end.xyz"
| 13> Nimages 6
| 14> end
| 15> 
| 16> 
| 17> *XYZfile -1 1 start.xyz
| 18> 
| 19>                          ****END OF INPUT****
================================================================================


--------------------------------------------------------------------------------
                        Nudged Elastic Band Calculation
--------------------------------------------------------------------------------

Number of images (incl. end points)     ....  8
Number of intermediate images           ....  6
Number of optimized images              ....  6
Optimization of end points before NEB   ....  NO
Use existing gbw files for MO input     ....  NO
Number of atoms                         ....  25
Number of (active) degrees of freedom   ....  75
Constrained atoms                       ....  None

-----------------------------------------
  REACTANT (ANGSTROEM)
-----------------------------------------
C      0.754641     3.327768     2.001717 
C      1.308969     2.052491     1.958685 
C      0.493701     0.941142     1.764189 
C     -0.882469     1.113850     1.611442 
C     -1.413878     2.392986     1.647185 
C     -0.613456     3.511318     1.843776 
H      1.391909     4.189321     2.154695 
H      2.375869     1.910456     2.073978 
H     -1.534587     0.263539     1.460284 
Cl    -3.143006     2.602947     1.442722 
H     -1.051810     4.499179     1.870881 
C      1.092630    -0.444872     1.766552 
C      0.609703    -1.321426     2.905566 
H      1.103473    -2.291697     2.889645 
H     -0.469895    -1.471013     2.878075 
H      0.864759    -0.821471     3.840769 
N      0.835438    -1.098100     0.417180 
O      1.128494    -0.450612    -0.579005 
O      0.401971    -2.238954     0.376517 
H      2.200412    -0.361056     1.783089 
O      6.488712    -0.850016     2.142982 
H      6.935430    -0.140436     2.616702 
H      5.517798    -0.507089     1.982814 
H      4.063282     0.564673     1.051449 
O      4.093711    -0.060315     1.784400 

-----------------------------------------
  PRODUCT (ANGSTROEM)
-----------------------------------------
C      1.337224     2.971508     0.941912 
C      1.399422     1.632142     0.587433 
C      1.103180     0.610147     1.519030 
C      0.734924     1.032868     2.817878 
C      0.684723     2.376155     3.140426 
C      0.979914     3.375381     2.224590 
H      1.579217     3.722977     0.199935 
H      1.680491     1.360577    -0.414934 
H      0.472396     0.314199     3.577754 
Cl     0.219811     2.829783     4.776683 
H      0.932159     4.419119     2.500429 
C      1.188956    -0.820902     1.257695 
C      1.179494    -1.824346     2.376835 
H      1.858881    -2.647205     2.150326 
H      0.191292    -2.270729     2.536446 
H      1.503429    -1.371805     3.310782 
N      1.172485    -1.343438     0.010336 
O      1.150874    -2.617395    -0.137169 
O      1.167058    -0.617106    -1.043291 
H      3.356413    -0.407690     1.312182 
O      3.739760    -0.093145     4.433082 
H      2.925623     0.422600     4.482369 
H      3.933432    -0.154036     3.476396 
H      4.760298    -1.029369     1.395213 
O      4.255854    -0.244937     1.646919 



----------------------
NEB settings
----------------------
Method type                             ....  climbing image
Threshold for climbing image            ....  2.00e-02 Eh/Bohr 
Free endpoints                          ....  off 
Tangent type                            ....  improved 
Number of intermediate images           ....  6 
Number of images free to move           ....  6 
Spring type for image distribution      ....  distance between adjacent images 
Spring constant                         ....  energy weighted (0.0100 -to- 0.1000) Eh/Bohr^2 
Spring force perp. to the path          ....  none 
Generation of initial path              ....  image dependent pair potential 
Initial path via TS guess               ....  off 

Minimization of RMSD: Rotation          ....  always 
Minimization of RMSD: Translation type  ....  centroid 
Center fixed to origin                  ....  true 
Remove external force                   ....  true 

Reparametrization of the path           ....  off 
Convergence thresholds:
Convergence monitored for               ....  all images
Scaling factor                          ....  10.00

Convergence parameters for regular images:
               Max(|Fp|)                ....  2.00e-02 Eh/Bohr
               RMS(Fp)                  ....  1.00e-02 Eh/Bohr

Convergence parameters for climbing image:
               Max(|F|)                 ....  2.00e-03 Eh/Bohr
               RMS(F)                   ....  1.00e-03 Eh/Bohr
Optimization method:
Method                                  ....  L-BFGS
Max. iterations                         ....  500 
Step size                               ....  1.00 
Maximum allowed step size               ....  0.10 Bohr

LBFGS parameters: 
               Memory                   ....  20 
               Initial step size        ....  0.0010 
               Estimate curvature       ....  YES 
               Reset on maxmove         ....  YES 
               Reparam. on reset        ....  NO 
Generation of  the initial path:
Minimize RMSD between reactant and product configurations     .... done
       RMSD before minimization         ....  2.4107 Bohr
       RMSD after minimization          ....  2.3163 Bohr
Performing linear interpolation         ....  done
Interpolation using                     ....  IDPP (Image Dependent Pair Potential)
IDPP-Settings:
       Remove global transl. and rot.   ...   true
       Convergence tolerance            ....  0.0100 1/Ang.^3
       Max. numer of iterations         ....    7000
       Spring constant                  ....  1.0000 1/Ang.^4
       Time step                        ....  0.0100 fs
       Max. movement per iteration      ....  0.0500 Ang.
       Full print                       ....  false 
idpp initial path generation successfully converged in 54 iterations
Displacement along initial path:             22.3893 Bohr
Writing initial trajectory to file      ....  neb_initial_path_trj.xyz



----------------------
NEB OPTIMIZATION      
----------------------

Following output files will be written:
Energy profile during opt. written to    ....  neb.interp
Optimization log-file                    ....  neb.NEB.log
Current trajectory will be written to    ....  neb_MEP_trj.xyz
       and to allxyz file                ....  neb_MEP.allxyz
       and individual images to xyz file ....  neb_im{NIm}.xyz
Trajectory history will be written to    ....  neb_MEP_ALL_trj.xyz
Converged CI will be written to          ....  neb_NEB-CI_converged.xyz
Converged TS will be written to          ....  neb_NEB-TS_converged.xyz

Single point energy and gradient calculation of reactant and
product configurations (have to be performed only once)
Properties of fixed NEB end points:
               Reactant:
                         E               ....  -1127.293315 Eh
                         RMS(F)          ....      0.000151 Eh/Bohr
                         MAX(|F|)        ....      0.000569 Eh/Bohr
               Product:
                         E               ....  -1127.314877 Eh
                         RMS(F)          ....      0.000321 Eh/Bohr
                         MAX(|F|)        ....      0.000924 Eh/Bohr



Starting iterations:

Optim.  Iteration  HEI  E(HEI)-E(0)  max(|Fp|)   RMS(Fp)    dS
Switch-on CI threshold               0.020000 
   LBFGS     0      3    0.092534    0.104356   0.015182  22.3893       
   LBFGS     1      3    0.062655    0.075101   0.010097  22.4305       
   LBFGS     2      3    0.047578    0.050176   0.007016  22.4949       
   LBFGS     3      3    0.041178    0.039080   0.005514  22.5285       
   LBFGS     4      4    0.036772    0.036372   0.004721  22.5417       
   LBFGS     5      4    0.034180    0.037028   0.004160  22.5548       
   LBFGS     6      4    0.032358    0.035420   0.004055  22.5564       
   LBFGS     7      4    0.030398    0.030830   0.003439  22.5873       
   LBFGS     8      4    0.028861    0.024742   0.002890  22.6120       
   LBFGS     9      4    0.027789    0.021865   0.002795  22.6401       
   LBFGS    10      4    0.026866    0.018103   0.002285  22.6709       

Image  4 will be converted to a climbing image in the next iteration (max(|Fp|) < 0.0200) 

Optim.  Iteration  CI   E(CI)-E(0)   max(|Fp|)   RMS(Fp)    dS     max(|FCI|)   RMS(FCI)
Convergence thresholds               0.020000   0.010000            0.002000    0.001000 
   LBFGS    11      4    0.026483    0.016917   0.002032  22.6827    0.009671    0.002817       
   LBFGS    12      4    0.025665    0.014763   0.001874  22.7086    0.009143    0.002615       
   LBFGS    13      4    0.025020    0.013275   0.001812  22.7341    0.008968    0.002485       
   LBFGS    14      4    0.024514    0.011707   0.002169  22.7603    0.008729    0.002518       
   LBFGS    15      4    0.024201    0.018149   0.003484  22.7907    0.009566    0.003094       
   LBFGS    16      4    0.023966    0.025200   0.004566  22.8247    0.012635    0.003684       
   LBFGS    17      4    0.023729    0.019146   0.003734  22.8398    0.009292    0.003156       
   LBFGS    18      4    0.023583    0.018160   0.003445  22.8561    0.008215    0.002976       
   LBFGS    19      4    0.023423    0.025780   0.003426  22.8846    0.010907    0.003093       
   LBFGS    20      4    0.023371    0.030347   0.003674  22.9088    0.011145    0.003249       
   LBFGS    21      4    0.023286    0.027593   0.003580  22.9301    0.010880    0.003188       
   LBFGS    22      4    0.023153    0.049598   0.003984  22.9571    0.009990    0.002920       
   LBFGS    23      4    0.023004    0.028760   0.002401  22.9776    0.007341    0.002072       
   LBFGS    24      4    0.022988    0.024965   0.002245  22.9925    0.007279    0.002062       
   LBFGS    25      4    0.022933    0.034355   0.002373  23.0276    0.006962    0.001749       
   LBFGS    26      4    0.022947    0.049417   0.003155  23.0479    0.007122    0.001842       
   LBFGS    27      4    0.022956    0.047956   0.003071  23.0691    0.007013    0.001848       
   LBFGS    28      4    0.022962    0.047682   0.003178  23.1049    0.006666    0.001536       
   LBFGS    29      4    0.022954    0.019220   0.001540  23.1213    0.006446    0.001369       
   LBFGS    30      4    0.022964    0.021730   0.001651  23.1321    0.006373    0.001369       
   LBFGS    31      4    0.022985    0.023442   0.001778  23.1822    0.006039    0.001225       
   LBFGS    32      4    0.022981    0.040287   0.002708  23.1931    0.006067    0.001209       
   LBFGS    33      4    0.022970    0.031323   0.002182  23.2062    0.005945    0.001174       
   LBFGS    34      4    0.022887    0.018491   0.001530  23.2548    0.005542    0.001082       
   LBFGS    35      4    0.022819    0.023980   0.001761  23.2705    0.005347    0.001069       
   LBFGS    36      4    0.022719    0.024072   0.001894  23.2881    0.005234    0.001105       
   LBFGS    37      4    0.022225    0.030814   0.002208  23.3475    0.007611    0.001364       
   LBFGS    38      4    0.022041    0.021259   0.001459  23.3548    0.008524    0.001432       
   LBFGS    39      4    0.021876    0.013738   0.001098  23.3594    0.009426    0.001516       
   LBFGS    40      4    0.020371    0.017176   0.001435  23.4047    0.015743    0.002202       
   LBFGS    41      4    0.019739    0.023090   0.001673  23.4240    0.017317    0.002376       
   LBFGS    42      4    0.018980    0.022440   0.001754  23.4451    0.018671    0.002536       
   LBFGS    43      4    0.016150    0.050201   0.002908  23.5501    0.021138    0.002861       
   LBFGS    44      4    0.015546    0.021615   0.001386  23.5829    0.021253    0.002862       
   LBFGS    45      4    0.015067    0.010042   0.000856  23.6023    0.021118    0.002857       
   LBFGS    46      4    0.012791    0.023950   0.002128  23.7175    0.019266    0.002819       
   LBFGS    47      4    0.012292    0.014373   0.001436  23.7448    0.019444    0.002720       
   LBFGS    48      4    0.011893    0.009745   0.000954  23.7746    0.018677    0.002579       
   LBFGS    49      4    0.010144    0.020121   0.002112  23.9498    0.013945    0.002832       
   LBFGS    50      4    0.009817    0.015196   0.001460  23.9629    0.014736    0.002307       
   LBFGS    51      4    0.009598    0.005090   0.000845  23.9832    0.014001    0.002066       
   LBFGS    52      4    0.008902    0.011867   0.001326  24.0655    0.011243    0.001989       
   LBFGS    53      4    0.007943    0.025029   0.002329  24.2328    0.007816    0.002280       
   LBFGS    54      4    0.007510    0.037126   0.003390  24.4869    0.014519    0.003656       
   LBFGS    55      4    0.007775    0.050892   0.004731  24.4820    0.024913    0.005261       
   LBFGS    56      4    0.006832    0.013129   0.001404  24.4970    0.004047    0.001198       
   LBFGS    57      4    0.006869    0.015262   0.001506  24.4958    0.006089    0.001637       
   LBFGS    58      4    0.006862    0.014080   0.001610  24.4771    0.006347    0.001774       
   LBFGS    59      4    0.006665    0.007994   0.000895  24.4797    0.003664    0.000884       
   LBFGS    60      4    0.006463    0.019690   0.001486  24.4967    0.005819    0.001577       
   LBFGS    61      4    0.006424    0.011571   0.001138  24.5087    0.003587    0.000845       
   LBFGS    62      4    0.006346    0.005734   0.000757  24.5218    0.003612    0.000727       
   LBFGS    63      4    0.006204    0.009815   0.001002  24.5467    0.003605    0.000722       
   LBFGS    64      4    0.005762    0.010521   0.001067  24.6593    0.003445    0.000635       
   LBFGS    65      4    0.005737    0.005068   0.000556  24.6635    0.003432    0.000591       
   LBFGS    66      4    0.005717    0.003663   0.000477  24.6672    0.003416    0.000579       
   LBFGS    67      4    0.005439    0.008970   0.000974  24.7332    0.003147    0.000615       
   LBFGS    68      4    0.005176    0.010700   0.001179  24.8249    0.002920    0.000614       
   LBFGS    69      4    0.004858    0.011876   0.001196  24.9591    0.002563    0.000611       
   LBFGS    70      4    0.004829    0.010812   0.000927  24.9752    0.002788    0.000521       
   LBFGS    71      4    0.004805    0.008780   0.000700  24.9846    0.002819    0.000499       
   LBFGS    72      4    0.004738    0.003934   0.000476  24.9997    0.002603    0.000471       
   LBFGS    73      4    0.004697    0.004385   0.000455  25.0099    0.002710    0.000443       
   LBFGS    74      4    0.004637    0.005149   0.000510  25.0251    0.002697    0.000441       
   LBFGS    75      4    0.004415    0.008634   0.000668  25.0978    0.002242    0.000521       
   LBFGS    76      4    0.004107    0.013638   0.001362  25.2402    0.002376    0.000632       
   LBFGS    77      4    0.004107    0.009547   0.000907  25.2353    0.002421    0.000537       
   LBFGS    78      4    0.003893    0.004884   0.000611  25.3363    0.001591    0.000530       

                                .--------------------.
          ----------------------| CI-NEB convergence |-------------------------
          Item                value                   Tolerance       Converged
          ---------------------------------------------------------------------
          RMS(Fp)             0.0006111250            0.0100000000      YES
          MAX(|Fp|)           0.0048840386            0.0200000000      YES
          RMS(FCI)            0.0005304432            0.0010000000      YES
          MAX(|FCI|)          0.0015909014            0.0020000000      YES
          ---------------------------------------------------------------------

The elastic band and climbing image have converged successfully to a MEP in 78 iterations!


                    *********************H U R R A Y*********************
                    ***        THE NEB OPTIMIZATION HAS CONVERGED     ***
                    *****************************************************



---------------------------------------------------------------
                         PATH SUMMARY              
---------------------------------------------------------------
All forces in Eh/Bohr.

Image Dist.(Ang.)    E(Eh)   dE(kcal/mol)  max(|Fp|)  RMS(Fp)
  0     0.000   -1127.29332      0.00       0.00057   0.00015
  1     2.979   -1127.29191      0.88       0.00110   0.00036
  2     4.624   -1127.29045      1.80       0.00137   0.00033
  3     6.040   -1127.28996      2.10       0.00488   0.00123
  4     7.250   -1127.28942      2.44       0.00179   0.00050 <= CI
  5     7.741   -1127.29122      1.31       0.00302   0.00089
  6     8.584   -1127.30900     -9.84       0.00110   0.00025
  7    13.407   -1127.31488    -13.53       0.00092   0.00032

Straight line distance between images along the path:
        D( 0- 1) =   2.9785 Ang.
        D( 1- 2) =   1.6452 Ang.
        D( 2- 3) =   1.4163 Ang.
        D( 3- 4) =   1.2098 Ang.
        D( 4- 5) =   0.4912 Ang.
        D( 5- 6) =   0.8429 Ang.
        D( 6- 7) =   4.8235 Ang.

---------------------------------------------------------------
               INFORMATION ABOUT SADDLE POINT     
---------------------------------------------------------------

Climbing image                            ....  4 
Energy                                    ....  -1127.28942208 Eh
Max. abs. force                           ....  1.5909e-03 Eh/Bohr

-----------------------------------------
  SADDLE POINT (ANGSTROEM)
-----------------------------------------
C     -0.598381     2.674982    -0.581870 
C     -0.126437     1.394594    -0.830112 
C     -0.744431     0.280665    -0.259712 
C     -1.860076     0.468440     0.554547 
C     -2.315382     1.758194     0.798995 
C     -1.697768     2.871149     0.248401 
H     -0.099005     3.529984    -1.019012 
H      0.752264     1.244358    -1.442571 
H     -2.362942    -0.369925     1.015138 
Cl    -3.697857     1.986847     1.856841 
H     -2.056787     3.866849     0.470230 
C     -0.106610    -1.067398    -0.461076 
C     -0.349434    -2.102526     0.629299 
H      0.280484    -2.971564     0.458899 
H     -1.389345    -2.430155     0.687808 
H     -0.070098    -1.664482     1.587396 
N     -0.446943    -1.665929    -1.808309 
O      0.044126    -2.759430    -2.068479 
O     -1.138825    -1.037730    -2.599766 
H      1.007586    -0.901304    -0.538746 
O      3.934148    -0.946296     1.800129 
H      3.768893    -0.134052     2.291335 
H      3.487137    -0.798375     0.883191 
H      3.084621    -0.691899    -1.271269 
O      2.701062    -0.534996    -0.401286 

-----------------------------------------
  FORCES (Eh/Bohr)
-----------------------------------------
C     -0.000059    -0.000209    -0.000066 
C      0.000188     0.000254     0.000112 
C      0.000077    -0.000013     0.000444 
C      0.000242     0.000242     0.000092 
C      0.000046    -0.000293    -0.000055 
C     -0.000241     0.000170    -0.000461 
H     -0.000325     0.000269     0.000045 
H      0.000355     0.000502     0.000177 
H      0.000218    -0.000059     0.000022 
Cl     0.000031    -0.000336    -0.000318 
H     -0.000436    -0.000314    -0.000177 
C     -0.000610    -0.000260     0.000234 
C      0.000345    -0.000386     0.000154 
H      0.000036    -0.000742     0.000098 
H      0.000058     0.000939    -0.000578 
H     -0.000021     0.000244    -0.000103 
N     -0.000846     0.000390    -0.000236 
O     -0.001387     0.001427     0.000062 
O      0.000699    -0.000814     0.001077 
H     -0.001244    -0.000622     0.000270 
O     -0.000208    -0.000197    -0.000160 
H      0.000282    -0.000234     0.000003 
H     -0.000022     0.000092    -0.000204 
H      0.001591    -0.000522     0.001077 
O      0.001305     0.000367    -0.001054 

-----------------------------------------
  UNIT TANGENT
-----------------------------------------
C     -0.031849    -0.001386    -0.024271 
C     -0.036115     0.001568    -0.041801 
C     -0.005551    -0.005633    -0.017418 
C      0.030345    -0.005675     0.036229 
C      0.033293    -0.007112     0.054930 
C      0.001528    -0.004062     0.024953 
H     -0.054135    -0.000605    -0.050664 
H     -0.065541     0.006785    -0.086551 
H      0.053617    -0.006555     0.063349 
Cl     0.076534    -0.011635     0.120005 
H      0.004446    -0.004954     0.035390 
C     -0.020283    -0.003087    -0.033435 
C      0.058090     0.006750    -0.011279 
H      0.092742     0.032099    -0.004977 
H      0.071497    -0.046144     0.013864 
H      0.053878     0.030044    -0.021040 
N      0.053191     0.018807    -0.013463 
O     -0.248905    -0.379807     0.259159 
O      0.432773     0.424619    -0.362121 
H      0.104736     0.041048    -0.027011 
O     -0.046548     0.044944     0.041212 
H     -0.126478     0.056115     0.005655 
H     -0.062971    -0.042926     0.058099 
H     -0.185866     0.008935    -0.033882 
O     -0.182430    -0.152132     0.015066 
 => Unit tangent is an approximation to the TS mode at the saddle point

Next a TS optimization is performed on the CI from the NEB run.

         *************************************************************
         *                       TS OPTIMIZATION                     *
         *************************************************************


Following output files will be written:
Converged TS will be written to          ....  neb_NEB-TS_converged.xyz
                                         ....  neb.xyz
Current trajectory will be written to    ....  neb_trj.xyz
Initial Hessian will be stored in        ....  neb.appr.hess
Geometry optimization settings:
Update method            Update   .... Bofill
Choice of coordinates    CoordSys .... Z-matrix Internals
Initial Hessian          InHess   .... Read

Convergence Tolerances:
Energy Change            TolE     ....  5.0000e-06 Eh
Max. Gradient            TolMAXG  ....  3.0000e-04 Eh/bohr
RMS Gradient             TolRMSG  ....  1.0000e-04 Eh/bohr
Max. Displacement        TolMAXD  ....  4.0000e-03 bohr
RMS Displacement         TolRMSD  ....  2.0000e-03 bohr
Strict Convergence                ....  False
------------------------------------------------------------------------------
                        ORCA OPTIMIZATION COORDINATE SETUP
------------------------------------------------------------------------------

The optimization will be done in new redundant internal coordinates
Making redundant internal coordinates   ...  (new redundants) done
Following TS mode number                ...     0
TS-active-atoms for coordinate setup... 17 18 
Evaluating the initial hessian          ... (Reading Exact Hessian)...  
InHessName: neb.appr.hess	The file <neb.appr.hess> is opened as a .hess file
done
done
Diagonalizing the Hessian               .... done
Dimension of the hessian                .... 130
Lowest eigenvalues of the non projected Hessian:
 -0.010393198 -0.000000000 -0.000000000 -0.000000000 -0.000000000
done
Evaluating the coordinates              ...  done
Calculating the B-matrix                .... done
Calculating the G-matrix                .... done
Diagonalizing the G-matrix              .... done
Small eigenvalue found = 1.148e-02
Small eigenvalue found = 2.028e-02
Small eigenvalue found = 2.723e-02
The first mode is                       ....   61
The number of degrees of freedom        ....   69

    -----------------------------------------------------------------
                    Redundant Internal Coordinates


    -----------------------------------------------------------------
         Definition                    Initial Value    d2E/dq (diagonal element)
    -----------------------------------------------------------------
      1. B(C   1,C   0)                  1.3870         0.583688   
      2. B(C   2,C   1)                  1.3957         0.565829   
      3. B(C   3,C   2)                  1.3939         0.569722   
      4. B(C   4,C   3)                  1.3894         0.578857   
      5. B(C   5,C   0)                  1.3916         0.574400   
      6. B(C   5,C   4)                  1.3868         0.583909   
      7. B(H   6,C   0)                  1.0824         0.370360   
      8. B(H   7,C   1)                  1.0816         0.371433   
      9. B(H   8,C   3)                  1.0807         0.372639   
     10. B(Cl  9,C   4)                  1.7557         0.365783   
     11. B(H  10,C   5)                  1.0814         0.371598   
     12. B(C  11,C   2)                  1.5049         0.409647   
     13. B(C  12,C  11)                  1.5229         0.383884   
     14. B(H  13,C  12)                  1.0868         0.364529   
     15. B(H  14,C  12)                  1.0919         0.358149   
     16. B(H  15,C  12)                  1.0899         0.360254   
     17. B(N  16,C  11)                  1.5130         0.206511   
     18. B(O  17,C  11)                  2.3387         0.103971   
     19. B(O  17,N  16)                  1.2266         0.402210   
     20. B(O  18,O  17)                  2.1554         0.126189   
     21. B(O  18,C  11)                  2.3749         0.102971   
     22. B(O  18,N  16)                  1.2246         0.399212   
     23. B(H  19,C  11)                  1.1292         0.382903   
     24. B(H  21,O  20)                  0.9635         0.513565   
     25. B(H  22,O  20)                  1.0308         0.400416   
     26. B(H  23,H  19)                  2.2124         0.042386   
     27. B(O  24,H  22)                  1.5288         0.065007   
     28. B(O  24,H  19)                  1.7381         0.060207   
     29. B(O  24,H  23)                  0.9636         0.346806   
     30. A(C   1,C   0,C   5)          120.3803         0.159837   
     31. A(C   5,C   0,H   6)          119.6116         0.217451   
     32. A(C   1,C   0,H   6)          119.9968         0.217555   
     33. A(C   0,C   1,H   7)          120.3991         0.217590   
     34. A(C   2,C   1,H   7)          118.7036         0.217602   
     35. A(C   0,C   1,C   2)          120.8602         0.161574   
     36. A(C   1,C   2,C   3)          119.0518         0.160757   
     37. A(C   1,C   2,C  11)          118.2020         0.264388   
     38. A(C   3,C   2,C  11)          122.5525         0.269016   
     39. A(C   2,C   3,H   8)          121.1246         0.217718   
     40. A(C   2,C   3,C   4)          119.3472         0.160987   
     41. A(C   4,C   3,H   8)          119.5151         0.217693   
     42. A(C   5,C   4,Cl  9)          119.0363         0.248577   
     43. A(C   3,C   4,Cl  9)          119.0073         0.248216   
     44. A(C   3,C   4,C   5)          121.9490         0.165275   
     45. A(C   0,C   5,H  10)          120.9607         0.217545   
     46. A(C   0,C   5,C   4)          118.3974         0.159689   
     47. A(C   4,C   5,H  10)          120.6378         0.217759   
     48. A(C   2,C  11,H  19)          107.1966         0.051987   
     49. A(C   2,C  11,N  16)          112.2215         0.071850   
     50. A(C  12,C  11,N  16)          109.4377         0.078695   
     51. A(C   2,C  11,C  12)          116.4543         0.083881   
     52. A(N  16,C  11,H  19)          102.6443         0.045171   
     53. A(C  12,C  11,H  19)          107.8514         0.062994   
     54. A(H  14,C  12,H  15)          108.5175         0.116416   
     55. A(H  13,C  12,H  15)          108.0998         0.106528   
     56. A(C  11,C  12,H  15)          108.3817         0.224019   
     57. A(H  13,C  12,H  14)          108.6931         0.121003   
     58. A(C  11,C  12,H  14)          113.2142         0.228214   
     59. A(C  11,C  12,H  13)          109.8061         0.225589   
     60. A(O  17,N  16,O  18)          123.1206         0.139884   
     61. A(C  11,N  16,O  18)          119.9759         0.134116   
     62. A(C  11,N  16,O  17)          116.8388         0.131573   
     63. A(H  23,H  19,O  24)           24.7010         0.025080   
     64. A(C  11,H  19,O  24)          170.7384         0.088297   
     65. A(C  11,H  19,H  23)          164.3807         0.084090   
     66. A(H  21,O  20,H  22)          104.9608         0.310097   
     67. A(O  20,H  22,O  24)          174.3406         0.253050   
     68. A(H  19,H  23,O  24)           48.9135         0.026101   
     69. A(H  19,O  24,H  22)          122.0817         0.157291   
     70. A(H  22,O  24,H  23)          121.7237         0.112779   
     71. A(H  19,O  24,H  23)          106.3855         0.055409   
     72. D(H   7,C   1,C   0,H   6)      1.2855         0.012235   
     73. D(C   2,C   1,C   0,C   5)      0.2654         0.010498   
     74. D(H   7,C   1,C   0,C   5)   -177.4894         0.010270   
     75. D(C   2,C   1,C   0,H   6)    179.0404         0.010185   
     76. D(C   3,C   2,C   1,C   0)      0.8259         0.007521   
     77. D(C  11,C   2,C   1,H   7)      3.5450         0.014051   
     78. D(C   3,C   2,C   1,H   7)    178.6181         0.008877   
     79. D(C  11,C   2,C   1,C   0)   -174.2472         0.010149   
     80. D(H   8,C   3,C   2,C   1)   -179.8456         0.009778   
     81. D(H   8,C   3,C   2,C  11)     -4.9974         0.010133   
     82. D(C   4,C   3,C   2,C  11)    173.6755         0.013704   
     83. D(C   4,C   3,C   2,C   1)     -1.1726         0.009007   
     84. D(C   5,C   4,C   3,H   8)    179.1510         0.010109   
     85. D(Cl  9,C   4,C   3,C   2)   -178.5475         0.015004   
     86. D(C   5,C   4,C   3,C   2)      0.4564         0.011482   
     87. D(Cl  9,C   4,C   3,H   8)      0.1471         0.011959   
     88. D(H  10,C   5,C   4,Cl  9)      0.3510         0.013067   
     89. D(C   0,C   5,C   4,Cl  9)    179.6292         0.011150   
     90. D(C   0,C   5,C   4,C   3)      0.6256         0.009284   
     91. D(H  10,C   5,C   0,H   6)     -0.4852         0.012396   
     92. D(C   4,C   5,C   0,H   6)   -179.7610         0.009708   
     93. D(H  10,C   5,C   4,C   3)   -178.6526         0.009946   
     94. D(C   4,C   5,C   0,C   1)     -0.9813         0.009793   
     95. D(H  10,C   5,C   0,C   1)    178.2945         0.011254   
     96. D(H  19,C  11,C   2,C   3)   -143.9524         0.055446   
     97. D(H  19,C  11,C   2,C   1)     30.9373         0.041435   
     98. D(N  16,C  11,C   2,C   3)    104.0876         0.038585   
     99. D(N  16,C  11,C   2,C   1)    -81.0227         0.028368   
    100. D(C  12,C  11,C   2,C   3)    -23.1271         0.022641   
    101. D(C  12,C  11,C   2,C   1)    151.7626         0.017527   
    102. D(H  13,C  12,C  11,C   2)   -171.0321         0.030954   
    103. D(H  15,C  12,C  11,N  16)    178.2733         0.029452   
    104. D(H  15,C  12,C  11,C   2)    -53.1511         0.028160   
    105. D(H  14,C  12,C  11,H  19)   -172.2321         0.028330   
    106. D(H  14,C  12,C  11,N  16)    -61.2841         0.028021   
    107. D(H  14,C  12,C  11,C   2)     67.2915         0.029251   
    108. D(H  13,C  12,C  11,H  19)    -50.5557         0.028507   
    109. D(H  15,C  12,C  11,H  19)     67.3253         0.029437   
    110. D(H  13,C  12,C  11,N  16)     60.3923         0.027970   
    111. D(O  18,N  16,C  11,H  19)   -112.8483         0.031873   
    112. D(O  18,N  16,C  11,C  12)    132.8007         0.046190   
    113. D(O  18,N  16,C  11,C   2)      1.9205         0.043878   
    114. D(O  17,N  16,C  11,H  19)     64.3176         0.025129   
    115. D(O  17,N  16,C  11,C  12)    -50.0334         0.034965   
    116. D(O  17,N  16,C  11,C   2)    179.0864         0.033009   
    117. D(O  24,H  19,C  11,N  16)    177.7909         0.051107   
    118. D(O  24,H  19,C  11,C  12)    -66.7064         0.045481   
    119. D(O  24,H  19,C  11,C   2)     59.4215         0.071099   
    120. D(H  23,H  19,C  11,N  16)     11.9523         0.045585   
    121. D(H  23,H  19,C  11,C  12)    127.4550         0.044517   
    122. D(H  23,H  19,C  11,C   2)   -106.4171         0.050145   
    123. D(O  24,H  22,O  20,H  21)    -49.4153         0.160407   
    124. D(O  24,H  23,H  19,C  11)    174.5933         0.044829   
    125. D(H  19,O  24,H  22,O  20)    -37.9457         0.013333   
    126. D(H  23,O  24,H  22,O  20)   -179.1089         0.014757   
    127. D(H  22,O  24,H  19,H  23)   -146.2209         0.029386   
    128. D(H  22,O  24,H  19,C  11)     42.8487         0.029353   
    129. D(H  22,O  24,H  23,H  19)    146.3695         0.080979   
    130. D(H  23,O  24,H  19,C  11)   -170.9305         0.020818   
    -----------------------------------------------------------------

Number of atoms                         .... 25
Number of degrees of freedom            .... 130

         *************************************************************
         *                GEOMETRY OPTIMIZATION CYCLE   1            *
         *************************************************************


           ************************************************************
           *        Program running with 102 parallel MPI-processes   *
           *              working on a common directory               *
           ************************************************************
------------------------------------------------------------------------------
                           ORCA GTO INTEGRAL CALCULATION
                           -- RI-GTO INTEGRALS CHOSEN --
------------------------------------------------------------------------------
------------------------------------------------------------------------------
                   ___                                                        
                  /   \      - P O W E R E D   B Y -                         
                 /     \                                                     
                 |  |  |   _    _      __       _____    __    __             
                 |  |  |  | |  | |    /  \     |  _  \  |  |  /  |          
                  \  \/   | |  | |   /    \    | | | |  |  | /  /          
                 / \  \   | |__| |  /  /\  \   | |_| |  |  |/  /          
                |  |  |   |  __  | /  /__\  \  |    /   |      \           
                |  |  |   | |  | | |   __   |  |    \   |  |\   \          
                \     /   | |  | | |  |  |  |  | |\  \  |  | \   \       
                 \___/    |_|  |_| |__|  |__|  |_| \__\ |__|  \__/        
                                                                              
                      - O R C A' S   B I G   F R I E N D -                    
                                      &                                       
                       - I N T E G R A L  F E E D E R -                       
                                                                              
 v1 FN, 2020, v2 2021                                                         
------------------------------------------------------------------------------


Reading SHARK input file neb.SHARKINP.tmp ... ok
----------------------
SHARK INTEGRAL PACKAGE
----------------------

Number of atoms                             ...     25
Number of basis functions                   ...    506
Number of shells                            ...    200
Maximum angular momentum                    ...      3
Integral batch strategy                     ... SHARK/LIBINT Hybrid
RI-J (if used) integral strategy            ... SPLIT-RIJ (Revised 2003 algorithm where possible)
Printlevel                                  ...      1
Contraction scheme used                     ... SEGMENTED contraction
Coulomb Range Separation                    ... NOT USED
Exchange Range Separation                   ... NOT USED
Finite Nucleus Model                        ... NOT USED
Auxiliary Coulomb fitting basis             ... AVAILABLE
   # of basis functions in Aux-J            ...    809
   # of shells in Aux-J                     ...    267
   Maximum angular momentum in Aux-J        ...      4
Auxiliary J/K fitting basis                 ... NOT available
Auxiliary Correlation fitting basis         ... NOT available
Auxiliary 'external' fitting basis          ... NOT available
Integral threshold                          ...     2.500000e-11
Primitive cut-off                           ...     2.500000e-12
Primitive pair pre-selection threshold      ...     2.500000e-12

Calculating pre-screening integrals         ... done (  0.1 sec) Dimension = 200
Organizing shell pair data                  ... done (  0.4 sec)
Shell pair information
Total number of shell pairs                 ...     20100
Shell pairs after pre-screening             ...     15549
Total number of primitive shell pairs       ...     62836
Primitive shell pairs kept                  ...     33158
          la=0 lb=0:   4034 shell pairs
          la=1 lb=0:   4485 shell pairs
          la=1 lb=1:   1293 shell pairs
          la=2 lb=0:   2185 shell pairs
          la=2 lb=1:   1252 shell pairs
          la=2 lb=2:    317 shell pairs
          la=3 lb=0:   1036 shell pairs
          la=3 lb=1:    590 shell pairs
          la=3 lb=2:    284 shell pairs
          la=3 lb=3:     73 shell pairs

Calculating one electron integrals          ... done (  0.1 sec)
Calculating RI/J V-Matrix + Cholesky decomp.... done (  0.1 sec)
Calculating Nuclear repulsion               ... done (  0.0 sec) ENN=    980.611109566008 Eh

SHARK setup successfully completed in   1.1 seconds

Maximum memory used throughout the entire GTOINT-calculation: 29.4 MB


           ************************************************************
           *        Program running with 102 parallel MPI-processes   *
           *              working on a common directory               *
           ************************************************************
-------------------------------------------------------------------------------
                                 ORCA SCF
-------------------------------------------------------------------------------

------------
SCF SETTINGS
------------
Hamiltonian:
 Density Functional     Method          .... DFT(GTOs)
 Exchange Functional    Exchange        .... B88
   X-Alpha parameter    XAlpha          ....  0.666667
   Becke's b parameter  XBeta           ....  0.004200
 Correlation Functional Correlation     .... LYP
 LDA part of GGA corr.  LDAOpt          .... VWN-5
 Gradients option       PostSCFGGA      .... off
 Hybrid DFT is turned on
   Fraction HF Exchange ScalHFX         ....  0.200000
   Scaling of DF-GGA-X  ScalDFX         ....  0.720000
   Scaling of DF-GGA-C  ScalDFC         ....  0.810000
   Scaling of DF-LDA-C  ScalLDAC        ....  1.000000
   Perturbative correction              ....  0.000000
   Density functional embedding theory  .... OFF
   NL short-range parameter             ....  4.800000
 RI-approximation to the Coulomb term is turned on
   Number of AuxJ basis functions       .... 809
   RIJ-COSX (HFX calculated with COS-X)).... on


General Settings:
 Integral files         IntName         .... neb
 Hartree-Fock type      HFTyp           .... RHF
 Total Charge           Charge          ....   -1
 Multiplicity           Mult            ....    1
 Number of Electrons    NEL             ....  116
 Basis Dimension        Dim             ....  506
 Nuclear Repulsion      ENuc            ....    980.6111095660 Eh

Convergence Acceleration:
 DIIS                   CNVDIIS         .... on
   Start iteration      DIISMaxIt       ....    12
   Startup error        DIISStart       ....  0.200000
   # of expansion vecs  DIISMaxEq       ....     5
   Bias factor          DIISBfac        ....   1.050
   Max. coefficient     DIISMaxC        ....  10.000
 Trust-Rad. Augm. Hess. CNVTRAH         .... auto
   Auto Start mean grad. ratio tolernc. ....  1.125000
   Auto Start start iteration           ....     1
   Auto Start num. interpolation iter.  ....    10
   Max. Number of Micro iterations      ....    16
   Max. Number of Macro iterations      .... Maxiter - #DIIS iter
   Number of Davidson start vectors     ....     2
   Converg. threshold I  (grad. norm)   ....   1.000e-05
   Converg. threshold II (energy diff.) ....   1.000e-08
   Grad. Scal. Fac. for Micro threshold ....   0.100
   Minimum threshold for Micro iter.    ....   0.010
   NR start threshold (gradient norm)   ....   0.001
   Initial trust radius                 ....   0.400
   Minimum AH scaling param. (alpha)    ....   1.000
   Maximum AH scaling param. (alpha)    .... 1000.000
   Orbital update algorithm             .... Taylor
   White noise on init. David. guess    .... on
   Maximum white noise                  ....   0.010
   Quad. conv. algorithm                .... NR
 SOSCF                  CNVSOSCF        .... on
   Start iteration      SOSCFMaxIt      ....   150
   Startup grad/error   SOSCFStart      ....  0.003300
 Level Shifting         CNVShift        .... on
   Level shift para.    LevelShift      ....    0.2500
   Turn off err/grad.   ShiftErr        ....    0.0010
 Zerner damping         CNVZerner       .... off
 Static damping         CNVDamp         .... on
   Fraction old density DampFac         ....    0.7000
   Max. Damping (<1)    DampMax         ....    0.9800
   Min. Damping (>=0)   DampMin         ....    0.0000
   Turn off err/grad.   DampErr         ....    0.1000
 Fernandez-Rico         CNVRico         .... off

SCF Procedure:
 Maximum # iterations   MaxIter         ....   125
 SCF integral mode      SCFMode         .... Direct
   Integral package                     .... SHARK and LIBINT hybrid scheme
 Reset frequency        DirectResetFreq ....    20
 Integral Threshold     Thresh          ....  2.500e-11 Eh
 Primitive CutOff       TCut            ....  2.500e-12 Eh

Convergence Tolerance:
 Convergence Check Mode ConvCheckMode   .... Total+1el-Energy
 Convergence forced     ConvForced      .... 0
 Energy Change          TolE            ....  1.000e-08 Eh
 1-El. energy change                    ....  1.000e-05 Eh
 Orbital Gradient       TolG            ....  1.000e-05
 Orbital Rotation angle TolX            ....  1.000e-05
 DIIS Error             TolErr          ....  5.000e-07


Diagonalization of the overlap matrix:
Smallest eigenvalue                        ... 8.094e-06
Time for diagonalization                   ...    0.130 sec
Threshold for overlap eigenvalues          ... 1.000e-08
Number of eigenvalues below threshold      ... 0
Time for construction of square roots      ...    0.177 sec
Total time needed                          ...    0.310 sec

---------------------
INITIAL GUESS: MOREAD
---------------------
Guess MOs are being read from file: neb.gbw
Input Geometry matches current geometry (good)
Input basis set matches current basis set (good)
MOs were renormalized
MOs were reorthogonalized (Cholesky)
                      ------------------
                      INITIAL GUESS DONE (   0.4 sec)
                      ------------------
-------------------
DFT GRID GENERATION
-------------------

General Integration Accuracy     IntAcc      ... 4.388
Radial Grid Type                 RadialGrid  ... OptM3 with GC (2021)
Angular Grid (max. ang.)         AngularGrid ... 4 (Lebedev-302)
Angular grid pruning method      GridPruning ... 4 (adaptive)
Weight generation scheme         WeightScheme... Becke
Basis function cutoff            BFCut       ... 1.0000e-11
Integration weight cutoff        WCut        ... 1.0000e-14
Angular grids for H and He will be reduced by one unit
Partially contracted basis set               ... off
Rotationally invariant grid construction     ... off

Total number of grid points                  ...   120863
Total number of batches                      ...     1904
Average number of points per batch           ...       63
Average number of grid points per atom       ...     4835
Time for grid setup =    0.998 sec

--------------------
COSX GRID GENERATION
--------------------

GRIDX 1
-------
General Integration Accuracy     IntAcc      ... 3.816
Radial Grid Type                 RadialGrid  ... OptM3 with GC (2021)
Angular Grid (max. ang.)         AngularGrid ... 1 (Lebedev-50)
Angular grid pruning method      GridPruning ... 4 (adaptive)
Weight generation scheme         WeightScheme... Becke
Basis function cutoff            BFCut       ... 1.0000e-11
Integration weight cutoff        WCut        ... 1.0000e-14
Angular grids for H and He will be reduced by one unit
Partially contracted basis set               ... on
Rotationally invariant grid construction     ... off

Total number of grid points                  ...    15309
Total number of batches                      ...      251
Average number of points per batch           ...       60
Average number of grid points per atom       ...      612
UseSFitting                                  ... on

GRIDX 2
-------
General Integration Accuracy     IntAcc      ... 4.020
Radial Grid Type                 RadialGrid  ... OptM3 with GC (2021)
Angular Grid (max. ang.)         AngularGrid ... 2 (Lebedev-110)
Angular grid pruning method      GridPruning ... 4 (adaptive)
Weight generation scheme         WeightScheme... Becke
Basis function cutoff            BFCut       ... 1.0000e-11
Integration weight cutoff        WCut        ... 1.0000e-14
Angular grids for H and He will be reduced by one unit
Partially contracted basis set               ... on
Rotationally invariant grid construction     ... off

Total number of grid points                  ...    33431
Total number of batches                      ...      535
Average number of points per batch           ...       62
Average number of grid points per atom       ...     1337
UseSFitting                                  ... on

GRIDX 3
-------
General Integration Accuracy     IntAcc      ... 4.338
Radial Grid Type                 RadialGrid  ... OptM3 with GC (2021)
Angular Grid (max. ang.)         AngularGrid ... 3 (Lebedev-194)
Angular grid pruning method      GridPruning ... 4 (adaptive)
Weight generation scheme         WeightScheme... Becke
Basis function cutoff            BFCut       ... 1.0000e-11
Integration weight cutoff        WCut        ... 1.0000e-14
Angular grids for H and He will be reduced by one unit
Partially contracted basis set               ... on
Rotationally invariant grid construction     ... off

Total number of grid points                  ...    73863
Total number of batches                      ...     1168
Average number of points per batch           ...       63
Average number of grid points per atom       ...     2955
UseSFitting                                  ... on

Time for X-Grid setup             =    1.448 sec


--------------------
CPCM SOLVATION MODEL
--------------------
CPCM parameters:
  Epsilon                                         ...      78.4000
  Refrac                                          ...       1.3300
  Rsolv                                           ...       1.3000
  Surface type                                    ... GAUSSIAN VDW
  Epsilon function type                           ...         CPCM
Radii:
 Radius for C  used is    3.8550 Bohr (=   2.0400 Ang.)
 Radius for H  used is    2.4944 Bohr (=   1.3200 Ang.)
 Radius for Cl used is    3.9684 Bohr (=   2.1000 Ang.)
 Radius for N  used is    3.5149 Bohr (=   1.8600 Ang.)
 Radius for O  used is    3.4469 Bohr (=   1.8240 Ang.)
Calculating surface                               ...        done! (  0.0s)
GEPOL surface points                              ...         1437
GEPOL Volume                                      ...    1712.1016
GEPOL Surface-area                                ...     968.5013
Calculating surface distance matrix               ...        done! (  0.1s)
Performing Cholesky decomposition & store         ...        done! (  0.4s)
Overall time for CPCM initialization              ...                 0.6s
--------------
SCF ITERATIONS
--------------
ITER       Energy         Delta-E        Max-DP      RMS-DP      [F,P]     Damp
               ***  Starting incremental Fock matrix formation  ***
                      *** Initiating the SOSCF procedure ***
                      *** Re-Reading the Fockian *** 
                      *** Removing any level shift *** 
ITER      Energy       Delta-E        Grad      Rot      Max-DP    RMS-DP
  0  -1127.24309080 -1127.2430907975  0.000000  0.000000  0.000469  0.000003
               *** Restarting incremental Fock matrix formation ***
                 **** Energy Check signals convergence ****
              ***Rediagonalizing the Fockian in SOSCF/NRSCF***

               *****************************************************
               *                     SUCCESS                       *
               *           SCF CONVERGED AFTER   1 CYCLES          *
               *****************************************************

Old exchange energy                            =    -22.513808457 Eh
New exchange energy                            =    -22.513832879 Eh
Exchange energy change after final integration =     -0.000024422 Eh
Total energy after final integration           =  -1127.243115219 Eh
Final COS-X integration done in                =     1.569 sec

----------------
TOTAL SCF ENERGY
----------------

Total Energy       :        -1127.24311522 Eh          -30673.84459 eV

Components:
Nuclear Repulsion  :          980.61110957 Eh           26683.78487 eV
Electronic Energy  :        -2107.85422479 Eh          -57357.62946 eV
One Electron Energy:        -3510.10868013 Eh          -95514.91307 eV
Two Electron Energy:         1402.25445534 Eh           38157.28361 eV
Max COSX asymmetry :            0.00000234 Eh               0.00006 eV
CPCM Dielectric    :           -0.10190458 Eh              -2.77296 eV

Virial components:
Potential Energy   :        -2251.17417058 Eh          -61257.56346 eV
Kinetic Energy     :         1123.93105536 Eh           30583.71886 eV
Virial Ratio       :            2.00294685


DFT components:
N(Alpha)           :       58.000135225738 electrons
N(Beta)            :       58.000135225738 electrons
N(Total)           :      116.000270451475 electrons
E(X)               :      -89.578300594568 Eh       
E(C)               :       -4.835509862800 Eh       
E(XC)              :      -94.413810457368 Eh       
DFET-embed. en.    :        0.000000000000 Eh       
CPCM Solvation Model Properties:
Surface-charge          :            0.97091499
Charge-correction       :           -0.00367664 Eh              -0.10005 eV
Free-energy (cav+disp)  :  This term is not implemented in the current solvation scheme

---------------
SCF CONVERGENCE
---------------

  Last Energy change         ...    6.8667e-11  Tolerance :   1.0000e-08
  Last MAX-Density change    ...    1.1102e-15  Tolerance :   1.0000e-07
  Last RMS-Density change    ...    1.7118e-17  Tolerance :   5.0000e-09
  Last Orbital Gradient      ...    6.0617e-07  Tolerance :   1.0000e-05
  Last Orbital Rotation      ...    9.3526e-07  Tolerance :   1.0000e-05

             **** THE GBW FILE WAS UPDATED (neb.gbw) ****
             **** DENSITY neb.scfp WAS UPDATED ****
             **** ENERGY FILE WAS UPDATED (neb.en.tmp) ****
             **** THE GBW FILE WAS UPDATED (neb.gbw) ****
             **** DENSITY neb.scfp WAS UPDATED ****
----------------
ORBITAL ENERGIES
----------------

  NO   OCC          E(Eh)            E(eV) 
   0   2.0000    -101.526736     -2762.6829 
   1   2.0000     -19.159159      -521.3472 
   2   2.0000     -19.156803      -521.2831 
   3   2.0000     -19.071331      -518.9573 
   4   2.0000     -19.017430      -517.4906 
   5   2.0000     -14.541279      -395.6883 
   6   2.0000     -10.235497      -278.5220 
   7   2.0000     -10.210029      -277.8290 
   8   2.0000     -10.190482      -277.2971 
   9   2.0000     -10.183614      -277.1102 
  10   2.0000     -10.183172      -277.0982 
  11   2.0000     -10.179720      -277.0043 
  12   2.0000     -10.173989      -276.8483 
  13   2.0000     -10.163684      -276.5679 
  14   2.0000      -9.458883      -257.3893 
  15   2.0000      -7.220161      -196.4706 
  16   2.0000      -7.212087      -196.2509 
  17   2.0000      -7.211783      -196.2426 
  18   2.0000      -1.226390       -33.3718 
  19   2.0000      -1.052381       -28.6367 
  20   2.0000      -0.952011       -25.9055 
  21   2.0000      -0.894460       -24.3395 
  22   2.0000      -0.865539       -23.5525 
  23   2.0000      -0.849913       -23.1273 
  24   2.0000      -0.815176       -22.1821 
  25   2.0000      -0.750664       -20.4266 
  26   2.0000      -0.733788       -19.9674 
  27   2.0000      -0.693080       -18.8597 
  28   2.0000      -0.630753       -17.1636 
  29   2.0000      -0.603133       -16.4121 
  30   2.0000      -0.576203       -15.6793 
  31   2.0000      -0.543039       -14.7768 
  32   2.0000      -0.529756       -14.4154 
  33   2.0000      -0.518444       -14.1076 
  34   2.0000      -0.503935       -13.7128 
  35   2.0000      -0.478969       -13.0334 
  36   2.0000      -0.477053       -12.9813 
  37   2.0000      -0.455349       -12.3907 
  38   2.0000      -0.440774       -11.9941 
  39   2.0000      -0.427645       -11.6368 
  40   2.0000      -0.402140       -10.9428 
  41   2.0000      -0.400895       -10.9089 
  42   2.0000      -0.393142       -10.6979 
  43   2.0000      -0.381344       -10.3769 
  44   2.0000      -0.370702       -10.0873 
  45   2.0000      -0.357202        -9.7200 
  46   2.0000      -0.351115        -9.5543 
  47   2.0000      -0.338263        -9.2046 
  48   2.0000      -0.325519        -8.8578 
  49   2.0000      -0.320285        -8.7154 
  50   2.0000      -0.316796        -8.6205 
  51   2.0000      -0.309452        -8.4206 
  52   2.0000      -0.298528        -8.1234 
  53   2.0000      -0.275606        -7.4996 
  54   2.0000      -0.263641        -7.1740 
  55   2.0000      -0.249595        -6.7918 
  56   2.0000      -0.223919        -6.0932 
  57   2.0000      -0.215176        -5.8552 
  58   0.0000      -0.068950        -1.8762 
  59   0.0000      -0.026388        -0.7180 
  60   0.0000      -0.019582        -0.5329 
  61   0.0000       0.024167         0.6576 
  62   0.0000       0.043095         1.1727 
  63   0.0000       0.068882         1.8744 
  64   0.0000       0.075627         2.0579 
  65   0.0000       0.087763         2.3882 
  66   0.0000       0.103104         2.8056 
  67   0.0000       0.105561         2.8725 
  68   0.0000       0.111691         3.0393 
  69   0.0000       0.114190         3.1073 
  70   0.0000       0.132137         3.5956 
  71   0.0000       0.137469         3.7407 
  72   0.0000       0.141150         3.8409 
  73   0.0000       0.157570         4.2877 
  74   0.0000       0.167804         4.5662 
  75   0.0000       0.177165         4.8209 
  76   0.0000       0.179656         4.8887 
  77   0.0000       0.195557         5.3214 
  78   0.0000       0.201990         5.4964 
  79   0.0000       0.213788         5.8175 
  80   0.0000       0.219365         5.9692 
  81   0.0000       0.228790         6.2257 
  82   0.0000       0.234940         6.3930 
  83   0.0000       0.237714         6.4685 
  84   0.0000       0.245608         6.6833 
  85   0.0000       0.249019         6.7762 
  86   0.0000       0.251810         6.8521 
  87   0.0000       0.268724         7.3123 
  88   0.0000       0.271899         7.3988 
  89   0.0000       0.285946         7.7810 
  90   0.0000       0.291196         7.9238 
  91   0.0000       0.303066         8.2468 
  92   0.0000       0.312013         8.4903 
  93   0.0000       0.320583         8.7235 
  94   0.0000       0.329924         8.9777 
  95   0.0000       0.333518         9.0755 
  96   0.0000       0.340731         9.2718 
  97   0.0000       0.342858         9.3296 
  98   0.0000       0.354806         9.6548 
  99   0.0000       0.356386         9.6977 
 100   0.0000       0.368686        10.0325 
 101   0.0000       0.374403        10.1880 
 102   0.0000       0.383643        10.4395 
 103   0.0000       0.386013        10.5040 
 104   0.0000       0.398829        10.8527 
 105   0.0000       0.401370        10.9218 
 106   0.0000       0.404374        11.0036 
 107   0.0000       0.410368        11.1667 
 108   0.0000       0.419580        11.4174 
 109   0.0000       0.421721        11.4756 
 110   0.0000       0.433879        11.8064 
 111   0.0000       0.437222        11.8974 
 112   0.0000       0.440964        11.9992 
 113   0.0000       0.445898        12.1335 
 114   0.0000       0.448269        12.1980 
 115   0.0000       0.454610        12.3706 
 116   0.0000       0.459240        12.4966 
 117   0.0000       0.467151        12.7118 
 118   0.0000       0.480297        13.0695 
 119   0.0000       0.484214        13.1761 
 120   0.0000       0.490344        13.3429 
 121   0.0000       0.498310        13.5597 
 122   0.0000       0.500791        13.6272 
 123   0.0000       0.504063        13.7163 
 124   0.0000       0.520415        14.1612 
 125   0.0000       0.524293        14.2667 
 126   0.0000       0.527130        14.3439 
 127   0.0000       0.541271        14.7287 
 128   0.0000       0.553471        15.0607 
 129   0.0000       0.562420        15.3042 
 130   0.0000       0.570669        15.5287 
 131   0.0000       0.574806        15.6413 
 132   0.0000       0.584415        15.9027 
 133   0.0000       0.587735        15.9931 
 134   0.0000       0.604948        16.4615 
 135   0.0000       0.608941        16.5701 
 136   0.0000       0.613492        16.6940 
 137   0.0000       0.619715        16.8633 
 138   0.0000       0.631335        17.1795 
 139   0.0000       0.639438        17.4000 
 140   0.0000       0.660766        17.9804 
 141   0.0000       0.668134        18.1808 
 142   0.0000       0.673207        18.3189 
 143   0.0000       0.676420        18.4063 
 144   0.0000       0.696428        18.9508 
 145   0.0000       0.707791        19.2600 
 146   0.0000       0.715448        19.4683 
 147   0.0000       0.727719        19.8022 
 148   0.0000       0.734760        19.9938 
 149   0.0000       0.752012        20.4633 
 150   0.0000       0.758564        20.6416 
 151   0.0000       0.773509        21.0483 
 152   0.0000       0.790040        21.4981 
 153   0.0000       0.793122        21.5820 
 154   0.0000       0.810099        22.0439 
 155   0.0000       0.824163        22.4266 
 156   0.0000       0.835430        22.7332 
 157   0.0000       0.850487        23.1429 
 158   0.0000       0.857818        23.3424 
 159   0.0000       0.875550        23.8249 
 160   0.0000       0.888945        24.1894 
 161   0.0000       0.910020        24.7629 
 162   0.0000       0.919344        25.0166 
 163   0.0000       0.922830        25.1115 
 164   0.0000       0.955601        26.0032 
 165   0.0000       0.964481        26.2449 
 166   0.0000       0.972577        26.4652 
 167   0.0000       0.983715        26.7682 
 168   0.0000       1.005003        27.3475 
 169   0.0000       1.015339        27.6288 
 170   0.0000       1.038528        28.2598 
 171   0.0000       1.047588        28.5063 
 172   0.0000       1.073463        29.2104 
 173   0.0000       1.079682        29.3796 
 174   0.0000       1.092083        29.7171 
 175   0.0000       1.093576        29.7577 
 176   0.0000       1.114774        30.3345 
 177   0.0000       1.141902        31.0727 
 178   0.0000       1.147931        31.2368 
 179   0.0000       1.157184        31.4886 
 180   0.0000       1.191638        32.4261 
 181   0.0000       1.211236        32.9594 
 182   0.0000       1.218417        33.1548 
 183   0.0000       1.227859        33.4118 
 184   0.0000       1.233285        33.5594 
 185   0.0000       1.247181        33.9375 
 186   0.0000       1.255729        34.1701 
 187   0.0000       1.266539        34.4643 
 188   0.0000       1.268737        34.5241 
 189   0.0000       1.277670        34.7672 
 190   0.0000       1.298517        35.3344 
 191   0.0000       1.307682        35.5838 
 192   0.0000       1.320015        35.9194 
 193   0.0000       1.335806        36.3491 
 194   0.0000       1.360095        37.0101 
 195   0.0000       1.370750        37.3000 
 196   0.0000       1.391960        37.8772 
 197   0.0000       1.416387        38.5419 
 198   0.0000       1.420088        38.6426 
 199   0.0000       1.429868        38.9087 
 200   0.0000       1.435856        39.0716 
 201   0.0000       1.464200        39.8429 
 202   0.0000       1.470346        40.0102 
 203   0.0000       1.483015        40.3549 
 204   0.0000       1.497310        40.7439 
 205   0.0000       1.500499        40.8307 
 206   0.0000       1.523461        41.4555 
 207   0.0000       1.536292        41.8046 
 208   0.0000       1.539730        41.8982 
 209   0.0000       1.558749        42.4157 
 210   0.0000       1.562735        42.5242 
 211   0.0000       1.570140        42.7257 
 212   0.0000       1.583655        43.0934 
 213   0.0000       1.606328        43.7104 
 214   0.0000       1.612494        43.8782 
 215   0.0000       1.613685        43.9106 
 216   0.0000       1.624199        44.1967 
 217   0.0000       1.640474        44.6396 
 218   0.0000       1.644699        44.7545 
 219   0.0000       1.665824        45.3294 
 220   0.0000       1.679350        45.6974 
 221   0.0000       1.684690        45.8427 
 222   0.0000       1.686312        45.8869 
 223   0.0000       1.696313        46.1590 
 224   0.0000       1.705384        46.4059 
 225   0.0000       1.710941        46.5571 
 226   0.0000       1.719813        46.7985 
 227   0.0000       1.747947        47.5641 
 228   0.0000       1.764651        48.0186 
 229   0.0000       1.782293        48.4986 
 230   0.0000       1.787987        48.6536 
 231   0.0000       1.798733        48.9460 
 232   0.0000       1.816374        49.4260 
 233   0.0000       1.819812        49.5196 
 234   0.0000       1.836339        49.9693 
 235   0.0000       1.841468        50.1089 
 236   0.0000       1.855950        50.5030 
 237   0.0000       1.864153        50.7262 
 238   0.0000       1.884069        51.2681 
 239   0.0000       1.892003        51.4840 
 240   0.0000       1.904471        51.8233 
 241   0.0000       1.935107        52.6569 
 242   0.0000       1.941716        52.8368 
 243   0.0000       1.957743        53.2729 
 244   0.0000       1.973903        53.7126 
 245   0.0000       1.975096        53.7451 
 246   0.0000       1.982270        53.9403 
 247   0.0000       1.992166        54.2096 
 248   0.0000       2.005200        54.5643 
 249   0.0000       2.025304        55.1113 
 250   0.0000       2.046657        55.6924 
 251   0.0000       2.057838        55.9966 
 252   0.0000       2.061738        56.1028 
 253   0.0000       2.084607        56.7250 
 254   0.0000       2.088458        56.8298 
 255   0.0000       2.099067        57.1185 
 256   0.0000       2.115175        57.5568 
 257   0.0000       2.115452        57.5644 
 258   0.0000       2.140240        58.2389 
 259   0.0000       2.142605        58.3033 
 260   0.0000       2.146508        58.4095 
 261   0.0000       2.157871        58.7187 
 262   0.0000       2.169488        59.0348 
 263   0.0000       2.182230        59.3815 
 264   0.0000       2.192313        59.6559 
 265   0.0000       2.201298        59.9004 
 266   0.0000       2.208636        60.1001 
 267   0.0000       2.214909        60.2707 
 268   0.0000       2.222309        60.4721 
 269   0.0000       2.225352        60.5549 
 270   0.0000       2.234920        60.8153 
 271   0.0000       2.239246        60.9330 
 272   0.0000       2.260512        61.5117 
 273   0.0000       2.269003        61.7427 
 274   0.0000       2.290787        62.3355 
 275   0.0000       2.299394        62.5697 
 276   0.0000       2.304064        62.6968 
 277   0.0000       2.310676        62.8767 
 278   0.0000       2.342419        63.7405 
 279   0.0000       2.365463        64.3675 
 280   0.0000       2.367031        64.4102 
 281   0.0000       2.389497        65.0215 
 282   0.0000       2.397973        65.2522 
 283   0.0000       2.408668        65.5432 
 284   0.0000       2.423559        65.9484 
 285   0.0000       2.456420        66.8426 
 286   0.0000       2.463371        67.0317 
 287   0.0000       2.490534        67.7709 
 288   0.0000       2.501984        68.0825 
 289   0.0000       2.522135        68.6308 
 290   0.0000       2.533628        68.9435 
 291   0.0000       2.553341        69.4799 
 292   0.0000       2.562015        69.7160 
 293   0.0000       2.571455        69.9728 
 294   0.0000       2.584078        70.3164 
 295   0.0000       2.597544        70.6828 
 296   0.0000       2.601377        70.7871 
 297   0.0000       2.605858        70.9090 
 298   0.0000       2.616246        71.1917 
 299   0.0000       2.644471        71.9597 
 300   0.0000       2.646103        72.0041 
 301   0.0000       2.655820        72.2685 
 302   0.0000       2.661155        72.4137 
 303   0.0000       2.671756        72.7022 
 304   0.0000       2.693016        73.2807 
 305   0.0000       2.694058        73.3090 
 306   0.0000       2.702184        73.5302 
 307   0.0000       2.712319        73.8059 
 308   0.0000       2.719848        74.0108 
 309   0.0000       2.730880        74.3110 
 310   0.0000       2.746288        74.7303 
 311   0.0000       2.752508        74.8995 
 312   0.0000       2.765111        75.2425 
 313   0.0000       2.776134        75.5425 
 314   0.0000       2.788302        75.8736 
 315   0.0000       2.798932        76.1628 
 316   0.0000       2.810188        76.4691 
 317   0.0000       2.824090        76.8474 
 318   0.0000       2.841957        77.3336 
 319   0.0000       2.862105        77.8818 
 320   0.0000       2.872035        78.1520 
 321   0.0000       2.884572        78.4932 
 322   0.0000       2.895320        78.7857 
 323   0.0000       2.905808        79.0710 
 324   0.0000       2.916383        79.3588 
 325   0.0000       2.927417        79.6591 
 326   0.0000       2.955022        80.4102 
 327   0.0000       2.968639        80.7808 
 328   0.0000       2.988637        81.3249 
 329   0.0000       2.994374        81.4811 
 330   0.0000       3.009431        81.8908 
 331   0.0000       3.040559        82.7378 
 332   0.0000       3.047044        82.9143 
 333   0.0000       3.070195        83.5442 
 334   0.0000       3.075441        83.6870 
 335   0.0000       3.077175        83.7342 
 336   0.0000       3.106751        84.5390 
 337   0.0000       3.116516        84.8047 
 338   0.0000       3.139743        85.4368 
 339   0.0000       3.148735        85.6814 
 340   0.0000       3.157766        85.9272 
 341   0.0000       3.166937        86.1767 
 342   0.0000       3.178388        86.4883 
 343   0.0000       3.197076        86.9969 
 344   0.0000       3.201763        87.1244 
 345   0.0000       3.209711        87.3407 
 346   0.0000       3.229063        87.8673 
 347   0.0000       3.241029        88.1929 
 348   0.0000       3.246952        88.3541 
 349   0.0000       3.267424        88.9111 
 350   0.0000       3.285118        89.3926 
 351   0.0000       3.297086        89.7183 
 352   0.0000       3.302703        89.8711 
 353   0.0000       3.312488        90.1374 
 354   0.0000       3.327844        90.5552 
 355   0.0000       3.331188        90.6462 
 356   0.0000       3.367237        91.6272 
 357   0.0000       3.373489        91.7973 
 358   0.0000       3.386228        92.1440 
 359   0.0000       3.394446        92.3676 
 360   0.0000       3.401485        92.5591 
 361   0.0000       3.409268        92.7709 
 362   0.0000       3.420663        93.0810 
 363   0.0000       3.427034        93.2543 
 364   0.0000       3.450698        93.8983 
 365   0.0000       3.477739        94.6341 
 366   0.0000       3.497041        95.1593 
 367   0.0000       3.510037        95.5130 
 368   0.0000       3.519863        95.7803 
 369   0.0000       3.544560        96.4524 
 370   0.0000       3.559864        96.8688 
 371   0.0000       3.571609        97.1884 
 372   0.0000       3.588289        97.6423 
 373   0.0000       3.609390        98.2165 
 374   0.0000       3.666585        99.7729 
 375   0.0000       3.677648       100.0739 
 376   0.0000       3.689133       100.3864 
 377   0.0000       3.701537       100.7240 
 378   0.0000       3.702510       100.7504 
 379   0.0000       3.730965       101.5247 
 380   0.0000       3.738959       101.7422 
 381   0.0000       3.760403       102.3258 
 382   0.0000       3.781132       102.8898 
 383   0.0000       3.820383       103.9579 
 384   0.0000       3.831289       104.2547 
 385   0.0000       3.862766       105.1112 
 386   0.0000       3.891637       105.8968 
 387   0.0000       3.937465       107.1439 
 388   0.0000       3.951334       107.5213 
 389   0.0000       3.964677       107.8843 
 390   0.0000       3.979497       108.2876 
 391   0.0000       4.008536       109.0778 
 392   0.0000       4.013346       109.2087 
 393   0.0000       4.043370       110.0257 
 394   0.0000       4.053063       110.2895 
 395   0.0000       4.073539       110.8466 
 396   0.0000       4.089223       111.2734 
 397   0.0000       4.116292       112.0100 
 398   0.0000       4.133786       112.4860 
 399   0.0000       4.174090       113.5828 
 400   0.0000       4.183863       113.8487 
 401   0.0000       4.203888       114.3936 
 402   0.0000       4.221316       114.8678 
 403   0.0000       4.243281       115.4656 
[...]

Maximum memory used throughout the entire SCFGRAD-calculation: 73.5 MB
------------------------------------------------------------------------------
                         ORCA GEOMETRY RELAXATION STEP
------------------------------------------------------------------------------

Reading the OPT-File                    .... done
Getting information on internals        .... done
Copying old internal coords+grads       .... done
Making the new internal coordinates     .... (new redundants).... done
Validating the new internal coordinates .... (new redundants).... done
Calculating the B-matrix                .... done
Calculating the G,G- and P matrices     .... done
Transforming gradient to internals      .... done
Projecting the internal gradient        .... done
Number of atoms                         ....  25
Number of internal coordinates          .... 120
Current Energy                          .... -1127.293048690 Eh
Current gradient norm                   ....     0.003814978 Eh/bohr
Maximum allowed component of the step   ....  0.300
Current trust radius                    ....  0.100
Updating the Hessian (Bofill)          .... 
(DQ * DQ)^2 = 0.00000000633930     Bofill update is skipped
Diagonalizing the Hessian               .... done
Dimension of the hessian                .... 120
Lowest eigenvalues of the Hessian:
 -0.143676115  0.000894487  0.010780426  0.018946230  0.025139949
Hessian has   1 negative eigenvalues
Taking P-RFO step
Searching for lambda that maximizes along the lowest mode
TS mode is mode number   0 with eigenvalue  -0.14367612 and components:
   1.    0.00147537
   2.   -0.00455787
   3.   -0.00374173
   4.   -0.00314620
   5.   -0.01332849
   6.   -0.00717243
   7.   -0.00929388
   8.   -0.00234836
   9.   -0.00677272
  10.   -0.02245024
  11.    0.00058943
  12.   -0.00238306
  13.    0.00688844
  14.   -0.00244295
  15.    0.00181112
  16.   -0.00298672
  17.   -0.01865008
  18.   -0.01647112
  19.    0.00396804
  20.   -0.00098712
  21.   -0.01537112
  22.   -0.00328297
  23.    0.00501783
  24.    0.42519307
  25.    0.01091341
  26.    0.01470362
  27.   -0.02390070
  28.   -0.00372284
  29.    0.00234917
  30.    0.00124415
  31.   -0.00359923
  32.    0.00456955
  33.   -0.00230980
  34.   -0.00205188
  35.    0.00195263
  36.   -0.01670055
  37.    0.01396730
  38.   -0.00036279
  39.   -0.00645286
  40.    0.00684337
  41.   -0.00762751
  42.    0.00031541
  43.    0.00732679
  44.    0.00023785
  45.   -0.00308053
  46.    0.00284961
  47.   -0.00364531
  48.    0.00763031
  49.    0.00041083
  50.   -0.01313267
  51.    0.01657082
  52.   -0.00426019
  53.   -0.00122982
  54.   -0.00194406
  55.    0.00290452
  56.    0.00482551
  57.   -0.01254085
  58.    0.00799928
  59.   -0.00142581
  60.    0.00290559
  61.   -0.00237520
  62.    0.01299849
  63.    0.01648478
  64.   -0.06382413
  65.   -0.00136216
  66.   -0.09534362
  67.   -0.09500313
  68.    0.10147693
  69.   -0.02030057
  70.   -0.01841341
  71.    0.00900971
  72.    0.00712255
  73.   -0.00831941
  74.    0.04382088
  75.    0.01681841
  76.    0.01868306
  77.    0.00533815
  78.   -0.02078905
  79.   -0.02538548
  80.    0.00074172
  81.    0.00178996
  82.    0.00617865
  83.    0.00630636
  84.    0.00166224
  85.   -0.00711102
  86.   -0.00547724
  87.   -0.00562912
  88.    0.00147338
  89.   -0.00017952
  90.   -0.00726289
  91.   -0.00202336
  92.   -0.00037046
  93.   -0.20069473
  94.   -0.22635581
  95.   -0.22269267
  96.   -0.24835375
  97.   -0.21892000
  98.   -0.24458108
  99.   -0.03098276
 100.   -0.02697832
 101.   -0.02700825
 102.   -0.05156844
 103.   -0.03407355
 104.   -0.03410349
 105.   -0.04844772
 106.   -0.04447321
 107.   -0.03095283
 108.    0.05528148
 109.    0.05158970
 110.    0.06296903
 111.    0.03102212
 112.    0.02733034
 113.    0.03870967
 114.   -0.06381993
 115.   -0.05706311
 116.   -0.07934710
 117.    0.41753672
 118.    0.44177827
 119.    0.22677854
 120.    0.07984129

Lambda that maximizes along the TS mode:       0.00000305
Searching for lambda that minimizes along all other modes
In cycle   1: lambdaN =  -0.00000837   step =   0.00000837
In cycle   2: lambdaN =  -0.00000837   step =   0.00000000
Lambda that minimizes along all other modes:  -0.00000837
The final length of the internal step   ....       0.0094
Converting the step to cartesian space:
 Initial RMS(Int)=    0.0008537301
Transforming coordinates:
 Iter   0:  RMS(Cart)=    0.0024527087 RMS(Int)=    0.0008535663
 Iter   1:  RMS(Cart)=    0.0000183441 RMS(Int)=    0.0000090951
 Iter   2:  RMS(Cart)=    0.0000093894 RMS(Int)=    0.0000045006
 Iter   3:  RMS(Cart)=    0.0000046907 RMS(Int)=    0.0000022480
 Iter   4:  RMS(Cart)=    0.0000023430 RMS(Int)=    0.0000011228
 Iter   5:  RMS(Cart)=    0.0000011703 RMS(Int)=    0.0000005608
 Iter   6:  RMS(Cart)=    0.0000005845 RMS(Int)=    0.0000002801
 Iter   7:  RMS(Cart)=    0.0000002920 RMS(Int)=    0.0000001399
 Iter   8:  RMS(Cart)=    0.0000001458 RMS(Int)=    0.0000000699
 Iter   9:  RMS(Cart)=    0.0000000728 RMS(Int)=    0.0000000349
done
Storing new coordinates                 .... done
The predicted energy change is          ....    -0.000002656
Previously predicted energy change      ....    -0.000002672
Actually observed energy change         ....    -0.000005849
Ratio of predicted to observed change   ....     2.188792140
New trust radius                        ....     0.100000000

                                .--------------------.
          ----------------------|Geometry convergence|-------------------------
          Item                value                   Tolerance       Converged
          ---------------------------------------------------------------------
          Energy change      -0.0000058486            0.0000050000      NO
          RMS gradient        0.0002583532            0.0001000000      NO
          MAX gradient        0.0014068802            0.0003000000      NO
          RMS step            0.0008537301            0.0020000000      YES
          MAX step            0.0036122041            0.0040000000      YES
          ........................................................
          Max(Bonds)      0.0004      Max(Angles)    0.05
          Max(Dihed)        0.21      Max(Improp)    0.00
          ---------------------------------------------------------------------

The optimization has not yet converged - more geometry cycles are needed


    ---------------------------------------------------------------------------
                         Redundant Internal Coordinates
                            (Angstroem and degrees)

        Definition                    Value    dE/dq     Step     New-Value  comp.(TS mode)
    ----------------------------------------------------------------------------
     1. B(C   1,C   0)                1.3912 -0.000045 -0.0000    1.3912   
     2. B(C   2,C   1)                1.3921 -0.000246 -0.0000    1.3921   
     3. B(C   3,C   2)                1.3950 -0.000159  0.0000    1.3950   
     4. B(C   4,C   3)                1.3850  0.000114  0.0000    1.3850   
     5. B(C   5,C   0)                1.3890 -0.000229 -0.0000    1.3890   
     6. B(C   5,C   4)                1.3895 -0.000198 -0.0000    1.3895   
     7. B(H   6,C   0)                1.0824 -0.000081 -0.0000    1.0824   
     8. B(H   7,C   1)                1.0827 -0.000057 -0.0000    1.0827   
     9. B(H   8,C   3)                1.0820 -0.000126 -0.0000    1.0820   
    10. B(Cl  9,C   4)                1.7538 -0.000146 -0.0000    1.7538   
    11. B(H  10,C   5)                1.0812 -0.000005 -0.0000    1.0812   
    12. B(C  11,C   2)                1.5055  0.000026  0.0000    1.5055   
    13. B(C  12,C  11)                1.5197  0.000007 -0.0000    1.5197   
    14. B(H  13,C  12)                1.0876 -0.000017  0.0000    1.0876   
    15. B(H  14,C  12)                1.0911  0.000002 -0.0000    1.0911   
    16. B(H  15,C  12)                1.0902 -0.000033  0.0000    1.0902   
    17. B(N  16,C  11)                1.5162 -0.000177  0.0000    1.5162   
    18. B(O  17,C  11)                2.3557  0.000022  0.0001    2.3557   
    19. B(O  17,N  16)                1.2229  0.000122 -0.0000    1.2229   
    20. B(O  18,O  17)                2.1530  0.000219 -0.0000    2.1530   
    21. B(O  18,C  11)                2.3583  0.000136 -0.0000    2.3583   
    22. B(O  18,N  16)                1.2242  0.000265 -0.0000    1.2242   
    23. B(H  19,C  11)                1.1160  0.000238 -0.0000    1.1160   
    24. B(H  21,O  20)                0.9623 -0.000754 -0.0000    0.9623          0.43
    25. B(H  22,O  20)                1.0450  0.000044  0.0001    1.0451   
    26. B(O  24,H  22)                1.4928  0.000031 -0.0002    1.4925   
    27. B(O  24,H  19)                1.8581  0.000304  0.0004    1.8585   
    28. B(O  24,H  23)                0.9638 -0.000010 -0.0000    0.9638   
    29. A(C   1,C   0,C   5)          120.55  0.000016    0.00    120.55   
    30. A(C   5,C   0,H   6)          119.37 -0.000040   -0.00    119.37   
    31. A(C   1,C   0,H   6)          120.08  0.000024    0.00    120.08   
    32. A(C   0,C   1,H   7)          120.86  0.000012   -0.00    120.86   
    33. A(C   2,C   1,H   7)          118.86 -0.000119    0.00    118.86   
    34. A(C   0,C   1,C   2)          120.28  0.000107    0.00    120.28   
    35. A(C   1,C   2,C   3)          119.59 -0.000084   -0.00    119.59   
    36. A(C   1,C   2,C  11)          119.24 -0.000426    0.01    119.25   
    37. A(C   3,C   2,C  11)          121.12  0.000511   -0.01    121.11   
    38. A(C   2,C   3,H   8)          120.71 -0.000009   -0.00    120.70   
    39. A(C   2,C   3,C   4)          119.29 -0.000021    0.00    119.29   
    40. A(C   4,C   3,H   8)          120.00  0.000029    0.00    120.00   
    41. A(C   5,C   4,Cl  9)          119.12 -0.000103    0.00    119.12   
    42. A(C   3,C   4,Cl  9)          119.11  0.000054    0.00    119.11   
    43. A(C   3,C   4,C   5)          121.77  0.000049   -0.00    121.77   
    44. A(C   0,C   5,H  10)          121.09  0.000022   -0.00    121.09   
    45. A(C   0,C   5,C   4)          118.53 -0.000068    0.00    118.53   
    46. A(C   4,C   5,H  10)          120.38  0.000046    0.00    120.38   
    47. A(C   2,C  11,H  19)          108.92 -0.000318    0.01    108.92   
    48. A(C   2,C  11,N  16)          110.79  0.000079   -0.01    110.78   
    49. A(C  12,C  11,N  16)          111.06 -0.000233   -0.00    111.06   
    50. A(C   2,C  11,C  12)          113.90  0.000159    0.01    113.91   
    51. A(N  16,C  11,H  19)          102.53  0.000083   -0.00    102.53   
    52. A(C  12,C  11,H  19)          108.99  0.000219   -0.00    108.99   
    53. A(H  14,C  12,H  15)          108.44  0.000005   -0.00    108.44   
    54. A(H  13,C  12,H  15)          108.39  0.000001   -0.00    108.39   
    55. A(C  11,C  12,H  15)          107.73  0.000032    0.00    107.73   
    56. A(H  13,C  12,H  14)          109.29  0.000000   -0.00    109.29   
    57. A(C  11,C  12,H  14)          111.75 -0.000099    0.00    111.76   
    58. A(C  11,C  12,H  13)          111.13  0.000062   -0.00    111.13   
    59. A(O  17,N  16,O  18)          123.25 -0.000110    0.00    123.25   
    60. A(C  11,N  16,O  18)          118.37  0.000057   -0.01    118.37   
    61. A(C  11,N  16,O  17)          118.24  0.000059    0.00    118.25   
    62. A(C  11,H  19,O  24)          163.46 -0.001092    0.02    163.49   
    63. A(H  21,O  20,H  22)          105.63  0.000488    0.00    105.64   
    64. L(O  20,H  22,O  24,H  19, 2) 177.84  0.000088    0.02    177.86   
    65. L(O  20,H  22,O  24,H  19, 1) 179.02  0.000269    0.00    179.03   
    66. A(H  19,O  24,H  22)          107.27  0.001407   -0.05    107.21   
    67. A(H  22,O  24,H  23)          111.98  0.000070   -0.02    111.96   
    68. A(H  19,O  24,H  23)          117.89 -0.000024    0.00    117.89   
    69. D(H   7,C   1,C   0,H   6)      0.10  0.000013    0.00      0.10   
    70. D(H   7,C   1,C   0,C   5)    179.88 -0.000017    0.00    179.88   
    71. D(C   2,C   1,C   0,C   5)     -0.39 -0.000082   -0.00     -0.39   
    72. D(C   2,C   1,C   0,H   6)    179.83 -0.000052   -0.00    179.83   
    73. D(C   3,C   2,C   1,C   0)     -0.13  0.000032    0.01     -0.12   
    74. D(C  11,C   2,C   1,H   7)      2.28 -0.000074   -0.01      2.27   
    75. D(C  11,C   2,C   1,C   0)   -177.46 -0.000010   -0.00   -177.46   
    76. D(C   3,C   2,C   1,H   7)    179.61 -0.000031    0.00    179.61   
    77. D(H   8,C   3,C   2,C   1)   -179.96 -0.000041   -0.00   -179.97   
    78. D(H   8,C   3,C   2,C  11)     -2.69 -0.000023    0.01     -2.68   
    79. D(C   4,C   3,C   2,C  11)    177.98  0.000066    0.00    177.99   
    80. D(C   4,C   3,C   2,C   1)      0.71  0.000048   -0.01      0.70   
    81. D(C   5,C   4,C   3,H   8)    179.87  0.000004    0.00    179.87   
    82. D(Cl  9,C   4,C   3,C   2)    179.21 -0.000102    0.01    179.22   
    83. D(C   5,C   4,C   3,C   2)     -0.79 -0.000085    0.00     -0.79   
    84. D(Cl  9,C   4,C   3,H   8)     -0.12 -0.000014    0.00     -0.12   
    85. D(H  10,C   5,C   4,Cl  9)      0.23  0.000045    0.00      0.23   
    86. D(C   0,C   5,C   4,Cl  9)   -179.72  0.000054    0.00   -179.72   
    87. D(C   0,C   5,C   4,C   3)      0.28  0.000036    0.00      0.29   
    88. D(H  10,C   5,C   0,H   6)      0.14  0.000026   -0.00      0.14   
    89. D(C   4,C   5,C   0,H   6)   -179.90  0.000017   -0.00   -179.91   
    90. D(H  10,C   5,C   4,C   3)   -179.76  0.000027    0.00   -179.76   
    91. D(C   4,C   5,C   0,C   1)      0.31  0.000047   -0.00      0.31   
    92. D(H  10,C   5,C   0,C   1)   -179.64  0.000056   -0.00   -179.65   
    93. D(H  19,C  11,C   2,C   3)    174.78 -0.000224    0.10    174.87   
    94. D(H  19,C  11,C   2,C   1)     -7.94 -0.000198    0.11     -7.83   
    95. D(N  16,C  11,C   2,C   3)     62.72 -0.000191    0.10     62.82   
    96. D(N  16,C  11,C   2,C   1)   -119.99 -0.000164    0.11   -119.88   
    97. D(C  12,C  11,C   2,C   3)    -63.35 -0.000069    0.11    -63.24   
    98. D(C  12,C  11,C   2,C   1)    113.94 -0.000042    0.12    114.06   
    99. D(H  13,C  12,C  11,C   2)   -173.58  0.000069    0.04   -173.54   
   100. D(H  15,C  12,C  11,N  16)    179.09  0.000083    0.05    179.14   
   101. D(H  15,C  12,C  11,C   2)    -54.98  0.000125    0.04    -54.95   
   102. D(H  14,C  12,C  11,H  19)   -174.12 -0.000046    0.05   -174.07   
   103. D(H  14,C  12,C  11,N  16)    -61.89  0.000052    0.05    -61.84   
   104. D(H  14,C  12,C  11,C   2)     64.04  0.000095    0.04     64.08   
   105. D(H  13,C  12,C  11,H  19)    -51.74 -0.000071    0.05    -51.69   
   106. D(H  15,C  12,C  11,H  19)     66.85 -0.000015    0.05     66.90   
   107. D(H  13,C  12,C  11,N  16)     60.49  0.000027    0.05     60.54   
   108. D(O  18,N  16,C  11,H  19)    -87.16 -0.000149    0.07    -87.09   
   109. D(O  18,N  16,C  11,C  12)    156.56 -0.000345    0.07    156.63   
   110. D(O  18,N  16,C  11,C   2)     28.92 -0.000437    0.07     28.99   
   111. D(O  17,N  16,C  11,H  19)     88.71 -0.000056    0.08     88.79   
   112. D(O  17,N  16,C  11,C  12)    -27.57 -0.000252    0.08    -27.49   
   113. D(O  17,N  16,C  11,C   2)   -155.21 -0.000345    0.08   -155.13   
   114. D(O  24,H  19,C  11,N  16)   -154.71  0.000203    0.17   -154.54   
   115. D(O  24,H  19,C  11,C  12)    -36.94  0.000074    0.17    -36.77   
   116. D(O  24,H  19,C  11,C   2)     87.87  0.000206    0.18     88.05   
   117. D(H  19,O  24,O  20,H  21)    -13.40  0.000381   -0.09    -13.49          0.42
   118. D(H  23,O  24,O  20,H  21)   -144.44 -0.000811   -0.02   -144.45          0.44
   119. D(H  22,O  24,H  19,C  11)     27.89 -0.000627   -0.12     27.78   
   120. D(H  23,O  24,H  19,C  11)    155.33  0.000724   -0.21    155.12   
    ----------------------------------------------------------------------------




    ----------------------------------------------------------------------------
                                  WARNING !!!
       The optimization did not converge but reached the maximum number of
       optimization cycles.
       Please check your results very carefully.
    ----------------------------------------------------------------------------






    ----------------------------------------------------------------------------
                                  WARNING !!!
       The optimization did not converge but reached the maximum number of
       optimization cycles.
       Please check your results very carefully.
    ----------------------------------------------------------------------------


----------
STATISTICS
----------

For the individual parts of the NEB, NEB-CI or NEB-TS run:

Number of iterations:
     NEB                               ... 79  50.6%
     TS optimization                   ... 77  49.4%
Number of SCF / gradient calculations:
     NEB                               ... 614  88.9%
     TS optimization                   ... 77  11.1%

----------
 TIMINGS
----------

For the individual parts of the NEB, NEB-CI or NEB-TS run:

Total                                  ...    13312.752 sec
NEB                                    ...     9508.647 sec  71.4%
TS Optimization                        ...     3804.105 sec  28.6%


                            ***************************************
                            *     ORCA property calculations      *
                            ***************************************

                                    ---------------------
                                    Active property flags
                                    ---------------------
   (+) Dipole Moment


------------------------------------------------------------------------------
                       ORCA ELECTRIC PROPERTIES CALCULATION
------------------------------------------------------------------------------

Dipole Moment Calculation                       ... on
Quadrupole Moment Calculation                   ... off
Polarizability Calculation                      ... off
GBWName                                         ... neb.gbw
Electron density                                ... neb.scfp
The origin for moment calculation is the CENTER OF MASS  = (-1.407891,  0.227514 -0.314130)

-------------
DIPOLE MOMENT
-------------
                                X             Y             Z
Electronic contribution:    -24.96995       6.79170      -2.53867
Nuclear contribution   :     19.63601      -4.58588       3.69445
                        -----------------------------------------
Total Dipole Moment    :     -5.33394       2.20581       1.15578
                        -----------------------------------------
Magnitude (a.u.)       :      5.88662
Magnitude (Debye)      :     14.96261



--------------------
Rotational spectrum 
--------------------
 
Rotational constants in cm-1:     0.026162     0.010210     0.008691 
Rotational constants in MHz :   784.320359   306.080565   260.560251 

 Dipole components along the rotational axes: 
x,y,z [a.u.] :    -5.786478    -0.588007    -0.907331 
x,y,z [Debye]:   -14.708059    -1.494594    -2.306252 

 

Timings for individual modules:

Sum of individual times         ...    13146.288 sec (= 219.105 min)
GTO integral calculation        ...      375.412 sec (=   6.257 min)   2.9 %
SCF iterations                  ...     2447.895 sec (=  40.798 min)  18.6 %
SCF Gradient evaluation         ...      811.700 sec (=  13.528 min)   6.2 %
Geometry relaxation             ...        2.635 sec (=   0.044 min)   0.0 %
NEB Iterations                  ...     9508.647 sec (= 158.477 min)  72.3 %
                             ****ORCA TERMINATED NORMALLY****
TOTAL RUN TIME: 0 days 3 hours 42 minutes 0 seconds 542 msec
