 *******************************************************************************
 **                                                                           **
 **                              MOPAC v22.0.6                                **
 **                                                                           **
 *******************************************************************************
 **          Digital Object Identifier (DOI): 10.5281/zenodo.6511958          **
 **    Visit the DOI location for information on how to cite this program.    **
 *******************************************************************************

                              PM7 CALCULATION RESULTS

 *******************************************************************************
 *  CALCULATION DONE:                                Tue Mar 26 11:17:17 2024  *
 *  PM7        - The PM7 Hamiltonian to be used
 *  DOUBLET    - SPIN STATE DEFINED AS A DOUBLET
 *
 *
 *
 *                 CHARGE ON SYSTEM = 0
 *
 *
 *
 *  EPS=78.4   - USE ANDREAS KLAMT'S COSMO IMPLICIT SOLVATION MODEL
 *  T=         - A TIME OF 14.0 DAYS REQUESTED
 *  DUMP=N     - RESTART FILE WRITTEN EVERY 30.0 MINUTES REQUESTED
 *  RELSCF     - DEFAULT SCF CRITERION MULTIPLIED BY 1.0000
 *              (DEFAULT SCF CRITERION = 0.00010)
 *  ITRY=      - DO A MAXIMUM OF 15000 ITERATIONS FOR SCF
 *  AUX        - OUTPUT AUXILIARY INFORMATION
 *  BONDS      - FINAL BOND-ORDER MATRIX TO BE PRINTED
 *******************************************************************************
PM7 BONDS AUX DUMP=30M ITRY=15000 T=14D CHARGE=0 DOUBLET eps=78.4 RELSCF=1
 Title: ASE calculation

   ATOM   CHEMICAL          X               Y               Z
  NUMBER   SYMBOL      (ANGSTROMS)     (ANGSTROMS)     (ANGSTROMS)

     1       C         -0.35231000  *   1.00331000  *   1.08993000  *
     2       C          1.02631000  *   0.79868000  *   1.06966000  *
     3       C          1.55790000  *  -0.38708000  *   0.55312000  *
     4       C          0.70921000  *  -1.37022000  *   0.04801000  *
     5       C         -0.67137000  *  -1.14793000  *   0.07001000  *
     6       C         -1.21446000  *   0.03383000  *   0.58995000  *
     7       H         -0.75794000  *   1.93161000  *   1.50177000  *
     8       H          1.69275000  *   1.57747000  *   1.46583000  *
     9       H          1.11637000  *  -2.30419000  *  -0.36235000  *
    10       H         -2.29932000  *   0.19517000  *   0.60209000  *
    11       N         -1.55470000  *  -2.16210000  *  -0.44984000  *
    12       O         -2.76307000  *  -1.96497000  *  -0.43628000  *
    13       O         -1.07780000  *  -3.19889000  *  -0.89292000  *
    14       C          3.04748000  *  -0.59419000  *   0.57976000  *
    15       C          3.43766000  *  -1.87582000  *   1.30565000  *
    16       H          4.52784000  *  -1.98271000  *   1.40706000  *
    17       H          3.06302000  *  -2.78329000  *   0.80866000  *
    18       H          3.02623000  *  -1.88043000  *   2.32847000  *
    19       N          3.55719000  *  -0.66655000  *  -0.83272000  *
    20       O          4.38699000  *   0.15625000  *  -1.18556000  *
    21       O          3.13709000  *  -1.53352000  *  -1.57844000  *
    22       H          3.56586000  *   0.29011000  *   1.07255000  *
    23       C          5.92029000  *   4.68184000  *   5.93437000  *
    24       N          7.19528000  *   4.95587000  *   5.53372000  *
    25       C          7.64394000  *   4.53776000  *   4.19394000  *
    26       C          6.67680000  *   3.52663000  *   3.54347000  *
    27       N          5.27674000  *   3.99927000  *   3.60771000  *
    28       C          4.86279000  *   4.16141000  *   5.02503000  *
    29       H          5.66382000  *   4.84391000  *   6.96976000  *
    30       H          7.92114000  *   4.92066000  *   6.24840000  *
    31       H          8.66884000  *   4.10883000  *   4.24858000  *
    32       H          7.71871000  *   5.45383000  *   3.56063000  *
    33       H          6.95270000  *   3.35852000  *   2.47935000  *
    34       H          6.74625000  *   2.54021000  *   4.05212000  *
    35       H          5.18887000  *   4.89397000  *   3.11190000  *
    36       H          3.95917000  *   4.81506000  *   5.06146000  *
    37       H          4.52778000  *   3.15669000  *   5.38875000  *
    38       H          3.40773000  *   1.29323000  *   3.37652000  *
    39       H          4.20004000  *   2.52680000  *   2.92516000  *
    40       O          3.59560000  *   1.82879000  *   2.60254000  *



          CARTESIAN COORDINATES 

    NO.       ATOM           X           Y           Z

     1         C         -0.3523      1.0033      1.0899
     2         C          1.0263      0.7987      1.0697
     3         C          1.5579     -0.3871      0.5531
     4         C          0.7092     -1.3702      0.0480
     5         C         -0.6714     -1.1479      0.0700
     6         C         -1.2145      0.0338      0.5899
     7         H         -0.7579      1.9316      1.5018
     8         H          1.6928      1.5775      1.4658
     9         H          1.1164     -2.3042     -0.3624
    10         H         -2.2993      0.1952      0.6021
    11         N         -1.5547     -2.1621     -0.4498
    12         O         -2.7631     -1.9650     -0.4363
    13         O         -1.0778     -3.1989     -0.8929
    14         C          3.0475     -0.5942      0.5798
    15         C          3.4377     -1.8758      1.3056
    16         H          4.5278     -1.9827      1.4071
    17         H          3.0630     -2.7833      0.8087
    18         H          3.0262     -1.8804      2.3285
    19         N          3.5572     -0.6666     -0.8327
    20         O          4.3870      0.1563     -1.1856
    21         O          3.1371     -1.5335     -1.5784
    22         H          3.5659      0.2901      1.0726
    23         C          5.9203      4.6818      5.9344
    24         N          7.1953      4.9559      5.5337
    25         C          7.6439      4.5378      4.1939
    26         C          6.6768      3.5266      3.5435
    27         N          5.2767      3.9993      3.6077
    28         C          4.8628      4.1614      5.0250
    29         H          5.6638      4.8439      6.9698
    30         H          7.9211      4.9207      6.2484
    31         H          8.6688      4.1088      4.2486
    32         H          7.7187      5.4538      3.5606
    33         H          6.9527      3.3585      2.4794
    34         H          6.7462      2.5402      4.0521
    35         H          5.1889      4.8940      3.1119
    36         H          3.9592      4.8151      5.0615
    37         H          4.5278      3.1567      5.3887
    38         H          3.4077      1.2932      3.3765
    39         H          4.2000      2.5268      2.9252
    40         O          3.5956      1.8288      2.6025

 General Reference for PM7:
 "Optimization of Parameters for Semiempirical Methods VI: More Modifications to the 
 NDDO Approximations and Re-optimization of Parameters", J. J. P. Stewart, J. Mol. Mod., 1:32, 19 (2013)
 https://link.springer.com/article/10.1007/s00894-012-1667-x

           Empirical Formula: C12 H19 N4 O5  =    40 atoms



      MOLECULAR POINT GROUP   :   C1  


 DOUBLET STATE CALCULATION


          UHF CALCULATION, NO. OF ALPHA ELECTRONS =   59
                           NO. OF BETA  ELECTRONS =   58

          Geometry optimization using L-BFGS
  SCF CRITERION =    0.1000E-03
 CYCLE:     1 TIME:   0.867 TIME LEFT:  2.00W  GRAD.:     1.766 HEAT: -67.87365
 CYCLE:     2 TIME:   0.219 TIME LEFT:  2.00W  GRAD.:     1.728 HEAT: -67.87388
 CYCLE:     3 TIME:   0.156 TIME LEFT:  2.00W  GRAD.:     1.076 HEAT: -67.87243
 CYCLE:     4 TIME:   0.203 TIME LEFT:  2.00W  GRAD.:     1.725 HEAT: -67.87389
 CYCLE:     5 TIME:   0.203 TIME LEFT:  2.00W  GRAD.:     2.691 HEAT: -67.84174
 CYCLE:     6 TIME:   0.164 TIME LEFT:  2.00W  GRAD.:     2.458 HEAT: -67.84575
 CYCLE:     7 TIME:   0.188 TIME LEFT:  2.00W  GRAD.:     1.891 HEAT: -67.84348
 CYCLE:     8 TIME:   0.188 TIME LEFT:  2.00W  GRAD.:     0.753 HEAT: -67.84815


          CURRENT BEST VALUE OF HEAT OF FORMATION =    -67.873886

 PM7 BONDS AUX DUMP=30M ITRY=15000 T=14D CHARGE=0 DOUBLET eps=78.4 RELSCF=1
 Title: ASE calculation

  C    -0.35231210 +1   1.00331070 +1   1.08992910 +1
  C     1.02631213 +1   0.79867971 +1   1.06966051 +1
  C     1.55789936 +1  -0.38708181 +1   0.55311952 +1
  C     0.70921287 +1  -1.37021865 +1   0.04801245 +1
  C    -0.67137087 +1  -1.14792865 +1   0.07001007 +1
  C    -1.21445900 +1   0.03383078 +1   0.58994954 +1
  H    -0.75794022 +1   1.93161118 +1   1.50176907 +1
  H     1.69274996 +1   1.57747056 +1   1.46582836 +1
  H     1.11637014 +1  -2.30418956 +1  -0.36234992 +1
  H    -2.29932015 +1   0.19516988 +1   0.60209045 +1
  N    -1.55470357 +1  -2.16210130 +1  -0.44984139 +1
  O    -2.76306556 +1  -1.96497189 +1  -0.43627987 +1
  O    -1.07780083 +1  -3.19888854 +1  -0.89291930 +1
  C     3.04748084 +1  -0.59418930 +1   0.57975912 +1
  C     3.43765975 +1  -1.87581894 +1   1.30565005 +1
  H     4.52783908 +1  -1.98270965 +1   1.40705952 +1
  H     3.06302076 +1  -2.78328933 +1   0.80866072 +1
  H     3.02623094 +1  -1.88043139 +1   2.32847135 +1
  N     3.55718945 +1  -0.66654824 +1  -0.83271536 +1
  O     4.38699488 +1   0.15625627 +1  -1.18556111 +1
  O     3.13708535 +1  -1.53352592 +1  -1.57844361 +1
  H     3.56585875 +1   0.29011002 +1   1.07255150 +1
  C     5.92028879 +1   4.68183803 +1   5.93437053 +1
  N     7.19528123 +1   4.95587037 +1   5.53371896 +1
  C     7.64393972 +1   4.53775969 +1   4.19394021 +1
  C     6.67680025 +1   3.52662976 +1   3.54347083 +1
  N     5.27674202 +1   3.99926877 +1   3.60771078 +1
  C     4.86278968 +1   4.16140874 +1   5.02503061 +1
  H     5.66382021 +1   4.84391038 +1   6.96975892 +1
  H     7.92114013 +1   4.92066182 +1   6.24839939 +1
  H     8.66883965 +1   4.10882997 +1   4.24857937 +1
  H     7.71870909 +1   5.45383012 +1   3.56063091 +1
  H     6.95269826 +1   3.35852040 +1   2.47934894 +1
  H     6.74625015 +1   2.54020757 +1   4.05211885 +1
  H     5.18887074 +1   4.89396989 +1   3.11190086 +1
  H     3.95917032 +1   4.81505991 +1   5.06145954 +1
  H     4.52777816 +1   3.15668906 +1   5.38875132 +1
  H     3.40773110 +1   1.29322885 +1   3.37652179 +1
  H     4.20003934 +1   2.52679990 +1   2.92515852 +1
  O     3.59559918 +1   1.82879082 +1   2.60253887 +1



 -------------------------------------------------------------------------------
 PM7 BONDS AUX DUMP=30M ITRY=15000 T=14D CHARGE=0 DOUBLET eps=78.4 RELSCF=1
 Title: ASE calculation



     HERBERTS TEST WAS SATISFIED IN BFGS                      
     SCF FIELD WAS ACHIEVED                                   


                              PM7 CALCULATION
                                                       MOPAC v22.0.6 Linux
                                                       Tue Mar 26 11:17:20 2024




          FINAL HEAT OF FORMATION =        -67.87389 KCAL/MOL =    -283.98434 KJ/MOL
          VAN DER WAALS AREA      =        341.26 SQUARE ANGSTROMS



          DIELECTRIC ENERGY       =         -1.09140 EV
          COSMO AREA              =        341.26 SQUARE ANGSTROMS
          COSMO VOLUME            =        361.37 CUBIC ANGSTROMS

          GRADIENT NORM           =          1.72538          =       0.27281 PER ATOM
          IONIZATION POTENTIAL    =          7.682414 EV
          ALPHA SOMO LUMO (EV)    =         -7.682 -1.549
          BETA  SOMO LUMO (EV)    =         -9.744 -1.549
          NO. OF ALPHA ELECTRONS  =         59
          NO. OF BETA  ELECTRONS  =         58
          MOLECULAR WEIGHT        =        299.3059         POINT GROUP:  C1  

          MOLECULAR DIMENSIONS (Angstroms)

            Atom       Atom       Distance
            H    30    O    12    14.36138
            H    29    O    20     6.41918
            H    35    H    17     4.94152


          SCF CALCULATIONS        =         10

          WALL-CLOCK TIME         =      2.387 SECONDS
          COMPUTATION TIME        =          3 MINUTES AND 24.567 SECONDS




   ATOM   CHEMICAL          X               Y               Z
  NUMBER   SYMBOL      (ANGSTROMS)     (ANGSTROMS)     (ANGSTROMS)

     1       C         -0.35231210  *   1.00331070  *   1.08992910  *
     2       C          1.02631213  *   0.79867971  *   1.06966051  *
     3       C          1.55789936  *  -0.38708181  *   0.55311952  *
     4       C          0.70921287  *  -1.37021865  *   0.04801245  *
     5       C         -0.67137087  *  -1.14792865  *   0.07001007  *
     6       C         -1.21445900  *   0.03383078  *   0.58994954  *
     7       H         -0.75794022  *   1.93161118  *   1.50176907  *
     8       H          1.69274996  *   1.57747056  *   1.46582836  *
     9       H          1.11637014  *  -2.30418956  *  -0.36234992  *
    10       H         -2.29932015  *   0.19516988  *   0.60209045  *
    11       N         -1.55470357  *  -2.16210130  *  -0.44984139  *
    12       O         -2.76306556  *  -1.96497189  *  -0.43627987  *
    13       O         -1.07780083  *  -3.19888854  *  -0.89291930  *
    14       C          3.04748084  *  -0.59418930  *   0.57975912  *
    15       C          3.43765975  *  -1.87581894  *   1.30565005  *
    16       H          4.52783908  *  -1.98270965  *   1.40705952  *
    17       H          3.06302076  *  -2.78328933  *   0.80866072  *
    18       H          3.02623094  *  -1.88043139  *   2.32847135  *
    19       N          3.55718945  *  -0.66654824  *  -0.83271536  *
    20       O          4.38699488  *   0.15625627  *  -1.18556111  *
    21       O          3.13708535  *  -1.53352592  *  -1.57844361  *
    22       H          3.56585875  *   0.29011002  *   1.07255150  *
    23       C          5.92028879  *   4.68183803  *   5.93437053  *
    24       N          7.19528123  *   4.95587037  *   5.53371896  *
    25       C          7.64393972  *   4.53775969  *   4.19394021  *
    26       C          6.67680025  *   3.52662976  *   3.54347083  *
    27       N          5.27674202  *   3.99926877  *   3.60771078  *
    28       C          4.86278968  *   4.16140874  *   5.02503061  *
    29       H          5.66382021  *   4.84391038  *   6.96975892  *
    30       H          7.92114013  *   4.92066182  *   6.24839939  *
    31       H          8.66883965  *   4.10882997  *   4.24857937  *
    32       H          7.71870909  *   5.45383012  *   3.56063091  *
    33       H          6.95269826  *   3.35852040  *   2.47934894  *
    34       H          6.74625015  *   2.54020757  *   4.05211885  *
    35       H          5.18887074  *   4.89396989  *   3.11190086  *
    36       H          3.95917032  *   4.81505991  *   5.06145954  *
    37       H          4.52777816  *   3.15668906  *   5.38875132  *
    38       H          3.40773110  *   1.29322885  *   3.37652179  *
    39       H          4.20003934  *   2.52679990  *   2.92515852  *
    40       O          3.59559918  *   1.82879082  *   2.60253887  *

                             CARTESIAN COORDINATES

   1    C       -0.352312095     1.003310703     1.089929103
   2    C        1.026312130     0.798679714     1.069660515
   3    C        1.557899361    -0.387081812     0.553119524
   4    C        0.709212869    -1.370218646     0.048012451
   5    C       -0.671370874    -1.147928653     0.070010072
   6    C       -1.214458995     0.033830782     0.589949543
   7    H       -0.757940223     1.931611179     1.501769075
   8    H        1.692749965     1.577470558     1.465828358
   9    H        1.116370143    -2.304189563    -0.362349917
  10    H       -2.299320146     0.195169878     0.602090454
  11    N       -1.554703574    -2.162101297    -0.449841392
  12    O       -2.763065557    -1.964971895    -0.436279866
  13    O       -1.077800830    -3.198888537    -0.892919295
  14    C        3.047480838    -0.594189299     0.579759117
  15    C        3.437659748    -1.875818945     1.305650054
  16    H        4.527839075    -1.982709647     1.407059522
  17    H        3.063020760    -2.783289327     0.808660721
  18    H        3.026230943    -1.880431385     2.328471349
  19    N        3.557189448    -0.666548240    -0.832715361
  20    O        4.386994882     0.156256272    -1.185561110
  21    O        3.137085345    -1.533525917    -1.578443615
  22    H        3.565858753     0.290110018     1.072551505
  23    C        5.920288791     4.681838033     5.934370530
  24    N        7.195281232     4.955870373     5.533718958
  25    C        7.643939718     4.537759687     4.193940211
  26    C        6.676800253     3.526629758     3.543470833
  27    N        5.276742021     3.999268766     3.607710785
  28    C        4.862789683     4.161408741     5.025030611
  29    H        5.663820215     4.843910380     6.969758920
  30    H        7.921140126     4.920661821     6.248399389
  31    H        8.668839653     4.108829966     4.248579368
  32    H        7.718709089     5.453830125     3.560630910
  33    H        6.952698256     3.358520405     2.479348938
  34    H        6.746250150     2.540207565     4.052118853
  35    H        5.188870737     4.893969891     3.111900856
  36    H        3.959170320     4.815059915     5.061459539
  37    H        4.527778162     3.156689062     5.388751318
  38    H        3.407731103     1.293228845     3.376521793
  39    H        4.200039344     2.526799901     2.925158519
  40    O        3.595599180     1.828790825     2.602538866


           Empirical Formula: C12 H19 N4 O5  =    40 atoms



      MOLECULAR POINT GROUP   :   C1  


          ALPHA EIGENVALUES  
 -37.58575 -37.53751 -36.76210 -34.87880 -31.71945 -31.01403 -30.91059 -29.44163
 -28.86508 -27.76612 -26.34880 -26.28647 -25.11636 -24.99572 -24.47222 -22.67087
 -22.18583 -21.63211 -20.88446 -19.49294 -19.42055 -18.75993 -18.37439 -18.31538
 -17.76158 -17.68009 -17.59934 -17.43005 -17.06854 -16.39837 -16.29716 -16.13384
 -15.36840 -15.32535 -15.30320 -14.52786 -14.42942 -14.14424 -14.13473 -13.87323
 -13.77316 -13.46992 -13.43992 -12.90144 -12.76919 -12.70717 -12.15980 -12.09173
 -12.05728 -12.01716 -11.97473 -11.91551 -11.75600 -11.63184 -11.20742 -10.79954
 -10.62446  -9.80499  -7.68241  -1.54905  -0.83391  -0.54816   0.08818   0.36268
   0.40651   1.67853   2.52502   2.56410   2.93217   3.04487   3.23105   3.45886
   3.60653   3.82549   3.94847   3.98880   4.12203   4.15878   4.23598   4.27953
   4.43044   4.53920   4.60013   4.77907   4.99546   5.05112   5.21754   5.26365
   5.28680   5.32979   5.36331   5.44212   5.52871   5.60263   5.73749   5.86966
   5.98245   6.12213   6.30095   6.45842   6.52304   6.78519   6.89485


           BETA EIGENVALUES 
 -37.58575 -37.53750 -36.49914 -34.69254 -31.71945 -31.01402 -30.91059 -29.44162
 -28.86468 -27.76612 -26.28657 -26.28228 -25.11636 -24.99572 -24.34709 -22.67087
 -22.09257 -21.63211 -20.88445 -19.42056 -19.34534 -18.75976 -18.31539 -18.25296
 -17.76074 -17.67826 -17.59862 -17.42589 -17.06807 -16.29720 -16.27497 -16.02721
 -15.36791 -15.30352 -15.16356 -14.51941 -14.41634 -14.13763 -13.90558 -13.81176
 -13.71758 -13.44430 -13.36610 -12.90034 -12.76889 -12.60334 -12.15971 -12.05728
 -12.03585 -12.01715 -11.97473 -11.91551 -11.75598 -11.63179 -10.79952 -10.62445
 -10.06659  -9.74445  -1.54909  -0.83392  -0.54816   0.08819   0.36269   0.40652
   1.22387   1.67853   2.56300   2.70376   3.03586   3.05487   3.23108   3.45887
   3.60656   3.86115   3.94947   3.98886   4.12207   4.16092   4.26450   4.31625
   4.47259   4.59481   4.67460   4.78007   4.99726   5.09751   5.21763   5.28696
   5.35876   5.36331   5.44210   5.51083   5.55385   5.60332   5.73755   5.89751
   6.02170   6.17232   6.45837   6.50533   6.58144   6.89537   7.04688


              NET ATOMIC CHARGES AND DIPOLE CONTRIBUTIONS

  ATOM NO.   TYPE          CHARGE      No. of ELECS.   s-Pop       p-Pop       
    1          C          -0.178966        4.1790     1.08636     3.09261
    2          C          -0.058720        4.0587     1.10408     2.95464
    3          C          -0.093711        4.0937     1.06469     3.02902
    4          C          -0.051323        4.0513     1.09644     2.95488
    5          C          -0.099347        4.0993     1.06812     3.03123
    6          C          -0.047593        4.0476     1.09809     2.94950
    7          H           0.185141        0.8149     0.81486
    8          H           0.194713        0.8053     0.80529
    9          H           0.202354        0.7976     0.79765
   10          H           0.196711        0.8033     0.80329
   11          N           0.678115        4.3219     1.44557     2.87631
   12          O          -0.458442        6.4584     1.94087     4.51757
   13          O          -0.456147        6.4561     1.94079     4.51536
   14          C          -0.046090        4.0461     1.09673     2.94936
   15          C          -0.470250        4.4702     1.05863     3.41162
   16          H           0.177838        0.8222     0.82216
   17          H           0.182718        0.8173     0.81728
   18          H           0.187363        0.8126     0.81264
   19          N           0.621108        4.3789     1.47946     2.89943
   20          O          -0.453725        6.4537     1.93970     4.51402
   21          O          -0.435161        6.4352     1.93898     4.49618
   22          H           0.220673        0.7793     0.77933
   23          C          -0.275397        4.2754     1.07217     3.20323
   24          N          -0.432071        5.4321     1.56061     3.87146
   25          C          -0.148101        4.1481     1.07559     3.07251
   26          C          -0.144198        4.1442     1.07386     3.07033
   27          N          -0.547646        5.5476     1.66963     3.87801
   28          C          -0.114242        4.1142     1.06106     3.05318
   29          H           0.160796        0.8392     0.83920
   30          H           0.315152        0.6848     0.68485
   31          H           0.157318        0.8427     0.84268
   32          H           0.156755        0.8432     0.84325
   33          H           0.160655        0.8393     0.83934
   34          H           0.156048        0.8440     0.84395
   35          H           0.274733        0.7253     0.72527
   36          H           0.152139        0.8479     0.84786
   37          H           0.153178        0.8468     0.84682
   38          H           0.368321        0.6317     0.63168
   39          H           0.383933        0.6161     0.61607
   40          O          -0.774633        6.7746     1.81554     4.95909
 DIPOLE           X         Y         Z       TOTAL
 POINT-CHG.     5.294     5.506    10.291    12.816
 HYBRID         0.612    -0.145    -0.009     0.629
 SUM            5.907     5.361    10.282    13.014


          ATOMIC ORBITAL ELECTRON POPULATIONS

     Atom    s        px        py        pz   
    1  C   1.08636   0.99339   1.07537   1.02385
    2  C   1.10408   1.02929   1.01230   0.91305
    3  C   1.06469   0.96056   1.00350   1.06496
    4  C   1.09644   0.96592   1.05537   0.93359
    5  C   1.06812   0.94997   0.95873   1.12253
    6  C   1.09809   1.10180   0.94404   0.90366
    7  H   0.81486
    8  H   0.80529
    9  H   0.79765
   10  H   0.80329
   11  N   1.44557   0.97573   0.97583   0.92475
   12  O   1.94087   1.03871   1.84133   1.63753
   13  O   1.94079   1.77689   1.21933   1.51913
   14  C   1.09673   0.99734   1.11723   0.83480
   15  C   1.05863   1.19886   1.04929   1.16348
   16  H   0.82216
   17  H   0.81728
   18  H   0.81264
   19  N   1.47946   0.93908   0.93611   1.02424
   20  O   1.93970   1.31402   1.36337   1.83663
   21  O   1.93898   1.60758   1.31352   1.57509
   22  H   0.77933
   23  C   1.07217   0.89898   1.23692   1.06733
   24  N   1.56061   1.13433   1.59285   1.14428
   25  C   1.07559   1.07335   1.09639   0.90278
   26  C   1.07386   0.86987   1.06214   1.13833
   27  N   1.66963   1.26183   1.42223   1.19395
   28  C   1.06106   1.04468   1.13839   0.87011
   29  H   0.83920
   30  H   0.68485
   31  H   0.84268
   32  H   0.84325
   33  H   0.83934
   34  H   0.84395
   35  H   0.72527
   36  H   0.84786
   37  H   0.84682
   38  H   0.63168
   39  H   0.61607
   40  O   1.81554   1.79568   1.61818   1.54523


                    (SZ)    =    0.500000
                    (S**2)  =    0.752580


          ATOMIC ORBITAL SPIN POPULATIONS

    Atom   Total    s     px     py     pz   
         Atomic
    1  C  0.0000  0.000  0.000  0.000  0.000
    2  C -0.0000 -0.000 -0.000 -0.000 -0.000
    3  C  0.0000  0.000  0.000  0.000  0.000
    4  C -0.0000 -0.000 -0.000 -0.000 -0.000
    5  C  0.0000  0.000  0.000  0.000  0.000
    6  C -0.0000 -0.000 -0.000 -0.000 -0.000
    7  H -0.0000 -0.000
    8  H  0.0000  0.000
    9  H  0.0000  0.000
   10  H  0.0000  0.000
   11  N -0.0000 -0.000 -0.000 -0.000 -0.000
   12  O -0.0000 -0.000  0.000  0.000 -0.000
   13  O  0.0000  0.000 -0.000  0.000  0.000
   14  C -0.0000 -0.000 -0.000 -0.000 -0.000
   15  C  0.0000  0.000 -0.000  0.000  0.000
   16  H  0.0000  0.000
   17  H  0.0000  0.000
   18  H -0.0000 -0.000
   19  N  0.0000  0.000  0.000  0.000  0.000
   20  O  0.0000  0.000  0.000 -0.000  0.000
   21  O -0.0000  0.000 -0.000 -0.000  0.000
   22  H  0.0000  0.000
   23  C  0.7536  0.019  0.037  0.635  0.063
   24  N  0.2485  0.027  0.001  0.201  0.020
   25  C -0.0031  0.001  0.001  0.001 -0.005
   26  C  0.0025  0.000  0.000  0.001  0.001
   27  N  0.0005  0.000 -0.000 -0.000  0.001
   28  C -0.0347 -0.005 -0.016 -0.007 -0.007
   29  H -0.0216 -0.022
   30  H  0.0091  0.009
   31  H  0.0031  0.003
   32  H  0.0049  0.005
   33  H  0.0000  0.000
   34  H -0.0002 -0.000
   35  H  0.0004  0.000
   36  H  0.0150  0.015
   37  H  0.0218  0.022
   38  H -0.0000 -0.000
   39  H -0.0000 -0.000
   40  O  0.0000 -0.000  0.000  0.000  0.000

          BONDING CONTRIBUTION OF EACH ALPHA M.O.

  0.6742  0.6570  0.6957  0.6331  0.9365  0.5012  0.4985  0.8427  0.5674  0.7389
  0.9632  0.8221  0.6466  0.6149  0.8877  0.8480  0.9801  0.7563  0.7500  0.9401
  0.7897  0.6558  0.9772  0.5817  0.7949  0.7834  0.7929  0.8362  0.9075  0.9017
  0.9598  0.9836  0.9374  0.8725  0.9775  0.7179  0.7685  0.8027  0.8401  0.8378
  0.8614  0.9927  0.9266  0.8860  0.9489  0.9741  0.0525  0.9642  0.4446  0.4252
  0.1567  0.1502  0.3465  0.4549  0.4855  0.9428  0.9727  0.5002  0.1554 -1.0648
 -1.0084 -1.1646 -1.0804 -1.0563 -1.0492 -0.9924 -0.9884 -0.9807 -0.9532 -0.9796
 -0.9771 -0.9824 -0.9856 -1.0124 -0.9935 -1.0118 -0.9997 -0.9766 -0.9701 -0.9739
 -0.9556 -0.9738 -0.9779 -0.9896 -0.9403 -0.9591 -0.9739 -0.9604 -0.9732 -0.9588
 -0.9734 -0.9718 -0.9859 -0.9681 -0.9691 -0.9694 -0.9697 -0.9796 -0.9804 -0.9436
 -0.9395 -0.9281 -0.8717

          BONDING CONTRIBUTION OF EACH BETA  M.O.

  0.6742  0.6570  0.7164  0.6490  0.9365  0.5012  0.4985  0.8427  0.5674  0.7389
  0.8250  0.9652  0.6466  0.6149  0.9003  0.8480  0.9850  0.7563  0.7500  0.7897
  0.9576  0.6558  0.5818  0.9857  0.7951  0.7842  0.7933  0.8379  0.9073  0.9598
  0.9587  1.0044  0.9395  0.9780  0.9388  0.7552  0.7123  0.8742  0.8824  0.9630
  0.8507  0.9225  0.9960  0.8856  0.9486  1.0126  0.0523  0.4446  0.9865  0.4252
  0.1569  0.1502  0.3465  0.4549  0.9428  0.9727  0.8213  0.5355 -1.0649 -1.0084
 -1.1646 -1.0804 -1.0563 -1.0492 -0.8036 -0.9924 -0.9804 -0.9823 -0.9672 -0.9622
 -0.9771 -0.9824 -0.9856 -1.0067 -0.9943 -1.0116 -0.9997 -0.9778 -0.9749 -0.9572
 -0.9445 -0.9796 -0.9870 -0.9892 -0.9405 -0.9600 -0.9738 -0.9732 -0.9628 -0.9734
 -0.9717 -0.9335 -0.9774 -0.9682 -0.9691 -0.9630 -0.9681 -0.9682 -0.9436 -0.9550
 -0.9667 -0.8718 -0.9134





            (VALENCIES)   BOND ORDERS

     1  C     (3.966)     6  C 1.458     2  C 1.432     7  H 0.953     4  C 0.102

     2  C     (3.946)     1  C 1.432     3  C 1.406     8  H 0.945     5  C 0.103     6  C 0.011

     3  C     (3.988)     4  C 1.441     2  C 1.406    14  C 0.992     6  C 0.101

     4  C     (3.947)     3  C 1.441     5  C 1.387     9  H 0.942     1  C 0.102    12  O 0.019    13  O 0.012

     5  C     (3.932)     4  C 1.387     6  C 1.373    11  N 0.909     2  C 0.103    13  O 0.069    12  O 0.068

     6  C     (3.947)     1  C 1.458     5  C 1.373    10  H 0.947     3  C 0.101    13  O 0.018    12  O 0.011
                          2  C 0.011

     7  H     (0.966)     1  C 0.953

     8  H     (0.962)     2  C 0.945

     9  H     (0.959)     4  C 0.942

    10  H     (0.961)     6  C 0.947

    11  N     (3.785)    13  O 1.423    12  O 1.422     5  C 0.909

    12  O     (1.816)    11  N 1.422    13  O 0.286     5  C 0.068     4  C 0.019     6  C 0.011

    13  O     (1.817)    11  N 1.423    12  O 0.286     5  C 0.069     6  C 0.018     4  C 0.012

    14  C     (3.898)     3  C 0.992    15  C 0.991    22  H 0.929    19  N 0.819    21  O 0.070    20  O 0.066

    15  C     (3.893)    14  C 0.991    16  H 0.958    17  H 0.956    18  H 0.949

    16  H     (0.968)    15  C 0.958

    17  H     (0.967)    15  C 0.956

    18  H     (0.965)    15  C 0.949

    19  N     (3.743)    21  O 1.453    20  O 1.438    14  C 0.819

    20  O     (1.832)    19  N 1.438    21  O 0.303    14  C 0.066

    21  O     (1.849)    19  N 1.453    20  O 0.303    14  C 0.070

    22  H     (0.951)    14  C 0.929

    23  C     (3.860)    24  N 1.143    28  C 1.008    29  H 0.955    25  C 0.016    27  N 0.011

    24  N     (3.198)    23  C 1.143    25  C 0.932    30  H 0.853

    25  C     (3.913)    26  C 0.989    31  H 0.961    32  H 0.958    24  N 0.932    23  C 0.016    27  N 0.016
                         29  H 0.011    30  H 0.011

    26  C     (3.925)    25  C 0.989    27  N 0.976    34  H 0.963    33  H 0.958

    27  N     (2.940)    26  C 0.976    28  C 0.969    35  H 0.900    39  H 0.035    25  C 0.016    40  O 0.014
                         23  C 0.011

    28  C     (3.932)    23  C 1.008    27  N 0.969    36  H 0.956    37  H 0.952

    29  H     (0.974)    23  C 0.955    25  C 0.011

    30  H     (0.901)    24  N 0.853    25  C 0.011

    31  H     (0.975)    25  C 0.961

    32  H     (0.975)    25  C 0.958

    33  H     (0.974)    26  C 0.958

    34  H     (0.976)    26  C 0.963

    35  H     (0.925)    27  N 0.900

    36  H     (0.977)    28  C 0.956

    37  H     (0.977)    28  C 0.952

    38  H     (0.864)    40  O 0.861

    39  H     (0.853)    40  O 0.814    27  N 0.035

    40  O     (1.703)    38  H 0.861    39  H 0.814    27  N 0.014


 **********************
 *                    *
 * JOB ENDED NORMALLY *
 *                    *
 **********************



 TOTAL JOB TIME:             2.45 SECONDS

 == MOPAC DONE ==
