 *******************************************************************************
 **                                                                           **
 **                              MOPAC v22.0.6                                **
 **                                                                           **
 *******************************************************************************
 **          Digital Object Identifier (DOI): 10.5281/zenodo.6511958          **
 **    Visit the DOI location for information on how to cite this program.    **
 *******************************************************************************

                              PM7 CALCULATION RESULTS

 *******************************************************************************
 *  CALCULATION DONE:                                Mon Mar 25 22:33:29 2024  *
 *  PM7        - The PM7 Hamiltonian to be used
 *  SINGLET    - SPIN STATE DEFINED AS A SINGLET
 *
 *
 *
 *                 CHARGE ON SYSTEM = -1
 *
 *
 *
 *  EPS=78.4   - USE ANDREAS KLAMT'S COSMO IMPLICIT SOLVATION MODEL
 *  T=         - A TIME OF 14.0 DAYS REQUESTED
 *  DUMP=N     - RESTART FILE WRITTEN EVERY 30.0 MINUTES REQUESTED
 *  RELSCF     - DEFAULT SCF CRITERION MULTIPLIED BY 1.0000
 *              (DEFAULT SCF CRITERION = 0.00010)
 *  ITRY=      - DO A MAXIMUM OF 15000 ITERATIONS FOR SCF
 *  AUX        - OUTPUT AUXILIARY INFORMATION
 *  BONDS      - FINAL BOND-ORDER MATRIX TO BE PRINTED
 *******************************************************************************
PM7 BONDS AUX DUMP=30M ITRY=15000 T=14D CHARGE=-1 SINGLET eps=78.4 RELSCF=1
 Title: ASE calculation

   ATOM   CHEMICAL          X               Y               Z
  NUMBER   SYMBOL      (ANGSTROMS)     (ANGSTROMS)     (ANGSTROMS)

     1       C          0.45718000  *   1.28751000  *   0.33156000  *
     2       C          0.90181000  *   0.68720000  *  -0.85002000  *
     3       C          0.49433000  *  -0.61755000  *  -1.17226000  *
     4       C         -0.35586000  *  -1.29366000  *  -0.28389000  *
     5       C         -0.77856000  *  -0.67281000  *   0.89404000  *
     6       C         -0.38577000  *   0.62688000  *   1.22469000  *
     7       H          1.57826000  *   1.23417000  *  -1.52270000  *
     8       H         -0.69478000  *  -2.31332000  *  -0.51759000  *
     9       H         -0.72501000  *   1.10694000  *   2.15401000  *
    10       N         -1.64892000  *  -1.38989000  *   1.79987000  *
    11       O         -2.07910000  *  -0.81399000  *   2.79014000  *
    12       O         -1.93391000  *  -2.55468000  *   1.55629000  *
    13       C          0.95310000  *  -1.28658000  *  -2.36920000  *
    14       H          4.16147000  *  -1.23585000  *  -2.34138000  *
    15       C          1.13122000  *  -2.76663000  *  -2.33398000  *
    16       H          1.79298000  *  -3.13409000  *  -3.13226000  *
    17       H          0.17365000  *  -3.29663000  *  -2.45176000  *
    18       H          1.57491000  *  -3.09709000  *  -1.38178000  *
    19       N          1.21255000  *  -0.62106000  *  -3.50314000  *
    20       O          1.63967000  *  -1.21033000  *  -4.52969000  *
    21       O          1.02680000  *   0.62138000  *  -3.59829000  *
    22       O          8.02516000  *  -0.71000000  *  -2.93319000  *
    23       H          8.48078000  *  -1.08831000  *  -2.17193000  *
    24       N          0.89026000  *   2.63351000  *   0.64314000  *
    25       O          0.51483000  *   3.15089000  *   1.68587000  *
    26       O          1.61904000  *   3.22074000  *  -0.14444000  *
    27       H          5.55865000  *  -1.33444000  *  -1.39605000  *
    28       H          7.09632000  *  -0.89626000  *  -2.77869000  *
    29       O          5.44980000  *  -1.23569000  *  -2.34554000  *



          CARTESIAN COORDINATES 

    NO.       ATOM           X           Y           Z

     1         C          0.4572      1.2875      0.3316
     2         C          0.9018      0.6872     -0.8500
     3         C          0.4943     -0.6176     -1.1723
     4         C         -0.3559     -1.2937     -0.2839
     5         C         -0.7786     -0.6728      0.8940
     6         C         -0.3858      0.6269      1.2247
     7         H          1.5783      1.2342     -1.5227
     8         H         -0.6948     -2.3133     -0.5176
     9         H         -0.7250      1.1069      2.1540
    10         N         -1.6489     -1.3899      1.7999
    11         O         -2.0791     -0.8140      2.7901
    12         O         -1.9339     -2.5547      1.5563
    13         C          0.9531     -1.2866     -2.3692
    14         H          4.1615     -1.2359     -2.3414
    15         C          1.1312     -2.7666     -2.3340
    16         H          1.7930     -3.1341     -3.1323
    17         H          0.1736     -3.2966     -2.4518
    18         H          1.5749     -3.0971     -1.3818
    19         N          1.2126     -0.6211     -3.5031
    20         O          1.6397     -1.2103     -4.5297
    21         O          1.0268      0.6214     -3.5983
    22         O          8.0252     -0.7100     -2.9332
    23         H          8.4808     -1.0883     -2.1719
    24         N          0.8903      2.6335      0.6431
    25         O          0.5148      3.1509      1.6859
    26         O          1.6190      3.2207     -0.1444
    27         H          5.5587     -1.3344     -1.3961
    28         H          7.0963     -0.8963     -2.7787
    29         O          5.4498     -1.2357     -2.3455

 General Reference for PM7:
 "Optimization of Parameters for Semiempirical Methods VI: More Modifications to the 
 NDDO Approximations and Re-optimization of Parameters", J. J. P. Stewart, J. Mol. Mod., 1:32, 19 (2013)
 https://link.springer.com/article/10.1007/s00894-012-1667-x

           Empirical Formula: C8 H10 N3 O8  =    29 atoms



      MOLECULAR POINT GROUP   :   C1  


 SINGLET STATE CALCULATION


      RHF CALCULATION, NO. OF DOUBLY OCCUPIED LEVELS = 53


          Geometry optimization using EF
  SCF CRITERION =    0.1000E-03

          DIAGONAL MATRIX USED AS START HESSIAN

 CYCLE:     1 TIME:   0.117 TIME LEFT:  2.00W  GRAD.:   182.206 HEAT: -226.8950
 CYCLE:     2 TIME:   0.055 TIME LEFT:  2.00W  GRAD.:    63.502 HEAT: -249.4112
 CYCLE:     3 TIME:   0.156 TIME LEFT:  2.00W  GRAD.:    39.398 HEAT: -250.8618
 CYCLE:     4 TIME:   0.188 TIME LEFT:  2.00W  GRAD.:    25.558 HEAT: -251.1739
 CYCLE:     5 TIME:   0.094 TIME LEFT:  2.00W  GRAD.:    27.942 HEAT: -251.2909
 CYCLE:     6 TIME:   0.148 TIME LEFT:  2.00W  GRAD.:    11.990 HEAT: -251.4205
 CYCLE:     7 TIME:   0.156 TIME LEFT:  2.00W  GRAD.:     9.152 HEAT: -251.4818
 CYCLE:     8 TIME:   0.250 TIME LEFT:  2.00W  GRAD.:     7.587 HEAT: -251.4976

     TRUST RADIUS NOW LESS THAN  0.00010 OPTIMIZATION TERMINATING
      THE GEOMETRY MAY NOT BE COMPLETELY OPTIMIZED
      (TO CONTINUE, ADD 'LET DDMIN=0.0' TO THE KEYWORD LINE)

 -------------------------------------------------------------------------------
 PM7 BONDS AUX DUMP=30M ITRY=15000 T=14D CHARGE=-1 SINGLET eps=78.4 RELSCF=1
 Title: ASE calculation



     GEOMETRY OPTIMISED USING EIGENVECTOR FOLLOWING (EF).     
     SCF FIELD WAS ACHIEVED                                   


                              PM7 CALCULATION
                                                       MOPAC v22.0.6 Linux
                                                       Mon Mar 25 22:33:31 2024




          FINAL HEAT OF FORMATION =       -251.49761 KCAL/MOL =   -1052.26602 KJ/MOL
          VAN DER WAALS AREA      =        293.87 SQUARE ANGSTROMS



          DIELECTRIC ENERGY       =         -3.28750 EV
          COSMO AREA              =        293.87 SQUARE ANGSTROMS
          COSMO VOLUME            =        300.82 CUBIC ANGSTROMS

          GRADIENT NORM           =          7.58677          =       1.40883 PER ATOM
          IONIZATION POTENTIAL    =          8.514592 EV
          HOMO LUMO ENERGIES (EV) =         -8.515 -1.672
          NO. OF FILLED LEVELS    =         53
          MOLECULAR WEIGHT        =        276.1823         POINT GROUP:  C1  

          MOLECULAR DIMENSIONS (Angstroms)

            Atom       Atom       Distance
            H    23    O    11    11.66496
            O    25    H    17     7.49872
            O    21    O    11     4.62151


          SCF CALCULATIONS        =         25

          WALL-CLOCK TIME         =      1.516 SECONDS
          COMPUTATION TIME        =          2 MINUTES AND 8.687 SECONDS



       FINAL  POINT  AND  DERIVATIVES

   PARAMETER     ATOM    TYPE            VALUE        GRADIENT
      1          1  C    CARTESIAN X     0.461230     -0.288610  KCAL/ANGSTROM
      2          1  C    CARTESIAN Y     1.288731     -0.608353  KCAL/ANGSTROM
      3          1  C    CARTESIAN Z     0.329327     -0.010996  KCAL/ANGSTROM
      4          2  C    CARTESIAN X     0.906277     -0.445543  KCAL/ANGSTROM
      5          2  C    CARTESIAN Y     0.688114      0.218746  KCAL/ANGSTROM
      6          2  C    CARTESIAN Z    -0.851338      0.856100  KCAL/ANGSTROM
      7          3  C    CARTESIAN X     0.501974     -0.474756  KCAL/ANGSTROM
      8          3  C    CARTESIAN Y    -0.616830     -0.177512  KCAL/ANGSTROM
      9          3  C    CARTESIAN Z    -1.173076     -0.012961  KCAL/ANGSTROM
     10          4  C    CARTESIAN X    -0.348943      0.135139  KCAL/ANGSTROM
     11          4  C    CARTESIAN Y    -1.294652      0.449524  KCAL/ANGSTROM
     12          4  C    CARTESIAN Z    -0.284666      0.145796  KCAL/ANGSTROM
     13          5  C    CARTESIAN X    -0.771347      0.208402  KCAL/ANGSTROM
     14          5  C    CARTESIAN Y    -0.672854     -0.260289  KCAL/ANGSTROM
     15          5  C    CARTESIAN Z     0.892934     -0.129709  KCAL/ANGSTROM
     16          6  C    CARTESIAN X    -0.380693      0.736657  KCAL/ANGSTROM
     17          6  C    CARTESIAN Y     0.626621      0.032278  KCAL/ANGSTROM
     18          6  C    CARTESIAN Z     1.223231     -0.908247  KCAL/ANGSTROM
     19          7  H    CARTESIAN X     1.581173      0.134336  KCAL/ANGSTROM
     20          7  H    CARTESIAN Y     1.234820      0.103734  KCAL/ANGSTROM
     21          7  H    CARTESIAN Z    -1.526130     -0.141290  KCAL/ANGSTROM
     22          8  H    CARTESIAN X    -0.690740     -0.398762  KCAL/ANGSTROM
     23          8  H    CARTESIAN Y    -2.312423     -0.215685  KCAL/ANGSTROM
     24          8  H    CARTESIAN Z    -0.519282      0.104219  KCAL/ANGSTROM
     25          9  H    CARTESIAN X    -0.723128     -0.233562  KCAL/ANGSTROM
     26          9  H    CARTESIAN Y     1.106393      0.133062  KCAL/ANGSTROM
     27          9  H    CARTESIAN Z     2.151315      0.347462  KCAL/ANGSTROM
     28         10  N    CARTESIAN X    -1.642202      0.063444  KCAL/ANGSTROM
     29         10  N    CARTESIAN Y    -1.391697      0.760483  KCAL/ANGSTROM
     30         10  N    CARTESIAN Z     1.797013      0.075488  KCAL/ANGSTROM
     31         11  O    CARTESIAN X    -2.073993      0.177163  KCAL/ANGSTROM
     32         11  O    CARTESIAN Y    -0.817659     -0.019344  KCAL/ANGSTROM
     33         11  O    CARTESIAN Z     2.787153     -0.161498  KCAL/ANGSTROM
     34         12  O    CARTESIAN X    -1.925368     -0.144053  KCAL/ANGSTROM
     35         12  O    CARTESIAN Y    -2.557090     -0.788447  KCAL/ANGSTROM
     36         12  O    CARTESIAN Z     1.552601     -0.062874  KCAL/ANGSTROM
     37         13  C    CARTESIAN X     0.961485     -0.145337  KCAL/ANGSTROM
     38         13  C    CARTESIAN Y    -1.287357     -0.545463  KCAL/ANGSTROM
     39         13  C    CARTESIAN Z    -2.367839      0.654786  KCAL/ANGSTROM
     40         14  H    CARTESIAN X     4.341927     -1.529470  KCAL/ANGSTROM
     41         14  H    CARTESIAN Y    -1.216483     -3.626857  KCAL/ANGSTROM
     42         14  H    CARTESIAN Z    -2.337213      0.414075  KCAL/ANGSTROM
     43         15  C    CARTESIAN X     1.136639      0.026119  KCAL/ANGSTROM
     44         15  C    CARTESIAN Y    -2.767721      0.336222  KCAL/ANGSTROM
     45         15  C    CARTESIAN Z    -2.333471     -0.315808  KCAL/ANGSTROM
     46         16  H    CARTESIAN X     1.798378     -0.467579  KCAL/ANGSTROM
     47         16  H    CARTESIAN Y    -3.133260     -0.044950  KCAL/ANGSTROM
     48         16  H    CARTESIAN Z    -3.132420      0.065061  KCAL/ANGSTROM
     49         17  H    CARTESIAN X     0.178352     -0.051424  KCAL/ANGSTROM
     50         17  H    CARTESIAN Y    -3.295803      0.083829  KCAL/ANGSTROM
     51         17  H    CARTESIAN Z    -2.452310      0.107217  KCAL/ANGSTROM
     52         18  H    CARTESIAN X     1.580083     -0.280593  KCAL/ANGSTROM
     53         18  H    CARTESIAN Y    -3.099223      0.186468  KCAL/ANGSTROM
     54         18  H    CARTESIAN Z    -1.381837      0.325083  KCAL/ANGSTROM
     55         19  N    CARTESIAN X     1.225472     -0.215754  KCAL/ANGSTROM
     56         19  N    CARTESIAN Y    -0.621165      1.248697  KCAL/ANGSTROM
     57         19  N    CARTESIAN Z    -3.501725     -1.160090  KCAL/ANGSTROM
     58         20  O    CARTESIAN X     1.646383      0.392706  KCAL/ANGSTROM
     59         20  O    CARTESIAN Y    -1.210290      0.201610  KCAL/ANGSTROM
     60         20  O    CARTESIAN Z    -4.530554      0.184954  KCAL/ANGSTROM
     61         21  O    CARTESIAN X     1.037266     -0.861135  KCAL/ANGSTROM
     62         21  O    CARTESIAN Y     0.621035     -0.716075  KCAL/ANGSTROM
     63         21  O    CARTESIAN Z    -3.596028     -0.252775  KCAL/ANGSTROM
     64         22  O    CARTESIAN X     8.022752      1.149013  KCAL/ANGSTROM
     65         22  O    CARTESIAN Y    -0.697387     -0.273292  KCAL/ANGSTROM
     66         22  O    CARTESIAN Z    -2.924686     -0.190381  KCAL/ANGSTROM
     67         23  H    CARTESIAN X     8.481619      1.031802  KCAL/ANGSTROM
     68         23  H    CARTESIAN Y    -1.087284      0.043779  KCAL/ANGSTROM
     69         23  H    CARTESIAN Z    -2.170432      0.385763  KCAL/ANGSTROM
     70         24  N    CARTESIAN X     0.893877      0.329431  KCAL/ANGSTROM
     71         24  N    CARTESIAN Y     2.634720      0.608220  KCAL/ANGSTROM
     72         24  N    CARTESIAN Z     0.640332      0.059642  KCAL/ANGSTROM
     73         25  O    CARTESIAN X     0.518411      0.099624  KCAL/ANGSTROM
     74         25  O    CARTESIAN Y     3.151689     -0.296527  KCAL/ANGSTROM
     75         25  O    CARTESIAN Z     1.683067     -0.607445  KCAL/ANGSTROM
     76         26  O    CARTESIAN X     1.622708     -0.358012  KCAL/ANGSTROM
     77         26  O    CARTESIAN Y     3.221971     -0.282463  KCAL/ANGSTROM
     78         26  O    CARTESIAN Z    -0.146484      0.552754  KCAL/ANGSTROM
     79         27  H    CARTESIAN X     5.544839      2.371506  KCAL/ANGSTROM
     80         27  H    CARTESIAN Y    -1.332076      0.075005  KCAL/ANGSTROM
     81         27  H    CARTESIAN Z    -1.399364     -0.747000  KCAL/ANGSTROM
     82         28  H    CARTESIAN X     7.096240      0.995968  KCAL/ANGSTROM
     83         28  H    CARTESIAN Y    -0.888688     -0.516584  KCAL/ANGSTROM
     84         28  H    CARTESIAN Z    -2.779814      0.508116  KCAL/ANGSTROM
     85         29  O    CARTESIAN X     5.301698     -1.958020  KCAL/ANGSTROM
     86         29  O    CARTESIAN Y    -1.250768      3.890531  KCAL/ANGSTROM
     87         29  O    CARTESIAN Z    -2.333040     -0.085280  KCAL/ANGSTROM




   ATOM   CHEMICAL          X               Y               Z
  NUMBER   SYMBOL      (ANGSTROMS)     (ANGSTROMS)     (ANGSTROMS)

     1       C          0.46123032  *   1.28873057  *   0.32932728  *
     2       C          0.90627714  *   0.68811433  *  -0.85133793  *
     3       C          0.50197380  *  -0.61683030  *  -1.17307569  *
     4       C         -0.34894262  *  -1.29465205  *  -0.28466589  *
     5       C         -0.77134724  *  -0.67285447  *   0.89293445  *
     6       C         -0.38069278  *   0.62662065  *   1.22323072  *
     7       H          1.58117326  *   1.23482015  *  -1.52613015  *
     8       H         -0.69073978  *  -2.31242272  *  -0.51928162  *
     9       H         -0.72312805  *   1.10639279  *   2.15131513  *
    10       N         -1.64220250  *  -1.39169707  *   1.79701273  *
    11       O         -2.07399320  *  -0.81765904  *   2.78715312  *
    12       O         -1.92536844  *  -2.55708972  *   1.55260091  *
    13       C          0.96148501  *  -1.28735740  *  -2.36783938  *
    14       H          4.34192725  *  -1.21648264  *  -2.33721323  *
    15       C          1.13663946  *  -2.76772126  *  -2.33347055  *
    16       H          1.79837818  *  -3.13325992  *  -3.13241979  *
    17       H          0.17835242  *  -3.29580267  *  -2.45230971  *
    18       H          1.58008255  *  -3.09922307  *  -1.38183688  *
    19       N          1.22547214  *  -0.62116461  *  -3.50172534  *
    20       O          1.64638297  *  -1.21029005  *  -4.53055407  *
    21       O          1.03726582  *   0.62103500  *  -3.59602770  *
    22       O          8.02275189  *  -0.69738701  *  -2.92468598  *
    23       H          8.48161937  *  -1.08728398  *  -2.17043188  *
    24       N          0.89387746  *   2.63471977  *   0.64033225  *
    25       O          0.51841110  *   3.15168913  *   1.68306744  *
    26       O          1.62270775  *   3.22197087  *  -0.14648357  *
    27       H          5.54483909  *  -1.33207632  *  -1.39936391  *
    28       H          7.09624016  *  -0.88868761  *  -2.77981360  *
    29       O          5.30169775  *  -1.25076796  *  -2.33303968  *

                             CARTESIAN COORDINATES

   1    C        0.461230325     1.288730571     0.329327277
   2    C        0.906277137     0.688114329    -0.851337932
   3    C        0.501973802    -0.616830297    -1.173075691
   4    C       -0.348942624    -1.294652054    -0.284665890
   5    C       -0.771347238    -0.672854469     0.892934448
   6    C       -0.380692785     0.626620653     1.223230724
   7    H        1.581173264     1.234820151    -1.526130147
   8    H       -0.690739776    -2.312422719    -0.519281616
   9    H       -0.723128054     1.106392789     2.151315134
  10    N       -1.642202500    -1.391697071     1.797012733
  11    O       -2.073993205    -0.817659042     2.787153116
  12    O       -1.925368437    -2.557089718     1.552600905
  13    C        0.961485011    -1.287357401    -2.367839379
  14    H        4.341927255    -1.216482645    -2.337213226
  15    C        1.136639463    -2.767721263    -2.333470551
  16    H        1.798378183    -3.133259924    -3.132419793
  17    H        0.178352419    -3.295802666    -2.452309711
  18    H        1.580082548    -3.099223072    -1.381836883
  19    N        1.225472136    -0.621164614    -3.501725338
  20    O        1.646382973    -1.210290051    -4.530554073
  21    O        1.037265817     0.621035004    -3.596027697
  22    O        8.022751891    -0.697387008    -2.924685981
  23    H        8.481619375    -1.087283980    -2.170431880
  24    N        0.893877460     2.634719774     0.640332249
  25    O        0.518411102     3.151689128     1.683067444
  26    O        1.622707749     3.221970874    -0.146483575
  27    H        5.544839092    -1.332076316    -1.399363910
  28    H        7.096240159    -0.888687608    -2.779813601
  29    O        5.301697751    -1.250767959    -2.333039681


           Empirical Formula: C8 H10 N3 O8  =    29 atoms



      MOLECULAR POINT GROUP   :   C1  


                  EIGENVALUES  
 -37.60384 -37.53996 -36.00038 -31.78128 -30.98474 -30.90341 -29.69937 -29.14476
 -28.58156 -28.42323 -28.17103 -26.49110 -25.27367 -25.06578 -24.05631 -22.21849
 -21.47593 -20.35545 -19.12208 -18.64251 -18.32011 -18.04619 -17.81686 -17.58873
 -17.56110 -17.52545 -17.18330 -17.10165 -16.55847 -16.44530 -15.66135 -14.81819
 -14.41876 -14.23401 -14.06894 -13.74862 -13.61011 -13.26655 -12.87567 -12.64993
 -12.41417 -11.99635 -11.97618 -11.91516 -11.89695 -11.83450 -11.68599 -11.10969
 -11.06795 -11.03989 -10.85586 -10.71252  -8.51459  -1.67242  -1.38597  -0.16858
   0.25921   0.29701   0.43246   1.07504   1.70975   2.04899   2.88375   3.06074
   3.48399   3.53769   3.61330   3.74266   3.82577   4.08310   4.21304   4.44846
   4.54708   4.55922   4.70813   4.77034   5.27034   5.43722   5.51195   5.67655
   5.80933   5.85744   6.08175   6.28629   6.73941   7.04496


              NET ATOMIC CHARGES AND DIPOLE CONTRIBUTIONS

  ATOM NO.   TYPE          CHARGE      No. of ELECS.   s-Pop       p-Pop       
    1          C          -0.067853        4.0679     1.06663     3.00123
    2          C          -0.067131        4.0671     1.10099     2.96614
    3          C           0.074656        3.9253     1.05634     2.86900
    4          C          -0.073399        4.0734     1.10032     2.97308
    5          C          -0.069385        4.0694     1.06696     3.00242
    6          C          -0.057761        4.0578     1.09454     2.96322
    7          H           0.210845        0.7892     0.78916
    8          H           0.203774        0.7962     0.79623
    9          H           0.213324        0.7867     0.78668
   10          N           0.673806        4.3262     1.44711     2.87909
   11          O          -0.453877        6.4539     1.94084     4.51304
   12          O          -0.456021        6.4560     1.94098     4.51504
   13          C          -0.290139        4.2901     1.02465     3.26548
   14          H           0.365937        0.6341     0.63406
   15          C          -0.406425        4.4064     1.04347     3.36295
   16          H           0.162706        0.8373     0.83729
   17          H           0.153054        0.8469     0.84695
   18          H           0.157980        0.8420     0.84202
   19          N           0.696957        4.3030     1.41948     2.88356
   20          O          -0.684970        6.6850     1.94486     4.74011
   21          O          -0.693315        6.6933     1.94523     4.74809
   22          O          -0.753005        6.7530     1.81064     4.94237
   23          H           0.376745        0.6233     0.62326
   24          N           0.677616        4.3224     1.44586     2.87653
   25          O          -0.455281        6.4553     1.94081     4.51448
   26          O          -0.448987        6.4490     1.94061     4.50838
   27          H           0.384114        0.6159     0.61589
   28          H           0.369286        0.6307     0.63071
   29          O          -0.743249        6.7432     1.80879     4.93446
 DIPOLE           X         Y         Z       TOTAL
 POINT-CHG.    -0.551    -4.774    11.918    12.850
 HYBRID        -0.476     0.383     0.723     0.947
 SUM           -1.027    -4.391    12.640    13.421


          ATOMIC ORBITAL ELECTRON POPULATIONS

     Atom    s        px        py        pz   
    1  C   1.06663   1.08177   0.88401   1.03544
    2  C   1.10099   0.97856   1.00882   0.97876
    3  C   1.05634   0.94690   0.95452   0.96758
    4  C   1.10032   0.93791   1.08635   0.94881
    5  C   1.06696   1.03942   0.98116   0.98184
    6  C   1.09454   0.94064   0.96991   1.05267
    7  H   0.78916
    8  H   0.79623
    9  H   0.78668
   10  N   1.44711   0.94845   0.96442   0.96622
   11  O   1.94084   1.59440   1.67955   1.23909
   12  O   1.94098   1.66015   1.06496   1.78994
   13  C   1.02465   1.37716   0.97303   0.91530
   14  H   0.63406
   15  C   1.04347   1.17974   0.99344   1.18977
   16  H   0.83729
   17  H   0.84695
   18  H   0.84202
   19  N   1.41948   0.96248   0.93881   0.98227
   20  O   1.94486   1.67507   1.72879   1.33625
   21  O   1.94523   1.75935   1.06088   1.92787
   22  O   1.81064   1.43182   1.87612   1.63443
   23  H   0.62326
   24  N   1.44586   0.93045   0.99985   0.94622
   25  O   1.94081   1.60651   1.73212   1.17584
   26  O   1.94061   1.37038   1.68338   1.45462
   27  H   0.61589
   28  H   0.63071
   29  O   1.80879   1.44267   1.99528   1.49650

          BONDING CONTRIBUTION OF EACH M.O.

  1.3487  1.3467  1.4140  1.8653  1.0191  0.9872  1.1434  1.1332  1.5684  1.2793
  1.2837  1.2568  1.1715  1.3828  1.3012  1.5794  1.2891  1.3014  1.2657  1.2233
  1.6583  1.1882  1.5720  1.6378  1.5208  1.6353  1.2902  1.8134  1.8224  1.4549
  1.7928  0.6643  1.8469  0.6489  1.8570  1.8093  1.8902  1.8835  1.8548  0.0043
  0.0000  0.8577  0.8586  0.3015  0.2983  0.6040  0.6681  0.8925  1.5781  1.3465
  0.7378  0.3764  1.2966 -2.1297 -2.1693 -2.1928 -2.1394 -2.2506 -2.1018 -2.3904
 -2.1169 -2.1346 -1.9541 -1.9584 -1.9695 -1.9779 -1.7355 -1.9822 -2.0240 -2.0207
 -1.9930 -2.0064 -1.9573 -1.9639 -1.9617 -1.7189 -1.9211 -1.9323 -1.9421 -1.9452
 -1.9734 -1.9710 -1.9498 -1.7070 -1.7251 -1.9060





            (VALENCIES)   BOND ORDERS

     1  C     (3.939)     6  C 1.401     2  C 1.383    24  N 0.898     4  C 0.090    26  O 0.069    25  O 0.069

     2  C     (3.942)     3  C 1.385     1  C 1.383     7  H 0.938     5  C 0.090     4  C 0.036    25  O 0.018
                         13  C 0.015    19  N 0.014    26  O 0.011

     3  C     (3.991)     2  C 1.385     4  C 1.383    13  C 1.079     6  C 0.092    20  O 0.014

     4  C     (3.946)     5  C 1.387     3  C 1.383     8  H 0.942     1  C 0.090     2  C 0.036    11  O 0.018
                         19  N 0.016    13  C 0.015    12  O 0.011

     5  C     (3.936)     6  C 1.397     4  C 1.387    10  N 0.899     2  C 0.090    12  O 0.068    11  O 0.068

     6  C     (3.945)     1  C 1.401     5  C 1.397     9  H 0.938     3  C 0.092    26  O 0.018    12  O 0.018
                         11  O 0.012    25  O 0.012

     7  H     (0.956)     2  C 0.938

     8  H     (0.958)     4  C 0.942

     9  H     (0.954)     6  C 0.938

    10  N     (3.782)    11  O 1.428    12  O 1.425     5  C 0.899

    11  O     (1.823)    10  N 1.428    12  O 0.288     5  C 0.068     4  C 0.018     6  C 0.012

    12  O     (1.820)    10  N 1.425    11  O 0.288     5  C 0.068     6  C 0.018     4  C 0.011

    13  C     (3.769)    19  N 1.345     3  C 1.079    15  C 1.001    20  O 0.144    21  O 0.141     4  C 0.015
                          2  C 0.015

    14  H     (0.866)    29  O 0.861

    15  C     (3.920)    13  C 1.001    18  H 0.963    17  H 0.963    16  H 0.961    21  O 0.012

    16  H     (0.974)    15  C 0.961

    17  H     (0.977)    15  C 0.963

    18  H     (0.975)    15  C 0.963

    19  N     (3.813)    13  C 1.345    20  O 1.210    21  O 1.200     4  C 0.016     2  C 0.014

    20  O     (1.546)    19  N 1.210    21  O 0.157    13  C 0.144     3  C 0.014

    21  O     (1.539)    19  N 1.200    20  O 0.157    13  C 0.141    15  C 0.012

    22  O     (1.715)    23  H 0.857    28  H 0.849

    23  H     (0.858)    22  O 0.857

    24  N     (3.784)    26  O 1.429    25  O 1.427     1  C 0.898

    25  O     (1.822)    24  N 1.427    26  O 0.288     1  C 0.069     2  C 0.018     6  C 0.012

    26  O     (1.825)    24  N 1.429    25  O 0.288     1  C 0.069     6  C 0.018     2  C 0.011

    27  H     (0.852)    29  O 0.850

    28  H     (0.864)    22  O 0.849    29  O 0.013

    29  O     (1.730)    14  H 0.861    27  H 0.850    28  H 0.013


 **********************
 *                    *
 * JOB ENDED NORMALLY *
 *                    *
 **********************



 TOTAL JOB TIME:             1.53 SECONDS

 == MOPAC DONE ==
