
                                 *****************
                                 * O   R   C   A *
                                 *****************

                                            #,                                       
                                            ###                                      
                                            ####                                     
                                            #####                                    
                                            ######                                   
                                           ########,                                 
                                     ,,################,,,,,                         
                               ,,#################################,,                 
                          ,,##########################################,,             
                       ,#########################################, ''#####,          
                    ,#############################################,,   '####,        
                  ,##################################################,,,,####,       
                ,###########''''           ''''###############################       
              ,#####''   ,,,,##########,,,,          '''####'''          '####       
            ,##' ,,,,###########################,,,                        '##       
           ' ,,###''''                  '''############,,,                           
         ,,##''                                '''############,,,,        ,,,,,,###''
      ,#''                                            '''#######################'''  
     '                                                          ''''####''''         
             ,#######,   #######,   ,#######,      ##                                
            ,#'     '#,  ##    ##  ,#'     '#,    #''#        ######   ,####,        
            ##       ##  ##   ,#'  ##            #'  '#       #        #'  '#        
            ##       ##  #######   ##           ,######,      #####,   #    #        
            '#,     ,#'  ##    ##  '#,     ,#' ,#      #,         ##   #,  ,#        
             '#######'   ##     ##  '#######'  #'      '#     #####' # '####'        



                  #######################################################
                  #                        -***-                        #
                  #          Department of theory and spectroscopy      #
                  #    Directorship and core code : Frank Neese         #
                  #        Max Planck Institute fuer Kohlenforschung    #
                  #                Kaiser Wilhelm Platz 1               #
                  #                 D-45470 Muelheim/Ruhr               #
                  #                      Germany                        #
                  #                                                     #
                  #                  All rights reserved                #
                  #                        -***-                        #
                  #######################################################


                         Program Version 5.0.4 -  RELEASE  -


 With contributions from (in alphabetic order):
   Daniel Aravena         : Magnetic Suceptibility
   Michael Atanasov       : Ab Initio Ligand Field Theory (pilot matlab implementation)
   Alexander A. Auer      : GIAO ZORA, VPT2 properties, NMR spectrum
   Ute Becker             : Parallelization
   Giovanni Bistoni       : ED, misc. LED, open-shell LED, HFLD
   Martin Brehm           : Molecular dynamics
   Dmytro Bykov           : SCF Hessian
   Vijay G. Chilkuri      : MRCI spin determinant printing, contributions to CSF-ICE
   Dipayan Datta          : RHF DLPNO-CCSD density
   Achintya Kumar Dutta   : EOM-CC, STEOM-CC
   Dmitry Ganyushin       : Spin-Orbit,Spin-Spin,Magnetic field MRCI
   Miquel Garcia          : C-PCM and meta-GGA Hessian, CC/C-PCM, Gaussian charge scheme
   Yang Guo               : DLPNO-NEVPT2, F12-NEVPT2, CIM, IAO-localization
   Andreas Hansen         : Spin unrestricted coupled pair/coupled cluster methods
   Benjamin Helmich-Paris : MC-RPA, TRAH-SCF, COSX integrals
   Lee Huntington         : MR-EOM, pCC
   Robert Izsak           : Overlap fitted RIJCOSX, COSX-SCS-MP3, EOM
   Marcus Kettner         : VPT2
   Christian Kollmar      : KDIIS, OOCD, Brueckner-CCSD(T), CCSD density, CASPT2, CASPT2-K
   Simone Kossmann        : Meta GGA functionals, TD-DFT gradient, OOMP2, MP2 Hessian
   Martin Krupicka        : Initial AUTO-CI
   Lucas Lang             : DCDCAS
   Marvin Lechner         : AUTO-CI (C++ implementation), FIC-MRCC
   Dagmar Lenk            : GEPOL surface, SMD
   Dimitrios Liakos       : Extrapolation schemes; Compound Job, initial MDCI parallelization
   Dimitrios Manganas     : Further ROCIS development; embedding schemes
   Dimitrios Pantazis     : SARC Basis sets
   Anastasios Papadopoulos: AUTO-CI, single reference methods and gradients
   Taras Petrenko         : DFT Hessian,TD-DFT gradient, ASA, ECA, R-Raman, ABS, FL, XAS/XES, NRVS
   Peter Pinski           : DLPNO-MP2, DLPNO-MP2 Gradient
   Christoph Reimann      : Effective Core Potentials
   Marius Retegan         : Local ZFS, SOC
   Christoph Riplinger    : Optimizer, TS searches, QM/MM, DLPNO-CCSD(T), (RO)-DLPNO pert. Triples
   Tobias Risthaus        : Range-separated hybrids, TD-DFT gradient, RPA, STAB
   Michael Roemelt        : Original ROCIS implementation
   Masaaki Saitow         : Open-shell DLPNO-CCSD energy and density
   Barbara Sandhoefer     : DKH picture change effects
   Avijit Sen             : IP-ROCIS
   Kantharuban Sivalingam : CASSCF convergence, NEVPT2, FIC-MRCI
   Bernardo de Souza      : ESD, SOC TD-DFT
   Georgi Stoychev        : AutoAux, RI-MP2 NMR, DLPNO-MP2 response
   Willem Van den Heuvel  : Paramagnetic NMR
   Boris Wezisla          : Elementary symmetry handling
   Frank Wennmohs         : Technical directorship


 We gratefully acknowledge several colleagues who have allowed us to
 interface, adapt or use parts of their codes:
   Stefan Grimme, W. Hujo, H. Kruse, P. Pracht,  : VdW corrections, initial TS optimization,
                  C. Bannwarth, S. Ehlert          DFT functionals, gCP, sTDA/sTD-DF
   Ed Valeev, F. Pavosevic, A. Kumar             : LibInt (2-el integral package), F12 methods
   Garnet Chan, S. Sharma, J. Yang, R. Olivares  : DMRG
   Ulf Ekstrom                                   : XCFun DFT Library
   Mihaly Kallay                                 : mrcc  (arbitrary order and MRCC methods)
   Jiri Pittner, Ondrej Demel                    : Mk-CCSD
   Frank Weinhold                                : gennbo (NPA and NBO analysis)
   Christopher J. Cramer and Donald G. Truhlar   : smd solvation model
   Lars Goerigk                                  : TD-DFT with DH, B97 family of functionals
   V. Asgeirsson, H. Jonsson                     : NEB implementation
   FAccTs GmbH                                   : IRC, NEB, NEB-TS, DLPNO-Multilevel, CI-OPT
                                                   MM, QMMM, 2- and 3-layer-ONIOM, Crystal-QMMM,
                                                   LR-CPCM, SF, NACMEs, symmetry and pop. for TD-DFT,
                                                   nearIR, NL-DFT gradient (VV10), updates on ESD,
                                                   ML-optimized integration grids
   S Lehtola, MJT Oliveira, MAL Marques          : LibXC Library
   Liviu Ungur et al                             : ANISO software


 Your calculation uses the libint2 library for the computation of 2-el integrals
 For citations please refer to: http://libint.valeyev.net

 Your ORCA version has been built with support for libXC version: 5.1.0
 For citations please refer to: https://tddft.org/programs/libxc/

 This ORCA versions uses:
   CBLAS   interface :  Fast vector & matrix operations
   LAPACKE interface :  Fast linear algebra routines
   SCALAPACK package :  Parallel linear algebra routines
   Shared memory     :  Shared parallel matrices
   BLAS/LAPACK       :  OpenBLAS 0.3.15  USE64BITINT DYNAMIC_ARCH NO_AFFINITY Prescott SINGLE_THREADED
        Core in use  :  Prescott
   Copyright (c) 2011-2014, The OpenBLAS Project


Your calculation utilizes the atom-pairwise dispersion correction
with the Becke-Johnson damping scheme (D3BJ)
Cite in your paper:
S.Grimme, S.Ehrlich, L.Goerigk, J Comput Chem, (2011), 32, 1456–1465 
S.Grimme, J.Antony, S.Ehrlich and H.Krieg, J.Chem.Phys., 132, (2010), 154104 
   

================================================================================

----- Orbital basis set information -----
Your calculation utilizes the basis: def2-TZVP
   F. Weigend and R. Ahlrichs, Phys. Chem. Chem. Phys. 7, 3297 (2005).

----- AuxJ basis set information -----
Your calculation utilizes the auxiliary basis: def2/J
   F. Weigend, Phys. Chem. Chem. Phys. 8, 1057 (2006).

================================================================================
                                        WARNINGS
                       Please study these warnings very carefully!
================================================================================

WARNING: Gradients needed for Numerical Frequencies
  ===> : Setting RunTyp to EnGrad

INFO   : the flag for use of the SHARK integral package has been found!

================================================================================
                                       INPUT FILE
================================================================================
NAME = /home/rudenko/mop_saddle_orca_4_serv/for_orca/CH2CHCH2NO2_picoline_from_lutidine/orca/freq_D/f_D.inp
|  1> !  NUMFREQ B3LYP def2-TZVP CPCM D3 
|  2> %pal nprocs 102 end
|  3> %cpcm epsilon 78.4 end 
|  4> *xyz 0 1 
|  5> C   -2.48633725892743 1.69002587080877 -0.67748787190856
|  6> H   -1.8631811918054 2.16582170639526 0.07116435482339
|  7> N   -3.41635756045292 0.31511940935326 1.1462010165812
|  8> O   -2.67712180194883 0.88007353755091 1.97029360595548
|  9> O   -4.3025993895755 -0.47674001411518 1.51003658604714
| 10> H   -3.11822618342506 1.72319491860408 -2.70075438232633
| 11> C   -3.19112600458668 0.47756255113667 -0.24888739612085
| 12> H   -4.09338374566056 0.21274767036736 -0.79071943859534
| 13> H   -2.36481154409477 -0.55132332741641 -0.51216583748822 M = 2
| 14> C   -2.51742065678281 2.17768487665433 -1.92003299566028
| 15> H   -1.93550391321301 3.04908572887237 -2.19086711836768
| 16> C   1.75444032431995 -1.22231056703475 -0.31494477218582
| 17> C   2.99278833380258 -0.76519704024006 0.11218943677732
| 18> C   2.99713795700987 0.20061075134304 1.12167036258788
| 19> C   1.80417217699381 0.66407076899587 1.65697218616233
| 20> C   0.61079800648171 0.1569778082389 1.17213993180341
| 21> N   0.61076432612564 -0.76609713034861 0.20636887073661
| 22> H   1.65820684966975 -1.96792134182654 -1.09391185012982
| 23> H   1.79482359249293 1.41028471144231 2.43893050183925
| 24> H   -0.35739941272364 0.47410180744842 1.53675145085784
| 25> C   4.26236009221553 -1.27985000391445 -0.49780525057417
| 26> H   4.95558411030856 -1.61148684183314 0.27732679404781
| 27> H   4.76005497581243 -0.49021478974268 -1.06565844863677
| 28> H   4.06570221539156 -2.11400487289531 -1.17072760046366
| 29> H   3.94048261639154 0.58819146944582 1.48718737158324
| 30> H   -1.89643811549293 -2.2984757891844 -0.45700805164909
| 31> O   -1.54177109361524 -1.47788945158923 -0.82359670928496
| 32> H   -0.44563770471111 -1.16404241651672 -0.24266474641127
| 33> *
| 34> 
| 35>                          ****END OF INPUT****
================================================================================

                     *******************************
                     * Energy+Gradient Calculation *
                     *******************************

---------------------------------
CARTESIAN COORDINATES (ANGSTROEM)
---------------------------------
  C     -2.486337    1.690026   -0.677488
  H     -1.863181    2.165822    0.071164
  N     -3.416358    0.315119    1.146201
  O     -2.677122    0.880074    1.970294
  O     -4.302599   -0.476740    1.510037
  H     -3.118226    1.723195   -2.700754
  C     -3.191126    0.477563   -0.248887
  H     -4.093384    0.212748   -0.790719
  H     -2.364812   -0.551323   -0.512166
  C     -2.517421    2.177685   -1.920033
  H     -1.935504    3.049086   -2.190867
  C      1.754440   -1.222311   -0.314945
  C      2.992788   -0.765197    0.112189
  C      2.997138    0.200611    1.121670
  C      1.804172    0.664071    1.656972
  C      0.610798    0.156978    1.172140
  N      0.610764   -0.766097    0.206369
  H      1.658207   -1.967921   -1.093912
  H      1.794824    1.410285    2.438931
  H     -0.357399    0.474102    1.536751
  C      4.262360   -1.279850   -0.497805
  H      4.955584   -1.611487    0.277327
  H      4.760055   -0.490215   -1.065658
  H      4.065702   -2.114005   -1.170728
  H      3.940483    0.588191    1.487187
  H     -1.896438   -2.298476   -0.457008
  O     -1.541771   -1.477889   -0.823597
  H     -0.445638   -1.164042   -0.242665

----------------------------
CARTESIAN COORDINATES (A.U.)
----------------------------
  NO LB      ZA    FRAG     MASS         X           Y           Z
   0 C     6.0000    0    12.011   -4.698496    3.193686   -1.280267
   1 H     1.0000    0     1.008   -3.520902    4.092810    0.134481
   2 N     7.0000    0    14.007   -6.455980    0.595489    2.166006
   3 O     8.0000    0    15.999   -5.059027    1.663098    3.723315
   4 O     8.0000    0    15.999   -8.130735   -0.900908    2.853556
   5 H     1.0000    0     1.008   -5.892594    3.256366   -5.103686
   6 C     6.0000    0    12.011   -6.030354    0.902462   -0.470329
   7 H     1.0000    0     1.008   -7.735374    0.402035   -1.494243
   8 H     1.0000    0     2.000   -4.468846   -1.041850   -0.967853
   9 C     6.0000    0    12.011   -4.757236    4.115228   -3.628337
  10 H     1.0000    0     1.008   -3.657572    5.761937   -4.140139
  11 C     6.0000    0    12.011    3.315412   -2.309832   -0.595159
  12 C     6.0000    0    12.011    5.655550   -1.446013    0.212007
  13 C     6.0000    0    12.011    5.663770    0.379099    2.119650
  14 C     6.0000    0    12.011    3.409391    1.254912    3.131224
  15 C     6.0000    0    12.011    1.154241    0.296645    2.215023
  16 N     7.0000    0    14.007    1.154177   -1.447714    0.389981
  17 H     1.0000    0     1.008    3.133557   -3.718832   -2.067194
  18 H     1.0000    0     1.008    3.391725    2.665052    4.608911
  19 H     1.0000    0     1.008   -0.675387    0.895923    2.904039
  20 C     6.0000    0    12.011    8.054693   -2.418566   -0.940716
  21 H     1.0000    0     1.008    9.364697   -3.045269    0.524072
  22 H     1.0000    0     1.008    8.995200   -0.926372   -2.013803
  23 H     1.0000    0     1.008    7.683064   -3.994890   -2.212355
  24 H     1.0000    0     1.008    7.446433    1.111521    2.810377
  25 H     1.0000    0     1.008   -3.583749   -4.343490   -0.863620
  26 O     8.0000    0    15.999   -2.913525   -2.792806   -1.556372
  27 H     1.0000    0     1.008   -0.842133   -2.199721   -0.458570

--------------------------------
INTERNAL COORDINATES (ANGSTROEM)
--------------------------------
 C      0   0   0     0.000000000000     0.00000000     0.00000000
 H      1   0   0     1.084059646764     0.00000000     0.00000000
 N      1   2   0     2.465998114558    87.17861379     0.00000000
 O      3   1   2     1.242888277151    90.72207036   359.55879456
 O      3   1   2     1.242916830617   147.20400621   167.77234403
 H      1   2   3     2.119903575829   145.44636699   172.45925977
 C      3   1   2     1.422458683873    31.93043291   200.62322433
 H      7   3   1     1.085254769470   109.27814928   223.76026527
 H      7   3   1     1.345628951975   101.64247138   115.28999648
 C      6   1   2     1.084921327291    32.29380221   358.81747199
 H     10   6   1     1.082274301513   117.06289119   179.80782178
 C      9   7   3     4.178200088527   135.96910472   274.51749707
 C     12   9   7     1.387408447947   147.30843847    10.49094382
 C     13  12   9     1.397088167969   116.93598044    19.07639626
 C     14  13  12     1.387267307542   120.46993523     0.06371177
 C     15  14  13     1.384322034991   118.93402387   359.81947574
 N     16  15  14     1.335956992488   120.41816946     0.15330380
 H     12   9   7     1.082583030372    89.36989095   206.73297887
 H     15  14  13     1.080916949349   121.14571134   179.93752416
 H     16  15  14     1.082088459072   123.09071934   180.33977106
 C     13  12   9     1.499591158075   121.15456697   199.69220051
 H     21  13  12     1.091499985399   110.67680661   231.10477003
 H     21  13  12     1.092557194461   110.42843550   112.28625114
 H     21  13  12     1.089639002121   111.17024594   352.01044067
 H     14  13  12     1.083383885469   119.59095372   180.04258465
 H      9   7   3     1.809684440620   153.01947046    51.10544526
 O     26   9   7     0.966197639079    42.56523686   177.56132284
 H     17  16  15     1.214897893186   119.57319016   182.74078836

---------------------------
INTERNAL COORDINATES (A.U.)
---------------------------
 C      0   0   0     0.000000000000     0.00000000     0.00000000
 H      1   0   0     2.048575845220     0.00000000     0.00000000
 N      1   2   0     4.660061083280    87.17861379     0.00000000
 O      3   1   2     2.348718458877    90.72207036   359.55879456
 O      3   1   2     2.348772417107   147.20400621   167.77234403
 H      1   2   3     4.006037188637   145.44636699   172.45925977
 C      3   1   2     2.688057349338    31.93043291   200.62322433
 H      7   3   1     2.050834299830   109.27814928   223.76026527
 H      7   3   1     2.542870197108   101.64247138   115.28999648
 C      6   1   2     2.050204185430    32.29380221   358.81747199
 H     10   6   1     2.045202031641   117.06289119   179.80782178
 C      9   7   3     7.895653900042   135.96910472   274.51749707
 C     12   9   7     2.621822002509   147.30843847    10.49094382
 C     13  12   9     2.640114022404   116.93598044    19.07639626
 C     14  13  12     2.621555285796   120.46993523     0.06371177
 C     15  14  13     2.615989527285   118.93402387   359.81947574
 N     16  15  14     2.524592842499   120.41816946     0.15330380
 H     12   9   7     2.045785444634    89.36989095   206.73297887
 H     15  14  13     2.042637007783   121.14571134   179.93752416
 H     16  15  14     2.044850840324   123.09071934   180.33977106
 C     13  12   9     2.833816601611   121.15456697   199.69220051
 H     21  13  12     2.062636047583   110.67680661   231.10477003
 H     21  13  12     2.064633883177   110.42843550   112.28625114
 H     21  13  12     2.059119298847   111.17024594   352.01044067
 H     14  13  12     2.047298841440   119.59095372   180.04258465
 H      9   7   3     3.419807981590   153.01947046    51.10544526
 O     26   9   7     1.825848929101    42.56523686   177.56132284
 H     17  16  15     2.295824298800   119.57319016   182.74078836

---------------------
BASIS SET INFORMATION
---------------------
There are 4 groups of distinct atoms

 Group   1 Type C   : 11s6p2d1f contracted to 5s3p2d1f pattern {62111/411/11/1}
 Group   2 Type H   : 5s1p contracted to 3s1p pattern {311/1}
 Group   3 Type N   : 11s6p2d1f contracted to 5s3p2d1f pattern {62111/411/11/1}
 Group   4 Type O   : 11s6p2d1f contracted to 5s3p2d1f pattern {62111/411/11/1}

Atom   0C    basis set group =>   1
Atom   1H    basis set group =>   2
Atom   2N    basis set group =>   3
Atom   3O    basis set group =>   4
Atom   4O    basis set group =>   4
Atom   5H    basis set group =>   2
Atom   6C    basis set group =>   1
Atom   7H    basis set group =>   2
Atom   8H    basis set group =>   2
Atom   9C    basis set group =>   1
Atom  10H    basis set group =>   2
Atom  11C    basis set group =>   1
Atom  12C    basis set group =>   1
Atom  13C    basis set group =>   1
Atom  14C    basis set group =>   1
Atom  15C    basis set group =>   1
Atom  16N    basis set group =>   3
Atom  17H    basis set group =>   2
Atom  18H    basis set group =>   2
Atom  19H    basis set group =>   2
Atom  20C    basis set group =>   1
Atom  21H    basis set group =>   2
Atom  22H    basis set group =>   2
Atom  23H    basis set group =>   2
Atom  24H    basis set group =>   2
Atom  25H    basis set group =>   2
Atom  26O    basis set group =>   4
Atom  27H    basis set group =>   2
---------------------------------
AUXILIARY/J BASIS SET INFORMATION
---------------------------------
There are 4 groups of distinct atoms

 Group   1 Type C   : 12s5p4d2f1g contracted to 6s4p3d1f1g pattern {711111/2111/211/2/1}
 Group   2 Type H   : 5s2p1d contracted to 3s1p1d pattern {311/2/1}
 Group   3 Type N   : 12s5p4d2f1g contracted to 6s4p3d1f1g pattern {711111/2111/211/2/1}
 Group   4 Type O   : 12s5p4d2f1g contracted to 6s4p3d1f1g pattern {711111/2111/211/2/1}

Atom   0C    basis set group =>   1
Atom   1H    basis set group =>   2
Atom   2N    basis set group =>   3
Atom   3O    basis set group =>   4
Atom   4O    basis set group =>   4
Atom   5H    basis set group =>   2
Atom   6C    basis set group =>   1
Atom   7H    basis set group =>   2
Atom   8H    basis set group =>   2
Atom   9C    basis set group =>   1
Atom  10H    basis set group =>   2
Atom  11C    basis set group =>   1
Atom  12C    basis set group =>   1
Atom  13C    basis set group =>   1
Atom  14C    basis set group =>   1
Atom  15C    basis set group =>   1
Atom  16N    basis set group =>   3
Atom  17H    basis set group =>   2
Atom  18H    basis set group =>   2
Atom  19H    basis set group =>   2
Atom  20C    basis set group =>   1
Atom  21H    basis set group =>   2
Atom  22H    basis set group =>   2
Atom  23H    basis set group =>   2
Atom  24H    basis set group =>   2
Atom  25H    basis set group =>   2
Atom  26O    basis set group =>   4
Atom  27H    basis set group =>   2


           ************************************************************
           *        Program running with 102 parallel MPI-processes   *
           *              working on a common directory               *
           ************************************************************
------------------------------------------------------------------------------
                           ORCA GTO INTEGRAL CALCULATION
                           -- RI-GTO INTEGRALS CHOSEN --
------------------------------------------------------------------------------
------------------------------------------------------------------------------
                   ___                                                        
                  /   \      - P O W E R E D   B Y -                         
                 /     \                                                     
                 |  |  |   _    _      __       _____    __    __             
                 |  |  |  | |  | |    /  \     |  _  \  |  |  /  |          
                  \  \/   | |  | |   /    \    | | | |  |  | /  /          
                 / \  \   | |__| |  /  /\  \   | |_| |  |  |/  /          
                |  |  |   |  __  | /  /__\  \  |    /   |      \           
                |  |  |   | |  | | |   __   |  |    \   |  |\   \          
                \     /   | |  | | |  |  |  |  | |\  \  |  | \   \       
                 \___/    |_|  |_| |__|  |__|  |_| \__\ |__|  \__/        
                                                                              
                      - O R C A' S   B I G   F R I E N D -                    
                                      &                                       
                       - I N T E G R A L  F E E D E R -                       
                                                                              
 v1 FN, 2020, v2 2021                                                         
------------------------------------------------------------------------------


Reading SHARK input file /home/rudenko/mop_saddle_orca_4_serv/for_orca/CH2CHCH2NO2_picoline_from_lutidine/orca/freq_D/f_D.SHARKINP.tmp ... ok
----------------------
SHARK INTEGRAL PACKAGE
----------------------

Number of atoms                             ...     28
Number of basis functions                   ...    518
Number of shells                            ...    210
Maximum angular momentum                    ...      3
Integral batch strategy                     ... SHARK/LIBINT Hybrid
RI-J (if used) integral strategy            ... SPLIT-RIJ (Revised 2003 algorithm where possible)
Printlevel                                  ...      1
Contraction scheme used                     ... SEGMENTED contraction
Coulomb Range Separation                    ... NOT USED
Exchange Range Separation                   ... NOT USED
Finite Nucleus Model                        ... NOT USED
Auxiliary Coulomb fitting basis             ... AVAILABLE
   # of basis functions in Aux-J            ...    840
   # of shells in Aux-J                     ...    280
   Maximum angular momentum in Aux-J        ...      4
Auxiliary J/K fitting basis                 ... NOT available
Auxiliary Correlation fitting basis         ... NOT available
Auxiliary 'external' fitting basis          ... NOT available
Integral threshold                          ...     2.500000e-11
Primitive cut-off                           ...     2.500000e-12
Primitive pair pre-selection threshold      ...     2.500000e-12

Calculating pre-screening integrals         ... done (  0.1 sec) Dimension = 210
Organizing shell pair data                  ... done (  0.4 sec)
Shell pair information
Total number of shell pairs                 ...     22155
Shell pairs after pre-screening             ...     16630
Total number of primitive shell pairs       ...     66780
Primitive shell pairs kept                  ...     34520
          la=0 lb=0:   4642 shell pairs
          la=1 lb=0:   4866 shell pairs
          la=1 lb=1:   1303 shell pairs
          la=2 lb=0:   2291 shell pairs
          la=2 lb=1:   1229 shell pairs
          la=2 lb=2:    304 shell pairs
          la=3 lb=0:   1076 shell pairs
          la=3 lb=1:    583 shell pairs
          la=3 lb=2:    270 shell pairs
          la=3 lb=3:     66 shell pairs

Calculating one electron integrals          ... done (  0.1 sec)
Calculating RI/J V-Matrix + Cholesky decomp.... done (  0.1 sec)
Calculating Nuclear repulsion               ... done (  0.0 sec) ENN=    868.757719935504 Eh

SHARK setup successfully completed in   1.0 seconds

Maximum memory used throughout the entire GTOINT-calculation: 28.7 MB


           ************************************************************
           *        Program running with 102 parallel MPI-processes   *
           *              working on a common directory               *
           ************************************************************
-------------------------------------------------------------------------------
                                 ORCA SCF
-------------------------------------------------------------------------------

------------
SCF SETTINGS
------------
Hamiltonian:
 Density Functional     Method          .... DFT(GTOs)
 Exchange Functional    Exchange        .... B88
   X-Alpha parameter    XAlpha          ....  0.666667
   Becke's b parameter  XBeta           ....  0.004200
 Correlation Functional Correlation     .... LYP
 LDA part of GGA corr.  LDAOpt          .... VWN-5
 Gradients option       PostSCFGGA      .... off
 Hybrid DFT is turned on
   Fraction HF Exchange ScalHFX         ....  0.200000
   Scaling of DF-GGA-X  ScalDFX         ....  0.720000
   Scaling of DF-GGA-C  ScalDFC         ....  0.810000
   Scaling of DF-LDA-C  ScalLDAC        ....  1.000000
   Perturbative correction              ....  0.000000
   Density functional embedding theory  .... OFF
   NL short-range parameter             ....  4.800000
 RI-approximation to the Coulomb term is turned on
   Number of AuxJ basis functions       .... 840
   RIJ-COSX (HFX calculated with COS-X)).... on


General Settings:
 Integral files         IntName         .... /home/rudenko/mop_saddle_orca_4_serv/for_orca/CH2CHCH2NO2_picoline_from_lutidine/orca/freq_D/f_D
 Hartree-Fock type      HFTyp           .... RHF
 Total Charge           Charge          ....    0
 Multiplicity           Mult            ....    1
 Number of Electrons    NEL             ....  106
 Basis Dimension        Dim             ....  518
 Nuclear Repulsion      ENuc            ....    868.7577199355 Eh

Convergence Acceleration:
 DIIS                   CNVDIIS         .... on
   Start iteration      DIISMaxIt       ....    12
   Startup error        DIISStart       ....  0.200000
   # of expansion vecs  DIISMaxEq       ....     5
   Bias factor          DIISBfac        ....   1.050
   Max. coefficient     DIISMaxC        ....  10.000
 Trust-Rad. Augm. Hess. CNVTRAH         .... auto
   Auto Start mean grad. ratio tolernc. ....  1.125000
   Auto Start start iteration           ....    20
   Auto Start num. interpolation iter.  ....    10
   Max. Number of Micro iterations      ....    16
   Max. Number of Macro iterations      .... Maxiter - #DIIS iter
   Number of Davidson start vectors     ....     2
   Converg. threshold I  (grad. norm)   ....   1.000e-05
   Converg. threshold II (energy diff.) ....   1.000e-08
   Grad. Scal. Fac. for Micro threshold ....   0.100
   Minimum threshold for Micro iter.    ....   0.010
   NR start threshold (gradient norm)   ....   0.001
   Initial trust radius                 ....   0.400
   Minimum AH scaling param. (alpha)    ....   1.000
   Maximum AH scaling param. (alpha)    .... 1000.000
   Orbital update algorithm             .... Taylor
   White noise on init. David. guess    .... on
   Maximum white noise                  ....   0.010
   Quad. conv. algorithm                .... NR
 SOSCF                  CNVSOSCF        .... on
   Start iteration      SOSCFMaxIt      ....   150
   Startup grad/error   SOSCFStart      ....  0.003300
 Level Shifting         CNVShift        .... on
   Level shift para.    LevelShift      ....    0.2500
   Turn off err/grad.   ShiftErr        ....    0.0010
 Zerner damping         CNVZerner       .... off
 Static damping         CNVDamp         .... on
   Fraction old density DampFac         ....    0.7000
   Max. Damping (<1)    DampMax         ....    0.9800
   Min. Damping (>=0)   DampMin         ....    0.0000
   Turn off err/grad.   DampErr         ....    0.1000
 Fernandez-Rico         CNVRico         .... off

SCF Procedure:
 Maximum # iterations   MaxIter         ....   125
 SCF integral mode      SCFMode         .... Direct
   Integral package                     .... SHARK and LIBINT hybrid scheme
 Reset frequency        DirectResetFreq ....    20
 Integral Threshold     Thresh          ....  2.500e-11 Eh
 Primitive CutOff       TCut            ....  2.500e-12 Eh

Convergence Tolerance:
 Convergence Check Mode ConvCheckMode   .... Total+1el-Energy
 Convergence forced     ConvForced      .... 0
 Energy Change          TolE            ....  1.000e-08 Eh
 1-El. energy change                    ....  1.000e-05 Eh
 Orbital Gradient       TolG            ....  1.000e-05
 Orbital Rotation angle TolX            ....  1.000e-05
 DIIS Error             TolErr          ....  5.000e-07


Diagonalization of the overlap matrix:
Smallest eigenvalue                        ... 4.300e-05
Time for diagonalization                   ...    0.086 sec
Threshold for overlap eigenvalues          ... 1.000e-08
Number of eigenvalues below threshold      ... 0
Time for construction of square roots      ...    0.186 sec
Total time needed                          ...    0.275 sec

Time for model grid setup =    0.204 sec

------------------------------
INITIAL GUESS: MODEL POTENTIAL
------------------------------
Loading Hartree-Fock densities                     ... done
Calculating cut-offs                               ... done
Initializing the effective Hamiltonian             ... done
Setting up the integral package (SHARK)            ... done
Starting the Coulomb interaction                   ... done (   0.1 sec)
Reading the grid                                   ... done
Mapping shells                                     ... done
Starting the XC term evaluation                    ... done (   0.1 sec)
  promolecular density results
     # of electrons  =    105.989151422
     EX              =    -88.149172752
     EC              =     -3.599358921
     EX+EC           =    -91.748531672
Transforming the Hamiltonian                       ... done (   0.2 sec)
Diagonalizing the Hamiltonian                      ... done (   0.1 sec)
Back transforming the eigenvectors                 ... done (   0.0 sec)
Now organizing SCF variables                       ... done
                      ------------------
                      INITIAL GUESS DONE (   0.7 sec)
                      ------------------
-------------------
DFT GRID GENERATION
-------------------

General Integration Accuracy     IntAcc      ... 4.388
Radial Grid Type                 RadialGrid  ... OptM3 with GC (2021)
Angular Grid (max. ang.)         AngularGrid ... 4 (Lebedev-302)
Angular grid pruning method      GridPruning ... 4 (adaptive)
Weight generation scheme         WeightScheme... Becke
Basis function cutoff            BFCut       ... 1.0000e-11
Integration weight cutoff        WCut        ... 1.0000e-14
Angular grids for H and He will be reduced by one unit
Partially contracted basis set               ... off
Rotationally invariant grid construction     ... off

Total number of grid points                  ...   129237
Total number of batches                      ...     2033
Average number of points per batch           ...       63
Average number of grid points per atom       ...     4616
Time for grid setup =    1.010 sec

--------------------
COSX GRID GENERATION
--------------------

GRIDX 1
-------
General Integration Accuracy     IntAcc      ... 3.816
Radial Grid Type                 RadialGrid  ... OptM3 with GC (2021)
Angular Grid (max. ang.)         AngularGrid ... 1 (Lebedev-50)
Angular grid pruning method      GridPruning ... 4 (adaptive)
Weight generation scheme         WeightScheme... Becke
Basis function cutoff            BFCut       ... 1.0000e-11
Integration weight cutoff        WCut        ... 1.0000e-14
Angular grids for H and He will be reduced by one unit
Partially contracted basis set               ... on
Rotationally invariant grid construction     ... off

Total number of grid points                  ...    16435
Total number of batches                      ...      268
Average number of points per batch           ...       61
Average number of grid points per atom       ...      587
UseSFitting                                  ... on

GRIDX 2
-------
General Integration Accuracy     IntAcc      ... 4.020
Radial Grid Type                 RadialGrid  ... OptM3 with GC (2021)
Angular Grid (max. ang.)         AngularGrid ... 2 (Lebedev-110)
Angular grid pruning method      GridPruning ... 4 (adaptive)
Weight generation scheme         WeightScheme... Becke
Basis function cutoff            BFCut       ... 1.0000e-11
Integration weight cutoff        WCut        ... 1.0000e-14
Angular grids for H and He will be reduced by one unit
Partially contracted basis set               ... on
Rotationally invariant grid construction     ... off

Total number of grid points                  ...    35560
Total number of batches                      ...      568
Average number of points per batch           ...       62
Average number of grid points per atom       ...     1270
UseSFitting                                  ... on

GRIDX 3
-------
General Integration Accuracy     IntAcc      ... 4.338
Radial Grid Type                 RadialGrid  ... OptM3 with GC (2021)
Angular Grid (max. ang.)         AngularGrid ... 3 (Lebedev-194)
Angular grid pruning method      GridPruning ... 4 (adaptive)
Weight generation scheme         WeightScheme... Becke
Basis function cutoff            BFCut       ... 1.0000e-11
Integration weight cutoff        WCut        ... 1.0000e-14
Angular grids for H and He will be reduced by one unit
Partially contracted basis set               ... on
Rotationally invariant grid construction     ... off

Total number of grid points                  ...    77860
Total number of batches                      ...     1231
Average number of points per batch           ...       63
Average number of grid points per atom       ...     2781
UseSFitting                                  ... on

Time for X-Grid setup             =    1.529 sec


--------------------
CPCM SOLVATION MODEL
--------------------
CPCM parameters:
  Epsilon                                         ...      78.4000
  Refrac                                          ...       1.3300
  Rsolv                                           ...       1.3000
  Surface type                                    ... GAUSSIAN VDW
  Epsilon function type                           ...         CPCM
Radii:
 Radius for C  used is    3.8550 Bohr (=   2.0400 Ang.)
 Radius for H  used is    2.4944 Bohr (=   1.3200 Ang.)
 Radius for N  used is    3.5149 Bohr (=   1.8600 Ang.)
 Radius for O  used is    3.4469 Bohr (=   1.8240 Ang.)
Calculating surface                               ...        done! (  0.0s)
GEPOL surface points                              ...         1608
GEPOL Volume                                      ...    1708.0752
GEPOL Surface-area                                ...     966.7249
Calculating surface distance matrix               ...        done! (  0.1s)
Performing Cholesky decomposition & store         ...        done! (  0.5s)
Overall time for CPCM initialization              ...                 0.6s
--------------
SCF ITERATIONS
--------------
ITER       Energy         Delta-E        Max-DP      RMS-DP      [F,P]     Damp
               ***  Starting incremental Fock matrix formation  ***
  0   -685.8673663633   0.000000000000 0.16210768  0.00098743  0.3338698 0.7000
  1   -686.0878858974  -0.220519534124 0.15009020  0.00076776  0.1272923 0.7000
                               ***Turning on DIIS***
  2   -686.1691340844  -0.081248186999 0.19712713  0.00117363  0.0377828 0.0000
  3   -686.3051492247  -0.136015140350 0.13135130  0.00058777  0.0679930 0.0000
  4   -686.3309071701  -0.025757945384 0.03669466  0.00018540  0.0165147 0.0000
  5   -686.3329953360  -0.002088165925 0.01297961  0.00007373  0.0052567 0.0000
                      *** Initiating the SOSCF procedure ***
                           *** Shutting down DIIS ***
                      *** Re-Reading the Fockian *** 
                      *** Removing any level shift *** 
ITER      Energy       Delta-E        Grad      Rot      Max-DP    RMS-DP
  6   -686.33312117  -0.0001258367  0.000477  0.000477  0.003534  0.000028
               *** Restarting incremental Fock matrix formation ***
  7   -686.33315074  -0.0000295689  0.000114  0.000369  0.001846  0.000019
  8   -686.33315031   0.0000004330  0.000293  0.000889  0.000632  0.000007
  9   -686.33315314  -0.0000028270  0.000051  0.000170  0.000516  0.000004
 10   -686.33315305   0.0000000856  0.000097  0.000139  0.000089  0.000001
 11   -686.33315321  -0.0000001637  0.000026  0.000067  0.000294  0.000001
 12   -686.33315320   0.0000000118  0.000030  0.000035  0.000146  0.000001
 13   -686.33315323  -0.0000000302  0.000003  0.000009  0.000064  0.000000
 14   -686.33315323   0.0000000046  0.000004  0.000005  0.000023  0.000000
                  ***Gradient check signals convergence***
              ***Rediagonalizing the Fockian in SOSCF/NRSCF***

               *****************************************************
               *                     SUCCESS                       *
               *           SCF CONVERGED AFTER  15 CYCLES          *
               *****************************************************

Old exchange energy                            =    -17.875121461 Eh
New exchange energy                            =    -17.875099076 Eh
Exchange energy change after final integration =      0.000022385 Eh
Total energy after final integration           =   -686.333130861 Eh
Final COS-X integration done in                =     1.655 sec

----------------
TOTAL SCF ENERGY
----------------

Total Energy       :         -686.33313086 Eh          -18676.07396 eV

Components:
Nuclear Repulsion  :          868.75771994 Eh           23640.09940 eV
Electronic Energy  :        -1555.09085080 Eh          -42316.17336 eV
One Electron Energy:        -2657.80926851 Eh          -72322.66701 eV
Two Electron Energy:         1102.71841771 Eh           30006.49365 eV
Max COSX asymmetry :            0.00000266 Eh               0.00007 eV
CPCM Dielectric    :           -0.03387577 Eh              -0.92181 eV

Virial components:
Potential Energy   :        -1369.75276348 Eh          -37272.86761 eV
Kinetic Energy     :          683.41963262 Eh           18596.79365 eV
Virial Ratio       :            2.00426312


DFT components:
N(Alpha)           :       53.000078028491 electrons
N(Beta)            :       53.000078028491 electrons
N(Total)           :      106.000156056983 electrons
E(X)               :      -71.160522992943 Eh       
E(C)               :       -4.251145425241 Eh       
E(XC)              :      -75.411668418184 Eh       
DFET-embed. en.    :        0.000000000000 Eh       
CPCM Solvation Model Properties:
Surface-charge          :           -0.02867276
Charge-correction       :           -0.00029367 Eh              -0.00799 eV
Free-energy (cav+disp)  :  This term is not implemented in the current solvation scheme

---------------
SCF CONVERGENCE
---------------

  Last Energy change         ...   -1.8395e-08  Tolerance :   1.0000e-08
  Last MAX-Density change    ...    1.9984e-15  Tolerance :   1.0000e-07
  Last RMS-Density change    ...    1.4284e-17  Tolerance :   5.0000e-09
  Last Orbital Gradient      ...    8.4617e-07  Tolerance :   1.0000e-05
  Last Orbital Rotation      ...    3.3220e-06  Tolerance :   1.0000e-05

             **** THE GBW FILE WAS UPDATED (/home/rudenko/mop_saddle_orca_4_serv/for_orca/CH2CHCH2NO2_picoline_from_lutidine/orca/freq_D/f_D.gbw) ****
             **** DENSITY /home/rudenko/mop_saddle_orca_4_serv/for_orca/CH2CHCH2NO2_picoline_from_lutidine/orca/freq_D/f_D.scfp WAS UPDATED ****
             **** ENERGY FILE WAS UPDATED (/home/rudenko/mop_saddle_orca_4_serv/for_orca/CH2CHCH2NO2_picoline_from_lutidine/orca/freq_D/f_D.en.tmp) ****
             **** THE GBW FILE WAS UPDATED (/home/rudenko/mop_saddle_orca_4_serv/for_orca/CH2CHCH2NO2_picoline_from_lutidine/orca/freq_D/f_D.gbw) ****
             **** DENSITY /home/rudenko/mop_saddle_orca_4_serv/for_orca/CH2CHCH2NO2_picoline_from_lutidine/orca/freq_D/f_D.scfp WAS UPDATED ****
----------------
ORBITAL ENERGIES
----------------

  NO   OCC          E(Eh)            E(eV) 
   0   2.0000     -19.136505      -520.7308 
   1   2.0000     -19.134185      -520.6676 
   2   2.0000     -19.104463      -519.8589 
   3   2.0000     -14.526745      -395.2928 
   4   2.0000     -14.369878      -391.0242 
   5   2.0000     -10.230032      -278.3733 
   6   2.0000     -10.229626      -278.3623 
   7   2.0000     -10.207319      -277.7553 
   8   2.0000     -10.203891      -277.6620 
   9   2.0000     -10.196736      -277.4673 
  10   2.0000     -10.186310      -277.1836 
  11   2.0000     -10.175937      -276.9013 
  12   2.0000     -10.170460      -276.7523 
  13   2.0000     -10.155866      -276.3552 
  14   2.0000      -1.201054       -32.6823 
  15   2.0000      -1.024120       -27.8677 
  16   2.0000      -0.994823       -27.0705 
  17   2.0000      -0.967449       -26.3256 
  18   2.0000      -0.837300       -22.7841 
  19   2.0000      -0.822305       -22.3760 
  20   2.0000      -0.798810       -21.7367 
  21   2.0000      -0.745847       -20.2955 
  22   2.0000      -0.716582       -19.4992 
  23   2.0000      -0.656517       -17.8647 
  24   2.0000      -0.633576       -17.2405 
  25   2.0000      -0.608776       -16.5656 
  26   2.0000      -0.564179       -15.3521 
  27   2.0000      -0.557097       -15.1594 
  28   2.0000      -0.527765       -14.3612 
  29   2.0000      -0.525331       -14.2950 
  30   2.0000      -0.517069       -14.0702 
  31   2.0000      -0.504959       -13.7406 
  32   2.0000      -0.500324       -13.6145 
  33   2.0000      -0.470019       -12.7899 
  34   2.0000      -0.463347       -12.6083 
  35   2.0000      -0.445648       -12.1267 
  36   2.0000      -0.439083       -11.9481 
  37   2.0000      -0.428633       -11.6637 
  38   2.0000      -0.422115       -11.4863 
  39   2.0000      -0.410458       -11.1691 
  40   2.0000      -0.406155       -11.0520 
  41   2.0000      -0.395262       -10.7556 
  42   2.0000      -0.375756       -10.2248 
  43   2.0000      -0.362974        -9.8770 
  44   2.0000      -0.353616        -9.6224 
  45   2.0000      -0.311906        -8.4874 
  46   2.0000      -0.306345        -8.3361 
  47   2.0000      -0.303944        -8.2707 
  48   2.0000      -0.300727        -8.1832 
  49   2.0000      -0.293613        -7.9896 
  50   2.0000      -0.279616        -7.6087 
  51   2.0000      -0.278019        -7.5653 
  52   2.0000      -0.219153        -5.9634 
  53   0.0000      -0.062084        -1.6894 
  54   0.0000      -0.055710        -1.5159 
  55   0.0000      -0.033139        -0.9017 
  56   0.0000       0.009747         0.2652 
  57   0.0000       0.045807         1.2465 
  58   0.0000       0.057724         1.5707 
  59   0.0000       0.069888         1.9017 
  60   0.0000       0.077438         2.1072 
  61   0.0000       0.084638         2.3031 
  62   0.0000       0.091001         2.4763 
  63   0.0000       0.095808         2.6071 
  64   0.0000       0.103333         2.8118 
  65   0.0000       0.112174         3.0524 
  66   0.0000       0.117073         3.1857 
  67   0.0000       0.134398         3.6572 
  68   0.0000       0.136755         3.7213 
  69   0.0000       0.140716         3.8291 
  70   0.0000       0.145566         3.9611 
  71   0.0000       0.153341         4.1726 
  72   0.0000       0.163681         4.4540 
  73   0.0000       0.171049         4.6545 
  74   0.0000       0.174840         4.7576 
  75   0.0000       0.180512         4.9120 
  76   0.0000       0.189161         5.1473 
  77   0.0000       0.199815         5.4372 
  78   0.0000       0.206357         5.6153 
  79   0.0000       0.216519         5.8918 
  80   0.0000       0.224657         6.1132 
  81   0.0000       0.225386         6.1331 
  82   0.0000       0.235255         6.4016 
  83   0.0000       0.239792         6.5251 
  84   0.0000       0.247914         6.7461 
  85   0.0000       0.251534         6.8446 
  86   0.0000       0.264883         7.2078 
  87   0.0000       0.272485         7.4147 
  88   0.0000       0.275573         7.4987 
  89   0.0000       0.285441         7.7673 
  90   0.0000       0.286323         7.7912 
  91   0.0000       0.288807         7.8588 
  92   0.0000       0.299046         8.1374 
  93   0.0000       0.307705         8.3731 
  94   0.0000       0.311129         8.4663 
  95   0.0000       0.325820         8.8660 
  96   0.0000       0.328430         8.9370 
  97   0.0000       0.333840         9.0842 
  98   0.0000       0.340618         9.2687 
  99   0.0000       0.345169         9.3925 
 100   0.0000       0.350387         9.5345 
 101   0.0000       0.353347         9.6150 
 102   0.0000       0.376347        10.2409 
 103   0.0000       0.381538        10.3822 
 104   0.0000       0.393726        10.7138 
 105   0.0000       0.399637        10.8747 
 106   0.0000       0.413742        11.2585 
 107   0.0000       0.415271        11.3001 
 108   0.0000       0.417858        11.3705 
 109   0.0000       0.425336        11.5740 
 110   0.0000       0.431256        11.7351 
 111   0.0000       0.436645        11.8817 
 112   0.0000       0.445532        12.1235 
 113   0.0000       0.451282        12.2800 
 114   0.0000       0.455564        12.3965 
 115   0.0000       0.458242        12.4694 
 116   0.0000       0.462497        12.5852 
 117   0.0000       0.467813        12.7298 
 118   0.0000       0.470431        12.8011 
 119   0.0000       0.479552        13.0493 
 120   0.0000       0.482761        13.1366 
 121   0.0000       0.486548        13.2396 
 122   0.0000       0.495064        13.4714 
 123   0.0000       0.502697        13.6791 
 124   0.0000       0.511944        13.9307 
 125   0.0000       0.518183        14.1005 
 126   0.0000       0.523234        14.2379 
 127   0.0000       0.532676        14.4949 
 128   0.0000       0.541332        14.7304 
 129   0.0000       0.548674        14.9302 
 130   0.0000       0.559734        15.2311 
 131   0.0000       0.564239        15.3537 
 132   0.0000       0.578839        15.7510 
 133   0.0000       0.585841        15.9415 
 134   0.0000       0.592907        16.1338 
 135   0.0000       0.602953        16.4072 
 136   0.0000       0.607984        16.5441 
 137   0.0000       0.609057        16.5733 
 138   0.0000       0.621535        16.9128 
 139   0.0000       0.629174        17.1207 
 140   0.0000       0.634130        17.2556 
 141   0.0000       0.654595        17.8124 
 142   0.0000       0.658483        17.9182 
 143   0.0000       0.671835        18.2816 
 144   0.0000       0.676549        18.4098 
 145   0.0000       0.679312        18.4850 
 146   0.0000       0.687578        18.7099 
 147   0.0000       0.699348        19.0302 
 148   0.0000       0.710272        19.3275 
 149   0.0000       0.715969        19.4825 
 150   0.0000       0.733634        19.9632 
 151   0.0000       0.755717        20.5641 
 152   0.0000       0.763240        20.7688 
 153   0.0000       0.776802        21.1379 
 154   0.0000       0.784581        21.3495 
 155   0.0000       0.806246        21.9391 
 156   0.0000       0.819855        22.3094 
 157   0.0000       0.828749        22.5514 
 158   0.0000       0.838170        22.8078 
 159   0.0000       0.842596        22.9282 
 160   0.0000       0.861337        23.4382 
 161   0.0000       0.876140        23.8410 
 162   0.0000       0.893754        24.3203 
 163   0.0000       0.903584        24.5878 
 164   0.0000       0.908007        24.7081 
 165   0.0000       0.922958        25.1150 
 166   0.0000       0.938765        25.5451 
 167   0.0000       0.960365        26.1329 
 168   0.0000       0.965289        26.2669 
 169   0.0000       0.968933        26.3660 
 170   0.0000       0.987500        26.8712 
 171   0.0000       1.006911        27.3994 
 172   0.0000       1.021173        27.7875 
 173   0.0000       1.029131        28.0041 
 174   0.0000       1.038153        28.2496 
 175   0.0000       1.061804        28.8932 
 176   0.0000       1.072803        29.1924 
 177   0.0000       1.075552        29.2673 
 178   0.0000       1.093035        29.7430 
 179   0.0000       1.107363        30.1329 
 180   0.0000       1.112539        30.2737 
 181   0.0000       1.131533        30.7906 
 182   0.0000       1.147818        31.2337 
 183   0.0000       1.163488        31.6601 
 184   0.0000       1.175964        31.9996 
 185   0.0000       1.193841        32.4861 
 186   0.0000       1.203462        32.7479 
 187   0.0000       1.214995        33.0617 
 188   0.0000       1.218889        33.1677 
 189   0.0000       1.237591        33.6766 
 190   0.0000       1.246399        33.9162 
 191   0.0000       1.262300        34.3489 
 192   0.0000       1.268353        34.5137 
 193   0.0000       1.273603        34.6565 
 194   0.0000       1.285617        34.9834 
 195   0.0000       1.301400        35.4129 
 196   0.0000       1.308683        35.6111 
 197   0.0000       1.324251        36.0347 
 198   0.0000       1.329946        36.1897 
 199   0.0000       1.351959        36.7887 
 200   0.0000       1.383965        37.6596 
 201   0.0000       1.396764        38.0079 
 202   0.0000       1.410672        38.3863 
 203   0.0000       1.416547        38.5462 
 204   0.0000       1.432065        38.9685 
 205   0.0000       1.437804        39.1246 
 206   0.0000       1.456675        39.6381 
 207   0.0000       1.475024        40.1374 
 208   0.0000       1.480848        40.2959 
 209   0.0000       1.490532        40.5594 
 210   0.0000       1.494685        40.6724 
 211   0.0000       1.510736        41.1092 
 212   0.0000       1.523932        41.4683 
 213   0.0000       1.533181        41.7200 
 214   0.0000       1.537013        41.8242 
 215   0.0000       1.544685        42.0330 
 216   0.0000       1.551455        42.2172 
 217   0.0000       1.567242        42.6468 
 218   0.0000       1.572363        42.7862 
 219   0.0000       1.580244        43.0006 
 220   0.0000       1.587564        43.1998 
 221   0.0000       1.592864        43.3440 
 222   0.0000       1.611358        43.8473 
 223   0.0000       1.613157        43.8962 
 224   0.0000       1.635169        44.4952 
 225   0.0000       1.639500        44.6131 
 226   0.0000       1.648387        44.8549 
 227   0.0000       1.653883        45.0044 
 228   0.0000       1.665655        45.3248 
 229   0.0000       1.675570        45.5946 
 230   0.0000       1.677970        45.6599 
 231   0.0000       1.689448        45.9722 
 232   0.0000       1.706580        46.4384 
 233   0.0000       1.722749        46.8784 
 234   0.0000       1.735511        47.2257 
 235   0.0000       1.742313        47.4108 
 236   0.0000       1.745566        47.4993 
 237   0.0000       1.758195        47.8429 
 238   0.0000       1.776775        48.3485 
 239   0.0000       1.778807        48.4038 
 240   0.0000       1.789877        48.7050 
 241   0.0000       1.800508        48.9943 
 242   0.0000       1.812662        49.3250 
 243   0.0000       1.841858        50.1195 
 244   0.0000       1.850788        50.3625 
 245   0.0000       1.855099        50.4798 
 246   0.0000       1.865475        50.7622 
 247   0.0000       1.904475        51.8234 
 248   0.0000       1.930007        52.5182 
 249   0.0000       1.946898        52.9778 
 250   0.0000       1.957710        53.2720 
 251   0.0000       1.967055        53.5263 
 252   0.0000       1.971733        53.6536 
 253   0.0000       1.980886        53.9027 
 254   0.0000       1.986201        54.0473 
 255   0.0000       1.995006        54.2869 
 256   0.0000       2.023569        55.0641 
 257   0.0000       2.036109        55.4054 
 258   0.0000       2.058976        56.0276 
 259   0.0000       2.067053        56.2474 
 260   0.0000       2.082799        56.6758 
 261   0.0000       2.092067        56.9280 
 262   0.0000       2.110731        57.4359 
 263   0.0000       2.122785        57.7639 
 264   0.0000       2.134004        58.0692 
 265   0.0000       2.145195        58.3737 
 266   0.0000       2.151851        58.5549 
 267   0.0000       2.161149        58.8078 
 268   0.0000       2.172982        59.1298 
 269   0.0000       2.204289        59.9818 
 270   0.0000       2.210692        60.1560 
 271   0.0000       2.232941        60.7614 
 272   0.0000       2.239952        60.9522 
 273   0.0000       2.248938        61.1967 
 274   0.0000       2.263166        61.5839 
 275   0.0000       2.281598        62.0854 
 276   0.0000       2.296645        62.4949 
 277   0.0000       2.307416        62.7880 
 278   0.0000       2.327953        63.3468 
 279   0.0000       2.342288        63.7369 
 280   0.0000       2.344160        63.7878 
 281   0.0000       2.357708        64.1565 
 282   0.0000       2.386137        64.9301 
 283   0.0000       2.390397        65.0460 
 284   0.0000       2.396240        65.2050 
 285   0.0000       2.407855        65.5211 
 286   0.0000       2.418332        65.8062 
 287   0.0000       2.437835        66.3369 
 288   0.0000       2.450719        66.6875 
 289   0.0000       2.454150        66.7808 
 290   0.0000       2.469607        67.2014 
 291   0.0000       2.495150        67.8965 
 292   0.0000       2.505432        68.1763 
 293   0.0000       2.526690        68.7547 
 294   0.0000       2.533253        68.9333 
 295   0.0000       2.541143        69.1480 
 296   0.0000       2.560301        69.6693 
 297   0.0000       2.569793        69.9276 
 298   0.0000       2.578872        70.1747 
 299   0.0000       2.584211        70.3200 
 300   0.0000       2.601435        70.7886 
 301   0.0000       2.622928        71.3735 
 302   0.0000       2.631512        71.6071 
 303   0.0000       2.636701        71.7483 
 304   0.0000       2.645015        71.9745 
 305   0.0000       2.661291        72.4174 
 306   0.0000       2.670900        72.6789 
 307   0.0000       2.681838        72.9765 
 308   0.0000       2.694849        73.3306 
 309   0.0000       2.710216        73.7487 
 310   0.0000       2.714432        73.8634 
 311   0.0000       2.719332        73.9968 
 312   0.0000       2.721589        74.0582 
 313   0.0000       2.737283        74.4852 
 314   0.0000       2.740598        74.5755 
 315   0.0000       2.746048        74.7238 
 316   0.0000       2.759761        75.0969 
 317   0.0000       2.780823        75.6700 
 318   0.0000       2.794799        76.0504 
 319   0.0000       2.804357        76.3104 
 320   0.0000       2.809777        76.4579 
 321   0.0000       2.834522        77.1313 
 322   0.0000       2.849798        77.5470 
 323   0.0000       2.852930        77.6322 
 324   0.0000       2.861447        77.8639 
 325   0.0000       2.883623        78.4674 
 326   0.0000       2.894283        78.7575 
 327   0.0000       2.900916        78.9379 
 328   0.0000       2.912545        79.2544 
 329   0.0000       2.915271        79.3286 
 330   0.0000       2.927832        79.6704 
 331   0.0000       2.933404        79.8220 
 332   0.0000       2.960895        80.5701 
 333   0.0000       2.976202        80.9866 
 334   0.0000       2.979078        81.0648 
 335   0.0000       2.989767        81.3557 
 336   0.0000       2.997592        81.5686 
 337   0.0000       3.016937        82.0950 
 338   0.0000       3.026789        82.3631 
 339   0.0000       3.040289        82.7305 
 340   0.0000       3.047771        82.9341 
 341   0.0000       3.050480        83.0078 
 342   0.0000       3.056450        83.1702 
 343   0.0000       3.066157        83.4344 
 344   0.0000       3.089532        84.0704 
 345   0.0000       3.095406        84.2303 
 346   0.0000       3.106681        84.5371 
 347   0.0000       3.112010        84.6821 
 348   0.0000       3.113977        84.7356 
 349   0.0000       3.123112        84.9842 
 350   0.0000       3.142146        85.5022 
 351   0.0000       3.150020        85.7164 
 352   0.0000       3.170048        86.2614 
 353   0.0000       3.174502        86.3826 
 354   0.0000       3.195495        86.9538 
 355   0.0000       3.200561        87.0917 
 356   0.0000       3.202926        87.1561 
 357   0.0000       3.210381        87.3589 
 358   0.0000       3.227119        87.8144 
 359   0.0000       3.231167        87.9245 
 360   0.0000       3.243326        88.2554 
 361   0.0000       3.254849        88.5690 
 362   0.0000       3.273042        89.0640 
 363   0.0000       3.274673        89.1084 
 364   0.0000       3.289664        89.5163 
 365   0.0000       3.298223        89.7492 
 366   0.0000       3.304516        89.9204 
 367   0.0000       3.312346        90.1335 
 368   0.0000       3.319331        90.3236 
 369   0.0000       3.333547        90.7104 
 370   0.0000       3.350287        91.1660 
 371   0.0000       3.360315        91.4388 
 372   0.0000       3.369135        91.6788 
 373   0.0000       3.376789        91.8871 
 374   0.0000       3.400022        92.5193 
 375   0.0000       3.405117        92.6579 
 376   0.0000       3.411471        92.8308 
 377   0.0000       3.441223        93.6404 
 378   0.0000       3.454991        94.0151 
 379   0.0000       3.464511        94.2741 
 380   0.0000       3.479070        94.6703 
 381   0.0000       3.485074        94.8337 
 382   0.0000       3.495595        95.1200 
 383   0.0000       3.519968        95.7832 
 384   0.0000       3.535776        96.2133 
 385   0.0000       3.565162        97.0130 
 386   0.0000       3.592390        97.7539 
 387   0.0000       3.610163        98.2375 
 388   0.0000       3.649284        99.3021 
 389   0.0000       3.660680        99.6122 
 390   0.0000       3.678980       100.1101 
 391   0.0000       3.710687       100.9729 
 392   0.0000       3.714927       101.0883 
 393   0.0000       3.739985       101.7702 
 394   0.0000       3.746179       101.9387 
 395   0.0000       3.763637       102.4138 
 396   0.0000       3.792652       103.2033 
 397   0.0000       3.806025       103.5672 
 398   0.0000       3.808290       103.6288 
 399   0.0000       3.826891       104.1350 
 400   0.0000       3.840465       104.5044 
 401   0.0000       3.866903       105.2238 
 402   0.0000       3.885028       105.7170 
 403   0.0000       3.896273       106.0230 
 404   0.0000       3.917602       106.6034 
 405   0.0000       3.945974       107.3754 
 406   0.0000       4.003247       108.9339 
 407   0.0000       4.008124       109.0666 
 408   0.0000       4.067709       110.6880 
 409   0.0000       4.073811       110.8540 
 410   0.0000       4.076208       110.9193 
 411   0.0000       4.094301       111.4116 
 412   0.0000       4.106153       111.7341 
 413   0.0000       4.115487       111.9881 
 414   0.0000       4.145703       112.8103 
 415   0.0000       4.160100       113.2021 
 416   0.0000       4.163937       113.3065 
 417   0.0000       4.188633       113.9785 
 418   0.0000       4.207520       114.4924 
 419   0.0000       4.233770       115.2067 
 420   0.0000       4.239480       115.3621 
 421   0.0000       4.313008       117.3629 
 422   0.0000       4.316733       117.4643 
 423   0.0000       4.335286       117.9691 
 424   0.0000       4.342202       118.1573 
 425   0.0000       4.365806       118.7996 
 426   0.0000       4.372109       118.9711 
 427   0.0000       4.431786       120.5950 
 428   0.0000       4.450397       121.1015 
 429   0.0000       4.465663       121.5169 
 430   0.0000       4.482212       121.9672 
 431   0.0000       4.553366       123.9034 
 432   0.0000       4.565432       124.2317 
 433   0.0000       4.582262       124.6897 
 434   0.0000       4.589682       124.8916 
 435   0.0000       4.597023       125.0913 
 436   0.0000       4.634453       126.1099 
 437   0.0000       4.690383       127.6318 
 438   0.0000       4.695278       127.7650 
 439   0.0000       4.705779       128.0507 
 440   0.0000       4.732906       128.7889 
 441   0.0000       4.789141       130.3192 
 442   0.0000       4.801883       130.6659 
 443   0.0000       4.809026       130.8603 
 444   0.0000       4.811379       130.9243 
 445   0.0000       4.870516       132.5335 
 446   0.0000       4.876894       132.7070 
 447   0.0000       4.913444       133.7016 
 448   0.0000       4.934140       134.2648 
 449   0.0000       4.952844       134.7737 
 450   0.0000       4.978058       135.4599 
 451   0.0000       5.043103       137.2298 
 452   0.0000       5.065381       137.8360 
 453   0.0000       5.074216       138.0764 
 454   0.0000       5.126961       139.5117 
 455   0.0000       5.133862       139.6995 
 456   0.0000       5.143832       139.9708 
 457   0.0000       5.152604       140.2095 
 458   0.0000       5.168520       140.6426 
 459   0.0000       5.182044       141.0106 
 460   0.0000       5.186658       141.1361 
 461   0.0000       5.221339       142.0799 
 462   0.0000       5.223457       142.1375 
 463   0.0000       5.229065       142.2901 
 464   0.0000       5.242134       142.6457 
 465   0.0000       5.297029       144.1395 
 466   0.0000       5.318045       144.7114 
 467   0.0000       5.394806       146.8001 
 468   0.0000       5.400027       146.9422 
 469   0.0000       5.417682       147.4226 
 470   0.0000       5.434757       147.8873 
 471   0.0000       5.461303       148.6096 
 472   0.0000       5.490669       149.4087 
 473   0.0000       5.613038       152.7385 
 474   0.0000       5.640294       153.4802 
 475   0.0000       5.695207       154.9745 
 476   0.0000       5.711582       155.4201 
 477   0.0000       5.722016       155.7040 
 478   0.0000       5.799408       157.8099 
 479   0.0000       5.866253       159.6289 
 480   0.0000       5.935170       161.5042 
 481   0.0000       5.984426       162.8445 
 482   0.0000       6.122563       166.6034 
 483   0.0000       6.259444       170.3281 
 484   0.0000       6.286015       171.0512 
 485   0.0000       6.329804       172.2427 
 486   0.0000       6.378606       173.5707 
 487   0.0000       6.384145       173.7214 
 488   0.0000       6.400793       174.1744 
 489   0.0000       6.429309       174.9504 
 490   0.0000       6.458870       175.7548 
 491   0.0000       6.495626       176.7550 
 492   0.0000       6.684016       181.8813 
 493   0.0000       6.712359       182.6526 
 494   0.0000       6.847846       186.3394 
 495   0.0000       6.862553       186.7396 
 496   0.0000       6.914470       188.1523 
 497   0.0000       7.031406       191.3343 
 498   0.0000       7.066357       192.2854 
 499   0.0000       7.115152       193.6131 
 500   0.0000       7.242984       197.0916 
 501   0.0000       7.260245       197.5613 
 502   0.0000       7.399239       201.3435 
 503   0.0000       7.511007       204.3849 
 504   0.0000      22.164640       603.1305 
 505   0.0000      22.308905       607.0562 
 506   0.0000      22.388222       609.2145 
 507   0.0000      22.591983       614.7591 
 508   0.0000      22.621233       615.5550 
 509   0.0000      22.744748       618.9160 
 510   0.0000      22.756027       619.2230 
 511   0.0000      22.826392       621.1377 
 512   0.0000      23.149764       629.9371 
 513   0.0000      32.334874       879.8767 
 514   0.0000      32.515385       884.7886 
 515   0.0000      43.754384      1190.6173 
 516   0.0000      43.955469      1196.0891 
 517   0.0000      44.050102      1198.6642 

                    ********************************
                    * MULLIKEN POPULATION ANALYSIS *
                    ********************************

-----------------------
MULLIKEN ATOMIC CHARGES
-----------------------
   0 C :   -0.104005
   1 H :    0.141355
   2 N :    0.446508
   3 O :   -0.441489
   4 O :   -0.443272
   5 H :    0.131332
   6 C :   -0.280661
   7 H :    0.151303
   8 H :    0.310385
   9 C :   -0.364124
  10 H :    0.138489
  11 C :   -0.037339
  12 C :    0.103414
  13 C :   -0.137721
  14 C :   -0.133514
  15 C :   -0.003710
  16 N :   -0.181181
  17 H :    0.174562
  18 H :    0.167520
  19 H :    0.202862
  20 C :   -0.365786
  21 H :    0.143574
  22 H :    0.144254
  23 H :    0.139648
  24 H :    0.165884
  25 H :    0.348204
  26 O :   -0.735362
  27 H :    0.318870
Sum of atomic charges:    0.0000000

--------------------------------
MULLIKEN REDUCED ORBITAL CHARGES
--------------------------------
  0 C s       :     3.211542  s :     3.211542
      pz      :     0.967820  p :     2.802178
      px      :     0.949902
      py      :     0.884455
      dz2     :     0.014901  d :     0.083005
      dxz     :     0.022526
      dyz     :     0.018511
      dx2y2   :     0.016298
      dxy     :     0.010769
      f0      :     0.001278  f :     0.007280
      f+1     :     0.001446
      f-1     :     0.001117
      f+2     :     0.000496
      f-2     :     0.001296
      f+3     :     0.000548
      f-3     :     0.001100
  1 H s       :     0.836111  s :     0.836111
      pz      :     0.009212  p :     0.022534
      px      :     0.007434
      py      :     0.005889
  2 N s       :     3.304525  s :     3.304525
      pz      :     1.034505  p :     2.999129
      px      :     0.960261
      py      :     1.004363
      dz2     :     0.054519  d :     0.235840
      dxz     :     0.051933
      dyz     :     0.046122
      dx2y2   :     0.053767
      dxy     :     0.029499
      f0      :     0.001875  f :     0.013998
      f+1     :     0.002736
      f-1     :     0.002052
      f+2     :     0.001959
      f-2     :     0.002172
      f+3     :     0.001680
      f-3     :     0.001524
  3 O s       :     3.895734  s :     3.895734
      pz      :     1.551768  p :     4.504301
      px      :     1.444313
      py      :     1.508220
      dz2     :     0.006149  d :     0.038380
      dxz     :     0.011003
      dyz     :     0.008851
      dx2y2   :     0.006093
      dxy     :     0.006284
      f0      :     0.000334  f :     0.003074
      f+1     :     0.000546
      f-1     :     0.000376
      f+2     :     0.000575
      f-2     :     0.000790
      f+3     :     0.000230
      f-3     :     0.000224
  4 O s       :     3.877365  s :     3.877365
      pz      :     1.818558  p :     4.524224
      px      :     1.342332
      py      :     1.363333
      dz2     :     0.004778  d :     0.038572
      dxz     :     0.006171
      dyz     :     0.005032
      dx2y2   :     0.010061
      dxy     :     0.012531
      f0      :     0.000355  f :     0.003111
      f+1     :     0.000327
      f-1     :     0.000266
      f+2     :     0.000196
      f-2     :     0.000618
      f+3     :     0.000661
      f-3     :     0.000687
  5 H s       :     0.846634  s :     0.846634
      pz      :     0.008850  p :     0.022034
      px      :     0.007407
      py      :     0.005777
  6 C s       :     3.246051  s :     3.246051
      pz      :     0.743538  p :     2.928963
      px      :     1.108248
      py      :     1.077177
      dz2     :     0.023760  d :     0.097036
      dxz     :     0.021244
      dyz     :     0.018488
      dx2y2   :     0.014699
      dxy     :     0.018845
      f0      :     0.002435  f :     0.008610
      f+1     :     0.001534
      f-1     :     0.001757
      f+2     :     0.000455
      f-2     :     0.000682
      f+3     :     0.000918
      f-3     :     0.000829
  7 H s       :     0.826094  s :     0.826094
      pz      :     0.005958  p :     0.022603
      px      :     0.010883
      py      :     0.005762
  8 H s       :     0.629186  s :     0.629186
      pz      :     0.007806  p :     0.060430
      px      :     0.022380
      py      :     0.030243
  9 C s       :     3.296450  s :     3.296450
      pz      :     0.936755  p :     3.020712
      px      :     1.052149
      py      :     1.031808
      dz2     :     0.008673  d :     0.042124
      dxz     :     0.014795
      dyz     :     0.011585
      dx2y2   :     0.002595
      dxy     :     0.004476
      f0      :     0.001015  f :     0.004839
      f+1     :     0.001166
      f-1     :     0.000728
      f+2     :     0.000319
      f-2     :     0.000985
      f+3     :     0.000441
      f-3     :     0.000184
 10 H s       :     0.839114  s :     0.839114
      pz      :     0.004216  p :     0.022398
      px      :     0.007609
      py      :     0.010573
 11 C s       :     3.194238  s :     3.194238
      pz      :     0.952877  p :     2.728155
      px      :     0.824328
      py      :     0.950950
      dz2     :     0.014204  d :     0.104222
      dxz     :     0.026560
      dyz     :     0.010540
      dx2y2   :     0.025466
      dxy     :     0.027452
      f0      :     0.000600  f :     0.010724
      f+1     :     0.002032
      f-1     :     0.000900
      f+2     :     0.001950
      f-2     :     0.001498
      f+3     :     0.002178
      f-3     :     0.001565
 12 C s       :     3.177931  s :     3.177931
      pz      :     0.863319  p :     2.578180
      px      :     0.846977
      py      :     0.867884
      dz2     :     0.021718  d :     0.130597
      dxz     :     0.033026
      dyz     :     0.018150
      dx2y2   :     0.028394
      dxy     :     0.029308
      f0      :     0.000940  f :     0.009879
      f+1     :     0.001544
      f-1     :     0.001077
      f+2     :     0.001501
      f-2     :     0.001780
      f+3     :     0.001824
      f-3     :     0.001213
 13 C s       :     3.254225  s :     3.254225
      pz      :     0.899619  p :     2.797692
      px      :     0.991971
      py      :     0.906101
      dz2     :     0.017614  d :     0.078517
      dxz     :     0.017201
      dyz     :     0.009640
      dx2y2   :     0.016627
      dxy     :     0.017435
      f0      :     0.000808  f :     0.007287
      f+1     :     0.000930
      f-1     :     0.001016
      f+2     :     0.001245
      f-2     :     0.001320
      f+3     :     0.001015
      f-3     :     0.000954
 14 C s       :     3.216709  s :     3.216709
      pz      :     0.970320  p :     2.831339
      px      :     0.887825
      py      :     0.973194
      dz2     :     0.011652  d :     0.078086
      dxz     :     0.016858
      dyz     :     0.011484
      dx2y2   :     0.020303
      dxy     :     0.017789
      f0      :     0.000329  f :     0.007379
      f+1     :     0.001347
      f-1     :     0.000910
      f+2     :     0.001466
      f-2     :     0.000976
      f+3     :     0.001438
      f-3     :     0.000913
 15 C s       :     3.184353  s :     3.184353
      pz      :     0.835303  p :     2.705929
      px      :     1.023621
      py      :     0.847005
      dz2     :     0.024099  d :     0.102753
      dxz     :     0.022698
      dyz     :     0.012210
      dx2y2   :     0.022296
      dxy     :     0.021450
      f0      :     0.001405  f :     0.010675
      f+1     :     0.001050
      f-1     :     0.002028
      f+2     :     0.001961
      f-2     :     0.001703
      f+3     :     0.001444
      f-3     :     0.001085
 16 N s       :     3.534873  s :     3.534873
      pz      :     1.164862  p :     3.571081
      px      :     1.217755
      py      :     1.188464
      dz2     :     0.015181  d :     0.070931
      dxz     :     0.016666
      dyz     :     0.008312
      dx2y2   :     0.015363
      dxy     :     0.015409
      f0      :     0.000537  f :     0.004296
      f+1     :     0.000482
      f-1     :     0.000671
      f+2     :     0.000758
      f-2     :     0.000774
      f+3     :     0.000544
      f-3     :     0.000530
 17 H s       :     0.803581  s :     0.803581
      pz      :     0.009667  p :     0.021857
      px      :     0.002997
      py      :     0.009193
 18 H s       :     0.810044  s :     0.810044
      pz      :     0.009739  p :     0.022436
      px      :     0.003418
      py      :     0.009279
 19 H s       :     0.773846  s :     0.773846
      pz      :     0.004888  p :     0.023292
      px      :     0.013833
      py      :     0.004571
 20 C s       :     3.318869  s :     3.318869
      pz      :     1.028741  p :     2.998678
      px      :     0.932780
      py      :     1.037158
      dz2     :     0.004848  d :     0.044578
      dxz     :     0.012283
      dyz     :     0.008259
      dx2y2   :     0.008262
      dxy     :     0.010926
      f0      :     0.000011  f :     0.003661
      f+1     :     0.000638
      f-1     :     0.000153
      f+2     :     0.001009
      f-2     :     0.001056
      f+3     :     0.000521
      f-3     :     0.000272
 21 H s       :     0.834975  s :     0.834975
      pz      :     0.008186  p :     0.021450
      px      :     0.008056
      py      :     0.005208
 22 H s       :     0.834191  s :     0.834191
      pz      :     0.006812  p :     0.021555
      px      :     0.006332
      py      :     0.008411
 23 H s       :     0.838604  s :     0.838604
      pz      :     0.007852  p :     0.021747
      px      :     0.004321
      py      :     0.009574
 24 H s       :     0.812086  s :     0.812086
      pz      :     0.005030  p :     0.022030
      px      :     0.011822
      py      :     0.005178
 25 H s       :     0.606674  s :     0.606674
      pz      :     0.014584  p :     0.045122
      px      :     0.012982
      py      :     0.017556
 26 O s       :     3.801125  s :     3.801125
      pz      :     1.850951  p :     4.914924
      px      :     1.615697
      py      :     1.448276
      dz2     :     0.001685  d :     0.018341
      dxz     :     0.004185
      dyz     :     0.004511
      dx2y2   :     0.002718
      dxy     :     0.005242
      f0      :     0.000219  f :     0.000972
      f+1     :     0.000035
      f-1     :     0.000085
      f+2     :     0.000153
      f-2     :     0.000154
      f+3     :     0.000246
      f-3     :     0.000081
 27 H s       :     0.602593  s :     0.602593
      pz      :     0.016274  p :     0.078537
      px      :     0.051201
      py      :     0.011063


                     *******************************
                     * LOEWDIN POPULATION ANALYSIS *
                     *******************************

----------------------
LOEWDIN ATOMIC CHARGES
----------------------
   0 C :   -0.229420
   1 H :    0.145942
   2 N :   -0.057161
   3 O :   -0.135362
   4 O :   -0.148088
   5 H :    0.122772
   6 C :   -0.307878
   7 H :    0.144959
   8 H :    0.180380
   9 C :   -0.241269
  10 H :    0.123073
  11 C :   -0.121059
  12 C :   -0.155959
  13 C :   -0.051535
  14 C :   -0.116582
  15 C :   -0.150848
  16 N :    0.218631
  17 H :    0.157968
  18 H :    0.161683
  19 H :    0.150282
  20 C :   -0.237625
  21 H :    0.137971
  22 H :    0.139226
  23 H :    0.135003
  24 H :    0.164382
  25 H :    0.151105
  26 O :   -0.345930
  27 H :    0.165337

-------------------------------
LOEWDIN REDUCED ORBITAL CHARGES
-------------------------------
  0 C s       :     2.793409  s :     2.793409
      pz      :     1.083059  p :     2.977327
      px      :     0.926170
      py      :     0.968098
      dz2     :     0.088610  d :     0.414891
      dxz     :     0.095669
      dyz     :     0.106111
      dx2y2   :     0.070371
      dxy     :     0.054130
      f0      :     0.008818  f :     0.043793
      f+1     :     0.007620
      f-1     :     0.008913
      f+2     :     0.003599
      f-2     :     0.005244
      f+3     :     0.003642
      f-3     :     0.005956
  1 H s       :     0.793264  s :     0.793264
      pz      :     0.023663  p :     0.060794
      px      :     0.020738
      py      :     0.016393
  2 N s       :     2.938539  s :     2.938539
      pz      :     1.177117  p :     3.298118
      px      :     1.063507
      py      :     1.057494
      dz2     :     0.173404  d :     0.749735
      dxz     :     0.167870
      dyz     :     0.142286
      dx2y2   :     0.141328
      dxy     :     0.124846
      f0      :     0.009421  f :     0.070770
      f+1     :     0.014758
      f-1     :     0.010614
      f+2     :     0.010834
      f-2     :     0.011422
      f+3     :     0.006224
      f-3     :     0.007497
  3 O s       :     3.510880  s :     3.510880
      pz      :     1.553024  p :     4.519864
      px      :     1.470326
      py      :     1.496515
      dz2     :     0.016653  d :     0.094356
      dxz     :     0.028127
      dyz     :     0.020122
      dx2y2   :     0.012765
      dxy     :     0.016688
      f0      :     0.001176  f :     0.010262
      f+1     :     0.001960
      f-1     :     0.001226
      f+2     :     0.001576
      f-2     :     0.002703
      f+3     :     0.000755
      f-3     :     0.000865
  4 O s       :     3.514854  s :     3.514854
      pz      :     1.727109  p :     4.528913
      px      :     1.399519
      py      :     1.402286
[...]
     28       0.000074   0.000226   0.001088  -0.002876  -0.073257   0.000060
     29       0.000054   0.000098   0.000399  -0.000626  -0.014333  -0.000019
     30      -0.000386  -0.001235  -0.005884   0.016545   0.427753   0.000100
     31      -0.000596  -0.001891  -0.008981   0.024913   0.642368   0.000218
     32       0.000186   0.000573   0.002772  -0.007866  -0.203683  -0.000087
     33       0.000281  -0.009786   0.000528  -0.000354   0.000002  -0.000052
     34      -0.000426  -0.059084   0.012167  -0.003792   0.000163   0.000071
     35      -0.000465  -0.061608   0.012758  -0.003969   0.000168   0.000059
     36      -0.000416   0.003543  -0.000278   0.000285  -0.000004   0.000013
     37       0.001931   0.000874  -0.000555  -0.000711   0.000024  -0.000032
     38       0.002005   0.000802  -0.000580  -0.000754   0.000028  -0.000026
     39      -0.073652   0.002444   0.012273   0.015094  -0.000464  -0.000009
     40      -0.030577   0.001419   0.004286   0.004012  -0.000123  -0.000005
     41      -0.028891   0.001392   0.003980   0.003553  -0.000094  -0.000005
     42       0.002358  -0.001182  -0.004029   0.000914  -0.000077  -0.000014
     43       0.011917   0.001327   0.023742   0.054730  -0.001858  -0.000003
     44       0.012389   0.001441   0.025026   0.057286  -0.001927   0.000010
     45       0.005934   0.015437   0.069507  -0.036460   0.002149  -0.000007
     46      -0.001844  -0.003864  -0.022943   0.009579  -0.000610  -0.000048
     47      -0.002138  -0.004583  -0.026451   0.011313  -0.000716  -0.000050
     48       0.000031  -0.000428  -0.000304   0.000305  -0.000007   0.000517
     49      -0.000083   0.000582   0.000406  -0.000796   0.000037   0.000159
     50      -0.000095   0.000626   0.000428  -0.000839   0.000038   0.000124
     51       0.000586   0.087592  -0.016964   0.005197  -0.000217   0.000161
     52       0.008130   0.672052  -0.131226   0.038225  -0.001565  -0.000026
     53       0.008573   0.701881  -0.137091   0.039899  -0.001645  -0.000071
     54      -0.001100   0.000823   0.006411   0.004210  -0.000093   0.000115
     55      -0.147809  -0.017494  -0.277049  -0.612353   0.020596   0.000357
     56      -0.154732  -0.018376  -0.290465  -0.641460   0.021592   0.000413
     57      -0.066683  -0.175297  -0.784125   0.375327  -0.022849  -0.000023
     58       0.021962   0.057517   0.259117  -0.120751   0.007427   0.000001
     59       0.025202   0.066190   0.297790  -0.139150   0.008569  -0.000107
     60      -0.000615  -0.000366  -0.000015   0.000094  -0.000003  -0.000002
     61      -0.000339  -0.000765   0.000114  -0.000139   0.000003   0.000005
     62      -0.000602  -0.000664   0.000192  -0.000061   0.000004  -0.000003
     63       0.006157   0.000175  -0.000276  -0.000998   0.000035   0.000227
     64      -0.003285   0.000263   0.000354   0.000532  -0.000017  -0.000125
     65       0.005001   0.001804  -0.000038  -0.000700   0.000029   0.000194
     66       0.002384  -0.000426   0.000113  -0.000533   0.000027   0.000183
     67       0.001952   0.001154   0.000675  -0.000377   0.000040   0.000201
     68      -0.002681  -0.000035  -0.000059   0.000543  -0.000022  -0.000164
     69       0.001835   0.000054  -0.000425  -0.000012   0.000001  -0.000030
     70       0.002578   0.009345  -0.001532   0.002312  -0.000071  -0.000123
     71       0.002075   0.007714  -0.001304   0.001930  -0.000067  -0.000105
     72       0.843483  -0.027422  -0.133651  -0.141631   0.004227   0.000683
     73       0.348201  -0.011616  -0.054230  -0.056231   0.001661   0.000293
     74       0.328825  -0.011082  -0.051072  -0.052878   0.001579   0.000269
     75      -0.000224   0.000397  -0.000088   0.000372   0.000053   0.368089
     76      -0.000543   0.000152   0.000161   0.000534  -0.000018   0.850314
     77       0.000213   0.000046  -0.000255  -0.000103  -0.000036  -0.370773
     78      -0.000002   0.000249  -0.000183   0.000120  -0.000004  -0.023243
     79       0.000036   0.000092  -0.000114   0.000017  -0.000007  -0.053023
     80      -0.000018   0.000155  -0.000067   0.000057   0.000004   0.022847
     81       0.000662  -0.003999   0.005571  -0.004391   0.000091  -0.006576
     82      -0.000027  -0.005123  -0.000496  -0.000040  -0.000062  -0.006520
     83       0.000092  -0.005979   0.000273  -0.000452  -0.000038   0.003650


-----------
IR SPECTRUM
-----------

 Mode   freq       eps      Int      T**2         TX        TY        TZ
       cm**-1   L/(mol*cm) km/mol    a.u.
----------------------------------------------------------------------------
  7:     19.63   0.000107    0.54  0.001698  ( 0.030830  0.015805  0.022299)
  8:     35.72   0.000390    1.97  0.003407  ( 0.010265  0.000095 -0.057459)
  9:     56.20   0.001415    7.15  0.007854  ( 0.087377 -0.010088  0.010825)
 10:     63.07   0.008684   43.89  0.042971  (-0.048178 -0.158004 -0.125240)
 11:     74.24   0.004772   24.11  0.020056  (-0.058446 -0.087406 -0.094871)
 12:     75.84   0.000985    4.98  0.004054  ( 0.020295 -0.051408 -0.031609)
 13:     77.84   0.007526   38.03  0.030170  (-0.137796 -0.068778 -0.080324)
 14:    108.95   0.001029    5.20  0.002946  ( 0.021841  0.038597  0.031291)
 15:    118.66   0.028360  143.32  0.074584  (-0.205990 -0.113035 -0.139196)
 16:    168.81   0.173453  876.56  0.320650  ( 0.315516  0.330808  0.334164)
 17:    216.41   0.012342   62.37  0.017798  ( 0.067250  0.070678  0.090993)
 18:    219.92   0.001578    7.97  0.002239  ( 0.021606  0.006521  0.041587)
 19:    251.79   0.345811  1747.59  0.428590  (-0.367808 -0.419399 -0.342654)
 20:    346.76   0.011190   56.55  0.010070  (-0.058500 -0.062991 -0.051769)
 21:    401.28   0.000562    2.84  0.000437  (-0.002086  0.015845  0.013475)
 22:    403.56   0.031532  159.35  0.024382  (-0.092103 -0.108833 -0.063677)
 23:    420.87   0.060648  306.49  0.044969  ( 0.114018  0.120814  0.131808)
 24:    450.30   0.018017   91.05  0.012486  (-0.025250 -0.074453 -0.079407)
 25:    489.76   0.002055   10.39  0.001310  ( 0.022182  0.011487 -0.026184)
 26:    503.46   0.020990  106.08  0.013010  (-0.033961 -0.058304 -0.091966)
 27:    539.00   0.003841   19.41  0.002224  (-0.022332 -0.033969  0.023903)
 28:    551.83   0.010486   52.99  0.005930  (-0.048379 -0.036717 -0.047340)
 29:    613.28   0.007434   37.57  0.003783  (-0.055776 -0.024702 -0.007838)
 30:    664.61   0.019137   96.71  0.008986  ( 0.085173  0.015421  0.038644)
 31:    716.43   0.018673   94.36  0.008133  ( 0.003565 -0.089327 -0.011897)
 32:    720.88   0.005622   28.41  0.002434  ( 0.022327  0.014132 -0.041661)
 33:    730.10   0.081219  410.45  0.034715  ( 0.157833  0.052881  0.083710)
 34:    755.09   0.003593   18.16  0.001485  ( 0.001785  0.017610  0.034226)
 35:    822.33   0.010952   55.35  0.004156  ( 0.011924 -0.045464  0.044124)
 36:    881.87   0.053082  268.26  0.018784  (-0.105992 -0.040230 -0.077014)
 37:    900.51   0.030713  155.21  0.010643  ( 0.031007  0.086891  0.046173)
 38:    917.26   0.024336  122.99  0.008279  ( 0.089171  0.018110  0.000016)
 39:    938.72   0.001027    5.19  0.000341  ( 0.004551  0.017642  0.003070)
 40:    940.71   0.000588    2.97  0.000195  ( 0.004563 -0.008859  0.009790)
 41:    985.16   0.000763    3.85  0.000242  ( 0.003094 -0.009930  0.011548)
 42:   1020.34   0.001525    7.71  0.000467  (-0.012566 -0.012082 -0.012752)
 43:   1028.88   0.000124    0.63  0.000038  (-0.005598 -0.001931 -0.001599)
 44:   1029.49   0.003550   17.94  0.001076  (-0.025710  0.017033  0.011173)
 45:   1031.16   0.007492   37.86  0.002267  (-0.042261  0.018760  0.011378)
 46:   1069.30   0.010166   51.37  0.002967  ( 0.040529  0.015915  0.032723)
 47:   1072.30   0.005123   25.89  0.001491  (-0.010968  0.000609 -0.037018)
 48:   1073.60   0.003690   18.65  0.001073  ( 0.024059  0.022155  0.001700)
 49:   1122.64   0.061708  311.85  0.017153  ( 0.115872  0.045312  0.040909)
 50:   1138.83   0.023431  118.41  0.006421  ( 0.045015 -0.001916  0.066262)
 51:   1153.73   0.064950  328.23  0.017568  (-0.104012 -0.052938 -0.062825)
 52:   1196.74   0.007508   37.94  0.001958  (-0.024300 -0.013441  0.034448)
 53:   1216.34   0.011670   58.98  0.002994  ( 0.050231  0.015727  0.014954)
 54:   1264.80   0.027156  137.24  0.006700  ( 0.071788  0.026735  0.028842)
 55:   1292.84   0.015339   77.52  0.003703  (-0.041345 -0.039847  0.020136)
 56:   1305.11   0.007150   36.13  0.001710  ( 0.034568 -0.012447 -0.018968)
 57:   1316.73   0.023075  116.61  0.005469  ( 0.048470  0.053312 -0.016653)
 58:   1368.88   0.002119   10.71  0.000483  (-0.012388 -0.005055 -0.017439)
 59:   1377.53   0.150866  762.41  0.034177  ( 0.011417  0.062759 -0.173516)
 60:   1411.41   0.002528   12.77  0.000559  (-0.021840  0.008941 -0.001396)
 61:   1417.48   0.003768   19.04  0.000830  (-0.001103 -0.028623 -0.003014)
 62:   1440.15   0.044347  224.11  0.009610  ( 0.076789  0.060023  0.010497)
 63:   1467.73   0.000654    3.31  0.000139  (-0.004873 -0.006050 -0.008877)
 64:   1470.51   0.010546   53.30  0.002238  ( 0.009081  0.039532 -0.024349)
 65:   1474.29   0.070595  356.76  0.014943  ( 0.099446  0.068567  0.018762)
 66:   1488.15   0.009550   48.26  0.002003  (-0.010733 -0.008387  0.042628)
 67:   1517.79   0.002723   13.76  0.000560  (-0.023481 -0.002925  0.000250)
 68:   1609.75   0.011890   60.09  0.002305  (-0.041162  0.020450  0.013871)
 69:   1656.42   0.012597   63.66  0.002373  (-0.023047 -0.032776 -0.027711)
 70:   1669.52   0.013119   66.30  0.002452  ( 0.012608  0.026329 -0.039999)
 71:   1674.50   0.007964   40.25  0.001484  ( 0.032590 -0.018281 -0.009377)
 72:   3036.93   0.002404   12.15  0.000247  (-0.013622  0.003893  0.006806)
 73:   3088.82   0.002078   10.50  0.000210  ( 0.003122 -0.011294  0.008523)
 74:   3118.20   0.002867   14.49  0.000287  ( 0.004141  0.011461  0.011765)
 75:   3127.37   0.001910    9.65  0.000191  ( 0.003413  0.000109  0.013377)
 76:   3145.75   0.000539    2.72  0.000053  ( 0.002638  0.006010  0.003223)
 77:   3168.99   0.000722    3.65  0.000071  ( 0.005633  0.005635 -0.002767)
 78:   3180.61   0.000972    4.91  0.000095  (-0.009505 -0.001577 -0.001580)
 79:   3193.86   0.000218    1.10  0.000021  (-0.000940 -0.002859 -0.003501)
 80:   3198.02   0.004747   23.99  0.000463  (-0.021220  0.003389  0.001197)
 81:   3211.69   0.000809    4.09  0.000079  ( 0.008197  0.001279  0.003123)
 82:   3213.49   0.002819   14.24  0.000274  (-0.011318 -0.011673 -0.003060)
 83:   3783.12   0.014689   74.23  0.001212  ( 0.008525  0.033351 -0.005171)

* The epsilon (eps) is given for a Dirac delta lineshape.
** The dipole moment derivative (T) already includes vibrational overlap.

The first frequency considered to be a vibration is 7
The total number of vibrations considered is 77


--------------------------
THERMOCHEMISTRY AT 298.15K
--------------------------

Temperature         ... 298.15 K
Pressure            ... 1.00 atm
Total Mass          ... 199.21 AMU

Throughout the following assumptions are being made:
  (1) The electronic state is orbitally nondegenerate
  (2) There are no thermally accessible electronically excited states
  (3) Hindered rotations indicated by low frequency modes are not
      treated as such but are treated as vibrations and this may
      cause some error
  (4) All equations used are the standard statistical mechanics
      equations for an ideal gas
  (5) All vibrations are strictly harmonic

freq.      19.63  E(vib)   ...       0.56 
freq.      35.72  E(vib)   ...       0.54 
freq.      56.20  E(vib)   ...       0.52 
freq.      63.07  E(vib)   ...       0.51 
freq.      74.24  E(vib)   ...       0.49 
freq.      75.84  E(vib)   ...       0.49 
freq.      77.84  E(vib)   ...       0.49 
freq.     108.95  E(vib)   ...       0.45 
freq.     118.66  E(vib)   ...       0.44 
freq.     168.81  E(vib)   ...       0.38 
freq.     216.41  E(vib)   ...       0.34 
freq.     219.92  E(vib)   ...       0.33 
freq.     251.79  E(vib)   ...       0.30 
freq.     346.76  E(vib)   ...       0.23 
freq.     401.28  E(vib)   ...       0.19 
freq.     403.56  E(vib)   ...       0.19 
freq.     420.87  E(vib)   ...       0.18 
freq.     450.30  E(vib)   ...       0.17 
freq.     489.76  E(vib)   ...       0.15 
freq.     503.46  E(vib)   ...       0.14 
freq.     539.00  E(vib)   ...       0.12 
freq.     551.83  E(vib)   ...       0.12 
freq.     613.28  E(vib)   ...       0.10 
freq.     664.61  E(vib)   ...       0.08 
freq.     716.43  E(vib)   ...       0.07 
freq.     720.88  E(vib)   ...       0.07 
freq.     730.10  E(vib)   ...       0.06 
freq.     755.09  E(vib)   ...       0.06 
freq.     822.33  E(vib)   ...       0.05 
freq.     881.87  E(vib)   ...       0.04 
freq.     900.51  E(vib)   ...       0.03 
freq.     917.26  E(vib)   ...       0.03 
freq.     938.72  E(vib)   ...       0.03 
freq.     940.71  E(vib)   ...       0.03 
freq.     985.16  E(vib)   ...       0.02 
freq.    1020.34  E(vib)   ...       0.02 
freq.    1028.88  E(vib)   ...       0.02 
freq.    1029.49  E(vib)   ...       0.02 
freq.    1031.16  E(vib)   ...       0.02 
freq.    1069.30  E(vib)   ...       0.02 
freq.    1072.30  E(vib)   ...       0.02 
freq.    1073.60  E(vib)   ...       0.02 
freq.    1122.64  E(vib)   ...       0.01 
freq.    1138.83  E(vib)   ...       0.01 
freq.    1153.73  E(vib)   ...       0.01 
freq.    1196.74  E(vib)   ...       0.01 
freq.    1216.34  E(vib)   ...       0.01 
freq.    1264.80  E(vib)   ...       0.01 
freq.    1292.84  E(vib)   ...       0.01 
freq.    1305.11  E(vib)   ...       0.01 
freq.    1316.73  E(vib)   ...       0.01 
freq.    1368.88  E(vib)   ...       0.01 
freq.    1377.53  E(vib)   ...       0.01 
freq.    1411.41  E(vib)   ...       0.00 
freq.    1417.48  E(vib)   ...       0.00 
freq.    1440.15  E(vib)   ...       0.00 
freq.    1467.73  E(vib)   ...       0.00 
freq.    1470.51  E(vib)   ...       0.00 
freq.    1474.29  E(vib)   ...       0.00 
freq.    1488.15  E(vib)   ...       0.00 
freq.    1517.79  E(vib)   ...       0.00 
freq.    1609.75  E(vib)   ...       0.00 
freq.    1656.42  E(vib)   ...       0.00 
freq.    1669.52  E(vib)   ...       0.00 
freq.    1674.50  E(vib)   ...       0.00 
freq.    3036.93  E(vib)   ...       0.00 
freq.    3088.82  E(vib)   ...       0.00 
freq.    3118.20  E(vib)   ...       0.00 
freq.    3127.37  E(vib)   ...       0.00 
freq.    3145.75  E(vib)   ...       0.00 
freq.    3168.99  E(vib)   ...       0.00 
freq.    3180.61  E(vib)   ...       0.00 
freq.    3193.86  E(vib)   ...       0.00 
freq.    3198.02  E(vib)   ...       0.00 
freq.    3211.69  E(vib)   ...       0.00 
freq.    3213.49  E(vib)   ...       0.00 
freq.    3783.12  E(vib)   ...       0.00 

------------
INNER ENERGY
------------

The inner energy is: U= E(el) + E(ZPE) + E(vib) + E(rot) + E(trans)
    E(el)   - is the total energy from the electronic structure calculation
              = E(kin-el) + E(nuc-el) + E(el-el) + E(nuc-nuc)
    E(ZPE)  - the the zero temperature vibrational energy from the frequency calculation
    E(vib)  - the the finite temperature correction to E(ZPE) due to population
              of excited vibrational states
    E(rot)  - is the rotational thermal energy
    E(trans)- is the translational thermal energy

Summary of contributions to the inner energy U:
Electronic energy                ...   -686.37865109 Eh
Zero point energy                ...      0.21420378 Eh     134.41 kcal/mol
Thermal vibrational correction   ...      0.01317325 Eh       8.27 kcal/mol
Thermal rotational correction    ...      0.00141627 Eh       0.89 kcal/mol
Thermal translational correction ...      0.00141627 Eh       0.89 kcal/mol
-----------------------------------------------------------------------
Total thermal energy                   -686.14844151 Eh


Summary of corrections to the electronic energy:
(perhaps to be used in another calculation)
Total thermal correction                  0.01600580 Eh      10.04 kcal/mol
Non-thermal (ZPE) correction              0.21420378 Eh     134.41 kcal/mol
-----------------------------------------------------------------------
Total correction                          0.23020957 Eh     144.46 kcal/mol


--------
ENTHALPY
--------

The enthalpy is H = U + kB*T
                kB is Boltzmann's constant
Total free energy                 ...   -686.14844151 Eh 
Thermal Enthalpy correction       ...      0.00094421 Eh       0.59 kcal/mol
-----------------------------------------------------------------------
Total Enthalpy                    ...   -686.14749730 Eh


Note: Only C1 symmetry has been detected, increase convergence thresholds 
      if your molecule has a higher symmetry. Symmetry factor of 1.0 is   
      used for the rotational entropy correction. 
 

Note: Rotational entropy computed according to Herzberg 
Infrared and Raman Spectra, Chapter V,1, Van Nostrand Reinhold, 1945 
Point Group:  C1, Symmetry Number:   1  
Rotational constants in cm-1:     0.037215     0.009714     0.009389 

Vibrational entropy computed according to the QRRHO of S. Grimme
Chem.Eur.J. 2012 18 9955


-------
ENTROPY
-------

The entropy contributions are T*S = T*(S(el)+S(vib)+S(rot)+S(trans))
     S(el)   - electronic entropy
     S(vib)  - vibrational entropy
     S(rot)  - rotational entropy
     S(trans)- translational entropy
The entropies will be listed as multiplied by the temperature to get
units of energy

Electronic entropy                ...      0.00000000 Eh      0.00 kcal/mol
Vibrational entropy               ...      0.02408307 Eh     15.11 kcal/mol
Rotational entropy                ...      0.01545605 Eh      9.70 kcal/mol
Translational entropy             ...      0.01984735 Eh     12.45 kcal/mol
-----------------------------------------------------------------------
Final entropy term                ...      0.05938646 Eh     37.27 kcal/mol

In case the symmetry of your molecule has not been determined correctly
or in case you have a reason to use a different symmetry number we print 
out the resulting rotational entropy values for sn=1,12 :
 --------------------------------------------------------
|  sn= 1 | S(rot)=       0.01545605 Eh      9.70 kcal/mol|
|  sn= 2 | S(rot)=       0.01480159 Eh      9.29 kcal/mol|
|  sn= 3 | S(rot)=       0.01441876 Eh      9.05 kcal/mol|
|  sn= 4 | S(rot)=       0.01414714 Eh      8.88 kcal/mol|
|  sn= 5 | S(rot)=       0.01393645 Eh      8.75 kcal/mol|
|  sn= 6 | S(rot)=       0.01376430 Eh      8.64 kcal/mol|
|  sn= 7 | S(rot)=       0.01361876 Eh      8.55 kcal/mol|
|  sn= 8 | S(rot)=       0.01349268 Eh      8.47 kcal/mol|
|  sn= 9 | S(rot)=       0.01338147 Eh      8.40 kcal/mol|
|  sn=10 | S(rot)=       0.01328199 Eh      8.33 kcal/mol|
|  sn=11 | S(rot)=       0.01319200 Eh      8.28 kcal/mol|
|  sn=12 | S(rot)=       0.01310985 Eh      8.23 kcal/mol|
 --------------------------------------------------------


-------------------
GIBBS FREE ENERGY
-------------------

The Gibbs free energy is G = H - T*S

Total enthalpy                    ...   -686.14749730 Eh 
Total entropy correction          ...     -0.05938646 Eh    -37.27 kcal/mol
-----------------------------------------------------------------------
Final Gibbs free energy         ...   -686.20688377 Eh

For completeness - the Gibbs free energy minus the electronic energy
G-E(el)                           ...      0.17176732 Eh    107.79 kcal/mol



Timings for individual modules:

Sum of individual times         ...     1696.192 sec (=  28.270 min)
GTO integral calculation        ...        9.943 sec (=   0.166 min)   0.6 %
SCF iterations                  ...       94.206 sec (=   1.570 min)   5.6 %
SCF Gradient evaluation         ...       21.699 sec (=   0.362 min)   1.3 %
Numerical frequency calculation ...     1570.344 sec (=  26.172 min)  92.6 %
                             ****ORCA TERMINATED NORMALLY****
TOTAL RUN TIME: 0 days 0 hours 27 minutes 18 seconds 397 msec
