
                                 *****************
                                 * O   R   C   A *
                                 *****************

                                            #,                                       
                                            ###                                      
                                            ####                                     
                                            #####                                    
                                            ######                                   
                                           ########,                                 
                                     ,,################,,,,,                         
                               ,,#################################,,                 
                          ,,##########################################,,             
                       ,#########################################, ''#####,          
                    ,#############################################,,   '####,        
                  ,##################################################,,,,####,       
                ,###########''''           ''''###############################       
              ,#####''   ,,,,##########,,,,          '''####'''          '####       
            ,##' ,,,,###########################,,,                        '##       
           ' ,,###''''                  '''############,,,                           
         ,,##''                                '''############,,,,        ,,,,,,###''
      ,#''                                            '''#######################'''  
     '                                                          ''''####''''         
             ,#######,   #######,   ,#######,      ##                                
            ,#'     '#,  ##    ##  ,#'     '#,    #''#        ######   ,####,        
            ##       ##  ##   ,#'  ##            #'  '#       #        #'  '#        
            ##       ##  #######   ##           ,######,      #####,   #    #        
            '#,     ,#'  ##    ##  '#,     ,#' ,#      #,         ##   #,  ,#        
             '#######'   ##     ##  '#######'  #'      '#     #####' # '####'        



                  #######################################################
                  #                        -***-                        #
                  #          Department of theory and spectroscopy      #
                  #    Directorship and core code : Frank Neese         #
                  #        Max Planck Institute fuer Kohlenforschung    #
                  #                Kaiser Wilhelm Platz 1               #
                  #                 D-45470 Muelheim/Ruhr               #
                  #                      Germany                        #
                  #                                                     #
                  #                  All rights reserved                #
                  #                        -***-                        #
                  #######################################################


                         Program Version 5.0.4 -  RELEASE  -


 With contributions from (in alphabetic order):
   Daniel Aravena         : Magnetic Suceptibility
   Michael Atanasov       : Ab Initio Ligand Field Theory (pilot matlab implementation)
   Alexander A. Auer      : GIAO ZORA, VPT2 properties, NMR spectrum
   Ute Becker             : Parallelization
   Giovanni Bistoni       : ED, misc. LED, open-shell LED, HFLD
   Martin Brehm           : Molecular dynamics
   Dmytro Bykov           : SCF Hessian
   Vijay G. Chilkuri      : MRCI spin determinant printing, contributions to CSF-ICE
   Dipayan Datta          : RHF DLPNO-CCSD density
   Achintya Kumar Dutta   : EOM-CC, STEOM-CC
   Dmitry Ganyushin       : Spin-Orbit,Spin-Spin,Magnetic field MRCI
   Miquel Garcia          : C-PCM and meta-GGA Hessian, CC/C-PCM, Gaussian charge scheme
   Yang Guo               : DLPNO-NEVPT2, F12-NEVPT2, CIM, IAO-localization
   Andreas Hansen         : Spin unrestricted coupled pair/coupled cluster methods
   Benjamin Helmich-Paris : MC-RPA, TRAH-SCF, COSX integrals
   Lee Huntington         : MR-EOM, pCC
   Robert Izsak           : Overlap fitted RIJCOSX, COSX-SCS-MP3, EOM
   Marcus Kettner         : VPT2
   Christian Kollmar      : KDIIS, OOCD, Brueckner-CCSD(T), CCSD density, CASPT2, CASPT2-K
   Simone Kossmann        : Meta GGA functionals, TD-DFT gradient, OOMP2, MP2 Hessian
   Martin Krupicka        : Initial AUTO-CI
   Lucas Lang             : DCDCAS
   Marvin Lechner         : AUTO-CI (C++ implementation), FIC-MRCC
   Dagmar Lenk            : GEPOL surface, SMD
   Dimitrios Liakos       : Extrapolation schemes; Compound Job, initial MDCI parallelization
   Dimitrios Manganas     : Further ROCIS development; embedding schemes
   Dimitrios Pantazis     : SARC Basis sets
   Anastasios Papadopoulos: AUTO-CI, single reference methods and gradients
   Taras Petrenko         : DFT Hessian,TD-DFT gradient, ASA, ECA, R-Raman, ABS, FL, XAS/XES, NRVS
   Peter Pinski           : DLPNO-MP2, DLPNO-MP2 Gradient
   Christoph Reimann      : Effective Core Potentials
   Marius Retegan         : Local ZFS, SOC
   Christoph Riplinger    : Optimizer, TS searches, QM/MM, DLPNO-CCSD(T), (RO)-DLPNO pert. Triples
   Tobias Risthaus        : Range-separated hybrids, TD-DFT gradient, RPA, STAB
   Michael Roemelt        : Original ROCIS implementation
   Masaaki Saitow         : Open-shell DLPNO-CCSD energy and density
   Barbara Sandhoefer     : DKH picture change effects
   Avijit Sen             : IP-ROCIS
   Kantharuban Sivalingam : CASSCF convergence, NEVPT2, FIC-MRCI
   Bernardo de Souza      : ESD, SOC TD-DFT
   Georgi Stoychev        : AutoAux, RI-MP2 NMR, DLPNO-MP2 response
   Willem Van den Heuvel  : Paramagnetic NMR
   Boris Wezisla          : Elementary symmetry handling
   Frank Wennmohs         : Technical directorship


 We gratefully acknowledge several colleagues who have allowed us to
 interface, adapt or use parts of their codes:
   Stefan Grimme, W. Hujo, H. Kruse, P. Pracht,  : VdW corrections, initial TS optimization,
                  C. Bannwarth, S. Ehlert          DFT functionals, gCP, sTDA/sTD-DF
   Ed Valeev, F. Pavosevic, A. Kumar             : LibInt (2-el integral package), F12 methods
   Garnet Chan, S. Sharma, J. Yang, R. Olivares  : DMRG
   Ulf Ekstrom                                   : XCFun DFT Library
   Mihaly Kallay                                 : mrcc  (arbitrary order and MRCC methods)
   Jiri Pittner, Ondrej Demel                    : Mk-CCSD
   Frank Weinhold                                : gennbo (NPA and NBO analysis)
   Christopher J. Cramer and Donald G. Truhlar   : smd solvation model
   Lars Goerigk                                  : TD-DFT with DH, B97 family of functionals
   V. Asgeirsson, H. Jonsson                     : NEB implementation
   FAccTs GmbH                                   : IRC, NEB, NEB-TS, DLPNO-Multilevel, CI-OPT
                                                   MM, QMMM, 2- and 3-layer-ONIOM, Crystal-QMMM,
                                                   LR-CPCM, SF, NACMEs, symmetry and pop. for TD-DFT,
                                                   nearIR, NL-DFT gradient (VV10), updates on ESD,
                                                   ML-optimized integration grids
   S Lehtola, MJT Oliveira, MAL Marques          : LibXC Library
   Liviu Ungur et al                             : ANISO software


 Your calculation uses the libint2 library for the computation of 2-el integrals
 For citations please refer to: http://libint.valeyev.net

 Your ORCA version has been built with support for libXC version: 5.1.0
 For citations please refer to: https://tddft.org/programs/libxc/

 This ORCA versions uses:
   CBLAS   interface :  Fast vector & matrix operations
   LAPACKE interface :  Fast linear algebra routines
   SCALAPACK package :  Parallel linear algebra routines
   Shared memory     :  Shared parallel matrices
   BLAS/LAPACK       :  OpenBLAS 0.3.15  USE64BITINT DYNAMIC_ARCH NO_AFFINITY Prescott SINGLE_THREADED
        Core in use  :  Prescott
   Copyright (c) 2011-2014, The OpenBLAS Project


Your calculation utilizes the atom-pairwise dispersion correction
with the Becke-Johnson damping scheme (D3BJ)
Cite in your paper:
S.Grimme, S.Ehrlich, L.Goerigk, J Comput Chem, (2011), 32, 1456–1465 
S.Grimme, J.Antony, S.Ehrlich and H.Krieg, J.Chem.Phys., 132, (2010), 154104 
   

================================================================================

----- Orbital basis set information -----
Your calculation utilizes the basis: def2-TZVP
   F. Weigend and R. Ahlrichs, Phys. Chem. Chem. Phys. 7, 3297 (2005).

----- AuxJ basis set information -----
Your calculation utilizes the auxiliary basis: def2/J
   F. Weigend, Phys. Chem. Chem. Phys. 8, 1057 (2006).

================================================================================
                                        WARNINGS
                       Please study these warnings very carefully!
================================================================================

WARNING: Gradients needed for Numerical Frequencies
  ===> : Setting RunTyp to EnGrad

INFO   : the flag for use of the SHARK integral package has been found!

================================================================================
                                       INPUT FILE
================================================================================
NAME = /home/rudenko/mop_saddle_orca_4_serv/for_orca/m-clc6h4chno2ch3_oh/orca/start_freq_D/start_f_D.inp
|  1> !  NUMFREQ B3LYP def2-TZVP CPCM D3 
|  2> %pal nprocs 102 end
|  3> %cpcm epsilon 78.4 end 
|  4> *xyz -1 1 
|  5> C   0.75464106988156 3.32776814511743 2.00171725625088
|  6> C   1.30896856093744 2.05249101071087 1.95868500493507
|  7> C   0.49370121555443 0.94114154063679 1.76418940190437
|  8> C   -0.88246861842619 1.11384997052822 1.61144241001311
|  9> C   -1.41387817357137 2.39298569791523 1.64718460027702
| 10> C   -0.61345589005481 3.51131813944539 1.84377583699424
| 11> H   1.39190935255354 4.18932141608431 2.1546946561778
| 12> H   2.37586868177493 1.91045621197386 2.07397801186246
| 13> H   -1.53458729995063 0.2635391336305 1.4602840577132
| 14> Cl   -3.1430058641592 2.60294701590368 1.44272207453936
| 15> H   -1.05181038799267 4.49917885159294 1.87088055683062
| 16> C   1.09263010782792 -0.44487238259075 1.76655212130059
| 17> C   0.60970324088863 -1.32142622922739 2.90556614907726
| 18> H   1.10347345873824 -2.29169666740609 2.88964464848915
| 19> H   -0.46989472429659 -1.47101262089898 2.87807531950069
| 20> H   0.86475936491457 -0.82147131881858 3.84076914937691
| 21> N   0.83543845301885 -1.0981000099206 0.41717995022083
| 22> O   1.12849411789138 -0.45061170011752 -0.5790050402943
| 23> O   0.40197107120892 -2.23895415026277 0.37651726209398
| 24> H   2.20041190619189 -0.36105583689524 1.78308866395 M = 2
| 25> O   6.48871184531891 -0.85001615720616 2.14298172648373
| 26> H   6.93543040646553 -0.14043591213989 2.61670171725832
| 27> H   5.51779769108416 -0.50708894708206 1.98281441887493
| 28> H   4.06328236076692 0.56467312332117 1.05144911348795
| 29> O   4.0937108334335 -0.0603152042944 1.78440016268165
| 30> *
| 31> 
| 32>                          ****END OF INPUT****
================================================================================

                     *******************************
                     * Energy+Gradient Calculation *
                     *******************************

---------------------------------
CARTESIAN COORDINATES (ANGSTROEM)
---------------------------------
  C      0.754641    3.327768    2.001717
  C      1.308969    2.052491    1.958685
  C      0.493701    0.941142    1.764189
  C     -0.882469    1.113850    1.611442
  C     -1.413878    2.392986    1.647185
  C     -0.613456    3.511318    1.843776
  H      1.391909    4.189321    2.154695
  H      2.375869    1.910456    2.073978
  H     -1.534587    0.263539    1.460284
  Cl    -3.143006    2.602947    1.442722
  H     -1.051810    4.499179    1.870881
  C      1.092630   -0.444872    1.766552
  C      0.609703   -1.321426    2.905566
  H      1.103473   -2.291697    2.889645
  H     -0.469895   -1.471013    2.878075
  H      0.864759   -0.821471    3.840769
  N      0.835438   -1.098100    0.417180
  O      1.128494   -0.450612   -0.579005
  O      0.401971   -2.238954    0.376517
  H      2.200412   -0.361056    1.783089
  O      6.488712   -0.850016    2.142982
  H      6.935430   -0.140436    2.616702
  H      5.517798   -0.507089    1.982814
  H      4.063282    0.564673    1.051449
  O      4.093711   -0.060315    1.784400

----------------------------
CARTESIAN COORDINATES (A.U.)
----------------------------
  NO LB      ZA    FRAG     MASS         X           Y           Z
   0 C     6.0000    0    12.011    1.426065    6.288570    3.782697
   1 C     6.0000    0    12.011    2.473592    3.878646    3.701378
   2 C     6.0000    0    12.011    0.932960    1.778500    3.333835
   3 C     6.0000    0    12.011   -1.667624    2.104871    3.045185
   4 C     6.0000    0    12.011   -2.671843    4.522088    3.112728
   5 C     6.0000    0    12.011   -1.159264    6.635430    3.484231
   6 H     1.0000    0     1.008    2.630327    7.916670    4.071783
   7 H     1.0000    0     1.008    4.489741    3.610239    3.919250
   8 H     1.0000    0     1.008   -2.899950    0.498017    2.759537
   9 Cl   17.0000    0    35.453   -5.939420    4.918857    2.726350
  10 H     1.0000    0     1.008   -1.987634    8.502216    3.535452
  11 C     6.0000    0    12.011    2.064772   -0.840687    3.338300
  12 C     6.0000    0    12.011    1.152172   -2.497134    5.490724
  13 H     1.0000    0     1.008    2.085263   -4.330679    5.460637
  14 H     1.0000    0     1.008   -0.887972   -2.779811    5.438774
  15 H     1.0000    0     1.008    1.634158   -1.552356    7.258002
  16 N     7.0000    0    14.007    1.578750   -2.075108    0.788356
  17 O     8.0000    0    15.999    2.132545   -0.851533   -1.094161
  18 O     8.0000    0    15.999    0.759615   -4.231010    0.711515
  19 H     1.0000    0     2.000    4.158176   -0.682297    3.369549
  20 O     8.0000    0    15.999   12.261888   -1.606298    4.049649
  21 H     1.0000    0     1.008   13.106064   -0.265385    4.944850
  22 H     1.0000    0     1.008   10.427126   -0.958259    3.746976
  23 H     1.0000    0     1.008    7.678491    1.067078    1.986951
  24 O     8.0000    0    15.999    7.735992   -0.113979    3.372028

--------------------------------
INTERNAL COORDINATES (ANGSTROEM)
--------------------------------
 C      0   0   0     0.000000000000     0.00000000     0.00000000
 C      1   0   0     1.391209010729     0.00000000     0.00000000
 C      2   1   0     1.391972351981   120.18673925     0.00000000
 C      3   2   1     1.395350585783   119.61144934     0.05822928
 C      4   3   2     1.385590786828   119.32049885     0.43041730
 C      5   4   3     1.389241302324   121.72388597   359.39873954
 H      1   2   3     1.082491102828   119.95876276   179.90550314
 H      2   1   3     1.082470428853   120.64409351   179.91127190
 H      4   3   2     1.082190436850   120.82016796   180.06733457
 Cl     5   4   3     1.753787686649   119.05482443   179.55649887
 H      6   5   4     1.081091170209   120.36489578   180.19152654
 C      3   2   1     1.509886087036   120.02327460   182.14897816
 C     12   3   2     1.516218308931   113.92383627   115.46197376
 H     13  12   3     1.088800829087   111.08513257   182.60052856
 H     13  12   3     1.090258501786   112.07194416    60.33357377
 H     13  12   3     1.090693903263   107.73673063   301.13854190
 N     12   3   2     1.521071706559   109.01162065   240.51839103
 O     17  12   3     1.223726795234   117.02931560    50.11736061
 O     17  12   3     1.221104252238   119.39265047   227.46501272
 H     12   3   2     1.111071187351   109.04264751   351.53167555
 O     20  12   3     4.331064716581   168.49716824   159.70431785
 H     21  20  12     0.963053594937   114.64333963   229.88205356
 H     21  20  12     1.042078179775    13.48438212   181.28120061
 H     23  21  22     2.032665765383   155.59431061    79.47155953
 O     24  23  21     0.963718601107    44.51904071   178.26015012

---------------------------
INTERNAL COORDINATES (A.U.)
---------------------------
 C      0   0   0     0.000000000000     0.00000000     0.00000000
 C      1   0   0     2.629004025321     0.00000000     0.00000000
 C      2   1   0     2.630446531235   120.18673925     0.00000000
 C      3   2   1     2.636830467937   119.61144934     0.05822928
 C      4   3   2     2.618387120789   119.32049885     0.43041730
 C      5   4   3     2.625285595324   121.72388597   359.39873954
 H      1   2   3     2.045611726751   119.95876276   179.90550314
 H      2   1   3     2.045572658601   120.64409351   179.91127190
 H      4   3   2     2.045043550394   120.82016796   180.06733457
 Cl     5   4   3     3.314178424809   119.05482443   179.55649887
 H      6   5   4     2.042966237496   120.36489578   180.19152654
 C      3   2   1     2.853271197915   120.02327460   182.14897816
 C     12   3   2     2.865237363117   113.92383627   115.46197376
 H     13  12   3     2.057535381360   111.08513257   182.60052856
 H     13  12   3     2.060289983554   112.07194416    60.33357377
 H     13  12   3     2.061112773104   107.73673063   301.13854190
 N     12   3   2     2.874408955453   109.01162065   240.51839103
 O     17  12   3     2.312508505733   117.02931560    50.11736061
 O     17  12   3     2.307552617697   119.39265047   227.46501272
 H     12   3   2     2.099620259384   109.04264751   351.53167555
 O     20  12   3     8.184526182628   168.49716824   159.70431785
 H     21  20  12     1.819907546719   114.64333963   229.88205356
 H     21  20  12     1.969242369910    13.48438212   181.28120061
 H     23  21  22     3.841181618372   155.59431061    79.47155953
 O     24  23  21     1.821164226257    44.51904071   178.26015012

---------------------
BASIS SET INFORMATION
---------------------
There are 5 groups of distinct atoms

 Group   1 Type C   : 11s6p2d1f contracted to 5s3p2d1f pattern {62111/411/11/1}
 Group   2 Type H   : 5s1p contracted to 3s1p pattern {311/1}
 Group   3 Type Cl  : 14s9p3d1f contracted to 5s5p2d1f pattern {73211/51111/21/1}
 Group   4 Type N   : 11s6p2d1f contracted to 5s3p2d1f pattern {62111/411/11/1}
 Group   5 Type O   : 11s6p2d1f contracted to 5s3p2d1f pattern {62111/411/11/1}

Atom   0C    basis set group =>   1
Atom   1C    basis set group =>   1
Atom   2C    basis set group =>   1
Atom   3C    basis set group =>   1
Atom   4C    basis set group =>   1
Atom   5C    basis set group =>   1
Atom   6H    basis set group =>   2
Atom   7H    basis set group =>   2
Atom   8H    basis set group =>   2
Atom   9Cl   basis set group =>   3
Atom  10H    basis set group =>   2
Atom  11C    basis set group =>   1
Atom  12C    basis set group =>   1
Atom  13H    basis set group =>   2
Atom  14H    basis set group =>   2
Atom  15H    basis set group =>   2
Atom  16N    basis set group =>   4
Atom  17O    basis set group =>   5
Atom  18O    basis set group =>   5
Atom  19H    basis set group =>   2
Atom  20O    basis set group =>   5
Atom  21H    basis set group =>   2
Atom  22H    basis set group =>   2
Atom  23H    basis set group =>   2
Atom  24O    basis set group =>   5
---------------------------------
AUXILIARY/J BASIS SET INFORMATION
---------------------------------
There are 5 groups of distinct atoms

 Group   1 Type C   : 12s5p4d2f1g contracted to 6s4p3d1f1g pattern {711111/2111/211/2/1}
 Group   2 Type H   : 5s2p1d contracted to 3s1p1d pattern {311/2/1}
 Group   3 Type Cl  : 14s5p5d2f1g contracted to 8s4p3d1f1g pattern {71111111/2111/311/2/1}
 Group   4 Type N   : 12s5p4d2f1g contracted to 6s4p3d1f1g pattern {711111/2111/211/2/1}
 Group   5 Type O   : 12s5p4d2f1g contracted to 6s4p3d1f1g pattern {711111/2111/211/2/1}

Atom   0C    basis set group =>   1
Atom   1C    basis set group =>   1
Atom   2C    basis set group =>   1
Atom   3C    basis set group =>   1
Atom   4C    basis set group =>   1
Atom   5C    basis set group =>   1
Atom   6H    basis set group =>   2
Atom   7H    basis set group =>   2
Atom   8H    basis set group =>   2
Atom   9Cl   basis set group =>   3
Atom  10H    basis set group =>   2
Atom  11C    basis set group =>   1
Atom  12C    basis set group =>   1
Atom  13H    basis set group =>   2
Atom  14H    basis set group =>   2
Atom  15H    basis set group =>   2
Atom  16N    basis set group =>   4
Atom  17O    basis set group =>   5
Atom  18O    basis set group =>   5
Atom  19H    basis set group =>   2
Atom  20O    basis set group =>   5
Atom  21H    basis set group =>   2
Atom  22H    basis set group =>   2
Atom  23H    basis set group =>   2
Atom  24O    basis set group =>   5


           ************************************************************
           *        Program running with 102 parallel MPI-processes   *
           *              working on a common directory               *
           ************************************************************
------------------------------------------------------------------------------
                           ORCA GTO INTEGRAL CALCULATION
                           -- RI-GTO INTEGRALS CHOSEN --
------------------------------------------------------------------------------
------------------------------------------------------------------------------
                   ___                                                        
                  /   \      - P O W E R E D   B Y -                         
                 /     \                                                     
                 |  |  |   _    _      __       _____    __    __             
                 |  |  |  | |  | |    /  \     |  _  \  |  |  /  |          
                  \  \/   | |  | |   /    \    | | | |  |  | /  /          
                 / \  \   | |__| |  /  /\  \   | |_| |  |  |/  /          
                |  |  |   |  __  | /  /__\  \  |    /   |      \           
                |  |  |   | |  | | |   __   |  |    \   |  |\   \          
                \     /   | |  | | |  |  |  |  | |\  \  |  | \   \       
                 \___/    |_|  |_| |__|  |__|  |_| \__\ |__|  \__/        
                                                                              
                      - O R C A' S   B I G   F R I E N D -                    
                                      &                                       
                       - I N T E G R A L  F E E D E R -                       
                                                                              
 v1 FN, 2020, v2 2021                                                         
------------------------------------------------------------------------------


Reading SHARK input file /home/rudenko/mop_saddle_orca_4_serv/for_orca/m-clc6h4chno2ch3_oh/orca/start_freq_D/start_f_D.SHARKINP.tmp ... ok
----------------------
SHARK INTEGRAL PACKAGE
----------------------

Number of atoms                             ...     25
Number of basis functions                   ...    506
Number of shells                            ...    200
Maximum angular momentum                    ...      3
Integral batch strategy                     ... SHARK/LIBINT Hybrid
RI-J (if used) integral strategy            ... SPLIT-RIJ (Revised 2003 algorithm where possible)
Printlevel                                  ...      1
Contraction scheme used                     ... SEGMENTED contraction
Coulomb Range Separation                    ... NOT USED
Exchange Range Separation                   ... NOT USED
Finite Nucleus Model                        ... NOT USED
Auxiliary Coulomb fitting basis             ... AVAILABLE
   # of basis functions in Aux-J            ...    809
   # of shells in Aux-J                     ...    267
   Maximum angular momentum in Aux-J        ...      4
Auxiliary J/K fitting basis                 ... NOT available
Auxiliary Correlation fitting basis         ... NOT available
Auxiliary 'external' fitting basis          ... NOT available
Integral threshold                          ...     2.500000e-11
Primitive cut-off                           ...     2.500000e-12
Primitive pair pre-selection threshold      ...     2.500000e-12

Calculating pre-screening integrals         ... done (  0.1 sec) Dimension = 200
Organizing shell pair data                  ... done (  0.4 sec)
Shell pair information
Total number of shell pairs                 ...     20100
Shell pairs after pre-screening             ...     15246
Total number of primitive shell pairs       ...     62836
Primitive shell pairs kept                  ...     32662
          la=0 lb=0:   3946 shell pairs
          la=1 lb=0:   4412 shell pairs
          la=1 lb=1:   1264 shell pairs
          la=2 lb=0:   2146 shell pairs
          la=2 lb=1:   1205 shell pairs
          la=2 lb=2:    309 shell pairs
          la=3 lb=0:   1017 shell pairs
          la=3 lb=1:    586 shell pairs
          la=3 lb=2:    286 shell pairs
          la=3 lb=3:     75 shell pairs

Calculating one electron integrals          ... done (  0.1 sec)
Calculating RI/J V-Matrix + Cholesky decomp.... done (  0.1 sec)
Calculating Nuclear repulsion               ... done (  0.0 sec) ENN=    970.928847510881 Eh

SHARK setup successfully completed in   1.0 seconds

Maximum memory used throughout the entire GTOINT-calculation: 29.2 MB


           ************************************************************
           *        Program running with 102 parallel MPI-processes   *
           *              working on a common directory               *
           ************************************************************
-------------------------------------------------------------------------------
                                 ORCA SCF
-------------------------------------------------------------------------------

------------
SCF SETTINGS
------------
Hamiltonian:
 Density Functional     Method          .... DFT(GTOs)
 Exchange Functional    Exchange        .... B88
   X-Alpha parameter    XAlpha          ....  0.666667
   Becke's b parameter  XBeta           ....  0.004200
 Correlation Functional Correlation     .... LYP
 LDA part of GGA corr.  LDAOpt          .... VWN-5
 Gradients option       PostSCFGGA      .... off
 Hybrid DFT is turned on
   Fraction HF Exchange ScalHFX         ....  0.200000
   Scaling of DF-GGA-X  ScalDFX         ....  0.720000
   Scaling of DF-GGA-C  ScalDFC         ....  0.810000
   Scaling of DF-LDA-C  ScalLDAC        ....  1.000000
   Perturbative correction              ....  0.000000
   Density functional embedding theory  .... OFF
   NL short-range parameter             ....  4.800000
 RI-approximation to the Coulomb term is turned on
   Number of AuxJ basis functions       .... 809
   RIJ-COSX (HFX calculated with COS-X)).... on


General Settings:
 Integral files         IntName         .... /home/rudenko/mop_saddle_orca_4_serv/for_orca/m-clc6h4chno2ch3_oh/orca/start_freq_D/start_f_D
 Hartree-Fock type      HFTyp           .... RHF
 Total Charge           Charge          ....   -1
 Multiplicity           Mult            ....    1
 Number of Electrons    NEL             ....  116
 Basis Dimension        Dim             ....  506
 Nuclear Repulsion      ENuc            ....    970.9288475109 Eh

Convergence Acceleration:
 DIIS                   CNVDIIS         .... on
   Start iteration      DIISMaxIt       ....    12
   Startup error        DIISStart       ....  0.200000
   # of expansion vecs  DIISMaxEq       ....     5
   Bias factor          DIISBfac        ....   1.050
   Max. coefficient     DIISMaxC        ....  10.000
 Trust-Rad. Augm. Hess. CNVTRAH         .... auto
   Auto Start mean grad. ratio tolernc. ....  1.125000
   Auto Start start iteration           ....    20
   Auto Start num. interpolation iter.  ....    10
   Max. Number of Micro iterations      ....    16
   Max. Number of Macro iterations      .... Maxiter - #DIIS iter
   Number of Davidson start vectors     ....     2
   Converg. threshold I  (grad. norm)   ....   1.000e-05
   Converg. threshold II (energy diff.) ....   1.000e-08
   Grad. Scal. Fac. for Micro threshold ....   0.100
   Minimum threshold for Micro iter.    ....   0.010
   NR start threshold (gradient norm)   ....   0.001
   Initial trust radius                 ....   0.400
   Minimum AH scaling param. (alpha)    ....   1.000
   Maximum AH scaling param. (alpha)    .... 1000.000
   Orbital update algorithm             .... Taylor
   White noise on init. David. guess    .... on
   Maximum white noise                  ....   0.010
   Quad. conv. algorithm                .... NR
 SOSCF                  CNVSOSCF        .... on
   Start iteration      SOSCFMaxIt      ....   150
   Startup grad/error   SOSCFStart      ....  0.003300
 Level Shifting         CNVShift        .... on
   Level shift para.    LevelShift      ....    0.2500
   Turn off err/grad.   ShiftErr        ....    0.0010
 Zerner damping         CNVZerner       .... off
 Static damping         CNVDamp         .... on
   Fraction old density DampFac         ....    0.7000
   Max. Damping (<1)    DampMax         ....    0.9800
   Min. Damping (>=0)   DampMin         ....    0.0000
   Turn off err/grad.   DampErr         ....    0.1000
 Fernandez-Rico         CNVRico         .... off

SCF Procedure:
 Maximum # iterations   MaxIter         ....   125
 SCF integral mode      SCFMode         .... Direct
   Integral package                     .... SHARK and LIBINT hybrid scheme
 Reset frequency        DirectResetFreq ....    20
 Integral Threshold     Thresh          ....  2.500e-11 Eh
 Primitive CutOff       TCut            ....  2.500e-12 Eh

Convergence Tolerance:
 Convergence Check Mode ConvCheckMode   .... Total+1el-Energy
 Convergence forced     ConvForced      .... 0
 Energy Change          TolE            ....  1.000e-08 Eh
 1-El. energy change                    ....  1.000e-05 Eh
 Orbital Gradient       TolG            ....  1.000e-05
 Orbital Rotation angle TolX            ....  1.000e-05
 DIIS Error             TolErr          ....  5.000e-07


Diagonalization of the overlap matrix:
Smallest eigenvalue                        ... 7.824e-06
Time for diagonalization                   ...    0.133 sec
Threshold for overlap eigenvalues          ... 1.000e-08
Number of eigenvalues below threshold      ... 0
Time for construction of square roots      ...    0.175 sec
Total time needed                          ...    0.311 sec

Time for model grid setup =    0.184 sec

------------------------------
INITIAL GUESS: MODEL POTENTIAL
------------------------------
Loading Hartree-Fock densities                     ... done
Calculating cut-offs                               ... done
Initializing the effective Hamiltonian             ... done
Setting up the integral package (SHARK)            ... done
Starting the Coulomb interaction                   ... done (   0.0 sec)
Reading the grid                                   ... done
Mapping shells                                     ... done
Starting the XC term evaluation                    ... done (   0.0 sec)
  promolecular density results
     # of electrons  =    114.989133267
     EX              =   -111.229334407
     EC              =     -4.073667955
     EX+EC           =   -115.303002362
Transforming the Hamiltonian                       ... done (   0.2 sec)
Diagonalizing the Hamiltonian                      ... done (   0.1 sec)
Back transforming the eigenvectors                 ... done (   0.0 sec)
Now organizing SCF variables                       ... done
                      ------------------
                      INITIAL GUESS DONE (   0.7 sec)
                      ------------------
-------------------
DFT GRID GENERATION
-------------------

General Integration Accuracy     IntAcc      ... 4.388
Radial Grid Type                 RadialGrid  ... OptM3 with GC (2021)
Angular Grid (max. ang.)         AngularGrid ... 4 (Lebedev-302)
Angular grid pruning method      GridPruning ... 4 (adaptive)
Weight generation scheme         WeightScheme... Becke
Basis function cutoff            BFCut       ... 1.0000e-11
Integration weight cutoff        WCut        ... 1.0000e-14
Angular grids for H and He will be reduced by one unit
Partially contracted basis set               ... off
Rotationally invariant grid construction     ... off

Total number of grid points                  ...   120831
Total number of batches                      ...     1904
Average number of points per batch           ...       63
Average number of grid points per atom       ...     4833
Time for grid setup =    0.990 sec

--------------------
COSX GRID GENERATION
--------------------

GRIDX 1
-------
General Integration Accuracy     IntAcc      ... 3.816
Radial Grid Type                 RadialGrid  ... OptM3 with GC (2021)
Angular Grid (max. ang.)         AngularGrid ... 1 (Lebedev-50)
Angular grid pruning method      GridPruning ... 4 (adaptive)
Weight generation scheme         WeightScheme... Becke
Basis function cutoff            BFCut       ... 1.0000e-11
Integration weight cutoff        WCut        ... 1.0000e-14
Angular grids for H and He will be reduced by one unit
Partially contracted basis set               ... on
Rotationally invariant grid construction     ... off

Total number of grid points                  ...    15319
Total number of batches                      ...      250
Average number of points per batch           ...       61
Average number of grid points per atom       ...      613
UseSFitting                                  ... on

GRIDX 2
-------
General Integration Accuracy     IntAcc      ... 4.020
Radial Grid Type                 RadialGrid  ... OptM3 with GC (2021)
Angular Grid (max. ang.)         AngularGrid ... 2 (Lebedev-110)
Angular grid pruning method      GridPruning ... 4 (adaptive)
Weight generation scheme         WeightScheme... Becke
Basis function cutoff            BFCut       ... 1.0000e-11
Integration weight cutoff        WCut        ... 1.0000e-14
Angular grids for H and He will be reduced by one unit
Partially contracted basis set               ... on
Rotationally invariant grid construction     ... off

Total number of grid points                  ...    33439
Total number of batches                      ...      536
Average number of points per batch           ...       62
Average number of grid points per atom       ...     1338
UseSFitting                                  ... on

GRIDX 3
-------
General Integration Accuracy     IntAcc      ... 4.338
Radial Grid Type                 RadialGrid  ... OptM3 with GC (2021)
Angular Grid (max. ang.)         AngularGrid ... 3 (Lebedev-194)
Angular grid pruning method      GridPruning ... 4 (adaptive)
Weight generation scheme         WeightScheme... Becke
Basis function cutoff            BFCut       ... 1.0000e-11
Integration weight cutoff        WCut        ... 1.0000e-14
Angular grids for H and He will be reduced by one unit
Partially contracted basis set               ... on
Rotationally invariant grid construction     ... off

Total number of grid points                  ...    73924
Total number of batches                      ...     1167
Average number of points per batch           ...       63
Average number of grid points per atom       ...     2957
UseSFitting                                  ... on

Time for X-Grid setup             =    1.413 sec


--------------------
CPCM SOLVATION MODEL
--------------------
CPCM parameters:
  Epsilon                                         ...      78.4000
  Refrac                                          ...       1.3300
  Rsolv                                           ...       1.3000
  Surface type                                    ... GAUSSIAN VDW
  Epsilon function type                           ...         CPCM
Radii:
 Radius for C  used is    3.8550 Bohr (=   2.0400 Ang.)
 Radius for H  used is    2.4944 Bohr (=   1.3200 Ang.)
 Radius for Cl used is    3.9684 Bohr (=   2.1000 Ang.)
 Radius for N  used is    3.5149 Bohr (=   1.8600 Ang.)
 Radius for O  used is    3.4469 Bohr (=   1.8240 Ang.)
Calculating surface                               ...        done! (  0.0s)
GEPOL surface points                              ...         1448
GEPOL Volume                                      ...    1726.9262
GEPOL Surface-area                                ...     982.2740
Calculating surface distance matrix               ...        done! (  0.1s)
Performing Cholesky decomposition & store         ...        done! (  0.5s)
Overall time for CPCM initialization              ...                 0.5s
--------------
SCF ITERATIONS
--------------
ITER       Energy         Delta-E        Max-DP      RMS-DP      [F,P]     Damp
               ***  Starting incremental Fock matrix formation  ***
  0  -1126.6323250843   0.000000000000 1.05327547  0.00768457  0.4480211 0.7000
  1  -1126.9341673314  -0.301842247119 0.82688879  0.00593579  0.1587561 0.7000
                               ***Turning on DIIS***
  2  -1127.0329248673  -0.098757535908 0.43402854  0.00371923  0.0376977 0.0000
  3  -1127.2133785944  -0.180453727098 0.80226461  0.00567851  0.0905232 0.0000
  4  -1127.2445553024  -0.031176707949 0.11631512  0.00088065  0.0245985 0.0000
  5  -1127.2472493293  -0.002694026946 0.04422220  0.00036383  0.0042793 0.0000
                      *** Initiating the SOSCF procedure ***
                           *** Shutting down DIIS ***
                      *** Re-Reading the Fockian *** 
                      *** Removing any level shift *** 
ITER      Energy       Delta-E        Grad      Rot      Max-DP    RMS-DP
  6  -1127.24737607  -0.0001267448  0.001139  0.001139  0.013989  0.000122
               *** Restarting incremental Fock matrix formation ***
  7  -1127.24737991  -0.0000038399  0.000698  0.004811  0.004952  0.000051
  8  -1127.24738849  -0.0000085792  0.000312  0.002920  0.008155  0.000066
  9  -1127.24739186  -0.0000033680  0.000205  0.001519  0.006131  0.000049
 10  -1127.24739296  -0.0000010959  0.000083  0.000390  0.000797  0.000008
 11  -1127.24739289   0.0000000684  0.000128  0.000416  0.001520  0.000013
 12  -1127.24739314  -0.0000002539  0.000052  0.000131  0.000870  0.000008
 13  -1127.24739308   0.0000000611  0.000071  0.000101  0.000311  0.000003
 14  -1127.24739317  -0.0000000914  0.000003  0.000012  0.002338  0.000019
 15  -1127.24739317  -0.0000000013  0.000004  0.000009  0.000882  0.000007
                  ***Gradient check signals convergence***
              ***Rediagonalizing the Fockian in SOSCF/NRSCF***

               *****************************************************
               *                     SUCCESS                       *
               *           SCF CONVERGED AFTER  16 CYCLES          *
               *****************************************************

Old exchange energy                            =    -22.513900747 Eh
New exchange energy                            =    -22.513868110 Eh
Exchange energy change after final integration =      0.000032637 Eh
Total energy after final integration           =  -1127.247360527 Eh
Final COS-X integration done in                =     1.664 sec

----------------
TOTAL SCF ENERGY
----------------

Total Energy       :        -1127.24736053 Eh          -30673.96011 eV

Components:
Nuclear Repulsion  :          970.92884751 Eh           26420.31712 eV
Electronic Energy  :        -2098.17620804 Eh          -57094.27724 eV
One Electron Energy:        -3490.02416967 Eh          -94968.38576 eV
Two Electron Energy:         1391.84796164 Eh           37874.10852 eV
Max COSX asymmetry :            0.00000199 Eh               0.00005 eV
CPCM Dielectric    :           -0.10703850 Eh              -2.91267 eV

Virial components:
Potential Energy   :        -2251.17551486 Eh          -61257.60004 eV
Kinetic Energy     :         1123.92815433 Eh           30583.63992 eV
Virial Ratio       :            2.00295322


DFT components:
N(Alpha)           :       57.999940348359 electrons
N(Beta)            :       57.999940348359 electrons
N(Total)           :      115.999880696719 electrons
E(X)               :      -89.576574162576 Eh       
E(C)               :       -4.834356306709 Eh       
E(XC)              :      -94.410930469285 Eh       
DFET-embed. en.    :        0.000000000000 Eh       
CPCM Solvation Model Properties:
Surface-charge          :            0.97048775
Charge-correction       :           -0.00375321 Eh              -0.10213 eV
Free-energy (cav+disp)  :  This term is not implemented in the current solvation scheme

---------------
SCF CONVERGENCE
---------------

  Last Energy change         ...    9.9790e-09  Tolerance :   1.0000e-08
  Last MAX-Density change    ...    2.6645e-15  Tolerance :   1.0000e-07
  Last RMS-Density change    ...    2.0036e-17  Tolerance :   5.0000e-09
  Last Orbital Gradient      ...    8.6629e-07  Tolerance :   1.0000e-05
  Last Orbital Rotation      ...    3.3736e-06  Tolerance :   1.0000e-05

             **** THE GBW FILE WAS UPDATED (/home/rudenko/mop_saddle_orca_4_serv/for_orca/m-clc6h4chno2ch3_oh/orca/start_freq_D/start_f_D.gbw) ****
             **** DENSITY /home/rudenko/mop_saddle_orca_4_serv/for_orca/m-clc6h4chno2ch3_oh/orca/start_freq_D/start_f_D.scfp WAS UPDATED ****
             **** ENERGY FILE WAS UPDATED (/home/rudenko/mop_saddle_orca_4_serv/for_orca/m-clc6h4chno2ch3_oh/orca/start_freq_D/start_f_D.en.tmp) ****
             **** THE GBW FILE WAS UPDATED (/home/rudenko/mop_saddle_orca_4_serv/for_orca/m-clc6h4chno2ch3_oh/orca/start_freq_D/start_f_D.gbw) ****
             **** DENSITY /home/rudenko/mop_saddle_orca_4_serv/for_orca/m-clc6h4chno2ch3_oh/orca/start_freq_D/start_f_D.scfp WAS UPDATED ****
----------------
ORBITAL ENERGIES
----------------

  NO   OCC          E(Eh)            E(eV) 
   0   2.0000    -101.528158     -2762.7216 
   1   2.0000     -19.164607      -521.4955 
   2   2.0000     -19.160834      -521.3928 
   3   2.0000     -19.066696      -518.8312 
   4   2.0000     -19.017343      -517.4882 
   5   2.0000     -14.545019      -395.7901 
   6   2.0000     -10.237873      -278.5867 
   7   2.0000     -10.218858      -278.0693 
   8   2.0000     -10.195570      -277.4356 
   9   2.0000     -10.185951      -277.1738 
  10   2.0000     -10.184896      -277.1451 
  11   2.0000     -10.182105      -277.0692 
  12   2.0000     -10.176605      -276.9195 
  13   2.0000     -10.163750      -276.5697 
  14   2.0000      -9.460300      -257.4279 
  15   2.0000      -7.221605      -196.5098 
  16   2.0000      -7.213500      -196.2893 
  17   2.0000      -7.213172      -196.2804 
  18   2.0000      -1.232673       -33.5427 
  19   2.0000      -1.058829       -28.8122 
  20   2.0000      -0.946697       -25.7609 
  21   2.0000      -0.897179       -24.4135 
  22   2.0000      -0.863922       -23.5085 
  23   2.0000      -0.853828       -23.2338 
  24   2.0000      -0.818638       -22.2763 
  25   2.0000      -0.751978       -20.4624 
  26   2.0000      -0.735966       -20.0266 
  27   2.0000      -0.696019       -18.9396 
  28   2.0000      -0.631959       -17.1965 
  29   2.0000      -0.608145       -16.5485 
  30   2.0000      -0.580613       -15.7993 
  31   2.0000      -0.544524       -14.8173 
  32   2.0000      -0.539126       -14.6704 
  33   2.0000      -0.522138       -14.2081 
  34   2.0000      -0.504839       -13.7374 
  35   2.0000      -0.478267       -13.0143 
  36   2.0000      -0.473461       -12.8835 
  37   2.0000      -0.456312       -12.4169 
  38   2.0000      -0.437319       -11.9000 
  39   2.0000      -0.430045       -11.7021 
  40   2.0000      -0.414394       -11.2762 
  41   2.0000      -0.401429       -10.9234 
  42   2.0000      -0.394675       -10.7397 
  43   2.0000      -0.375948       -10.2301 
  44   2.0000      -0.369153       -10.0452 
  45   2.0000      -0.360344        -9.8054 
  46   2.0000      -0.356394        -9.6980 
  47   2.0000      -0.338821        -9.2198 
  48   2.0000      -0.335083        -9.1181 
  49   2.0000      -0.323358        -8.7990 
  50   2.0000      -0.317994        -8.6530 
  51   2.0000      -0.313286        -8.5249 
  52   2.0000      -0.301547        -8.2055 
  53   2.0000      -0.270865        -7.3706 
  54   2.0000      -0.264913        -7.2087 
  55   2.0000      -0.252405        -6.8683 
  56   2.0000      -0.223083        -6.0704 
  57   2.0000      -0.217439        -5.9168 
  58   0.0000      -0.073145        -1.9904 
  59   0.0000      -0.028440        -0.7739 
  60   0.0000      -0.021543        -0.5862 
  61   0.0000       0.023363         0.6357 
  62   0.0000       0.048124         1.3095 
  63   0.0000       0.064149         1.7456 
  64   0.0000       0.080065         2.1787 
  65   0.0000       0.092139         2.5072 
  66   0.0000       0.094501         2.5715 
  67   0.0000       0.104816         2.8522 
  68   0.0000       0.107128         2.9151 
  69   0.0000       0.121826         3.3151 
  70   0.0000       0.127748         3.4762 
  71   0.0000       0.136121         3.7041 
  72   0.0000       0.137085         3.7303 
  73   0.0000       0.146397         3.9837 
  74   0.0000       0.168200         4.5769 
  75   0.0000       0.179191         4.8760 
  76   0.0000       0.184214         5.0127 
  77   0.0000       0.186871         5.0850 
  78   0.0000       0.203517         5.5380 
  79   0.0000       0.206438         5.6175 
  80   0.0000       0.212920         5.7939 
  81   0.0000       0.221910         6.0385 
  82   0.0000       0.227997         6.2041 
  83   0.0000       0.236562         6.4372 
  84   0.0000       0.243699         6.6314 
  85   0.0000       0.246705         6.7132 
  86   0.0000       0.254440         6.9237 
  87   0.0000       0.267100         7.2681 
  88   0.0000       0.270549         7.3620 
  89   0.0000       0.286440         7.7944 
  90   0.0000       0.294110         8.0032 
  91   0.0000       0.305360         8.3093 
  92   0.0000       0.310310         8.4440 
  93   0.0000       0.315186         8.5767 
  94   0.0000       0.319143         8.6843 
  95   0.0000       0.328494         8.9388 
  96   0.0000       0.334015         9.0890 
  97   0.0000       0.349337         9.5060 
  98   0.0000       0.353567         9.6211 
  99   0.0000       0.358806         9.7636 
 100   0.0000       0.362528         9.8649 
 101   0.0000       0.368188        10.0189 
 102   0.0000       0.373036        10.1508 
 103   0.0000       0.379165        10.3176 
 104   0.0000       0.388519        10.5721 
 105   0.0000       0.394737        10.7413 
 106   0.0000       0.401909        10.9365 
 107   0.0000       0.404839        11.0162 
 108   0.0000       0.414200        11.2710 
 109   0.0000       0.420717        11.4483 
 110   0.0000       0.425851        11.5880 
 111   0.0000       0.427796        11.6409 
 112   0.0000       0.439950        11.9716 
 113   0.0000       0.446555        12.1514 
 114   0.0000       0.452733        12.3195 
 115   0.0000       0.453428        12.3384 
 116   0.0000       0.460132        12.5208 
 117   0.0000       0.468948        12.7607 
 118   0.0000       0.470969        12.8157 
 119   0.0000       0.479550        13.0492 
 120   0.0000       0.487348        13.2614 
 121   0.0000       0.490421        13.3450 
 122   0.0000       0.499548        13.5934 
 123   0.0000       0.503521        13.7015 
 124   0.0000       0.512112        13.9353 
 125   0.0000       0.513725        13.9792 
 126   0.0000       0.525942        14.3116 
 127   0.0000       0.534230        14.5371 
 128   0.0000       0.555273        15.1097 
 129   0.0000       0.564593        15.3634 
 130   0.0000       0.574759        15.6400 
 131   0.0000       0.581561        15.8251 
 132   0.0000       0.584425        15.9030 
 133   0.0000       0.587662        15.9911 
 134   0.0000       0.597224        16.2513 
 135   0.0000       0.603960        16.4346 
 136   0.0000       0.607195        16.5226 
 137   0.0000       0.625222        17.0131 
 138   0.0000       0.635915        17.3041 
 139   0.0000       0.644539        17.5388 
 140   0.0000       0.664398        18.0792 
 141   0.0000       0.670257        18.2386 
 142   0.0000       0.678498        18.4629 
 143   0.0000       0.685050        18.6412 
 144   0.0000       0.691728        18.8229 
 145   0.0000       0.699084        19.0230 
 146   0.0000       0.715202        19.4616 
 147   0.0000       0.728130        19.8134 
 148   0.0000       0.742841        20.2137 
 149   0.0000       0.759955        20.6794 
 150   0.0000       0.763454        20.7746 
 151   0.0000       0.779946        21.2234 
 152   0.0000       0.784673        21.3520 
 153   0.0000       0.796494        21.6737 
 154   0.0000       0.817678        22.2501 
 155   0.0000       0.818082        22.2611 
 156   0.0000       0.820774        22.3344 
 157   0.0000       0.852191        23.1893 
 158   0.0000       0.860746        23.4221 
 159   0.0000       0.877278        23.8719 
 160   0.0000       0.889866        24.2145 
 161   0.0000       0.898112        24.4389 
 162   0.0000       0.905732        24.6462 
 163   0.0000       0.925910        25.1953 
 164   0.0000       0.932826        25.3835 
 165   0.0000       0.963268        26.2119 
 166   0.0000       0.967932        26.3388 
 167   0.0000       0.997467        27.1425 
 168   0.0000       1.005949        27.3733 
 169   0.0000       1.021386        27.7933 
 170   0.0000       1.040669        28.3180 
 171   0.0000       1.047126        28.4938 
 172   0.0000       1.059492        28.8303 
 173   0.0000       1.077103        29.3095 
 174   0.0000       1.094991        29.7962 
 175   0.0000       1.106696        30.1147 
 176   0.0000       1.125896        30.6372 
 177   0.0000       1.135058        30.8865 
 178   0.0000       1.155694        31.4480 
 179   0.0000       1.182821        32.1862 
 180   0.0000       1.196646        32.5624 
 181   0.0000       1.211434        32.9648 
 182   0.0000       1.220840        33.2207 
 183   0.0000       1.226286        33.3689 
 184   0.0000       1.242843        33.8195 
 185   0.0000       1.251712        34.0608 
 186   0.0000       1.258806        34.2539 
 187   0.0000       1.267017        34.4773 
 188   0.0000       1.270611        34.5751 
 189   0.0000       1.290910        35.1274 
 190   0.0000       1.296658        35.2839 
 191   0.0000       1.304662        35.5016 
 192   0.0000       1.330783        36.2124 
 193   0.0000       1.334813        36.3221 
 194   0.0000       1.352966        36.8161 
 195   0.0000       1.354978        36.8708 
 196   0.0000       1.370205        37.2852 
 197   0.0000       1.373576        37.3769 
 198   0.0000       1.401130        38.1267 
 199   0.0000       1.413413        38.4609 
 200   0.0000       1.421795        38.6890 
 201   0.0000       1.441814        39.2337 
 202   0.0000       1.480312        40.2813 
 203   0.0000       1.483409        40.3656 
 204   0.0000       1.487117        40.4665 
 205   0.0000       1.498109        40.7656 
 206   0.0000       1.507918        41.0325 
 207   0.0000       1.539320        41.8870 
 208   0.0000       1.542859        41.9833 
 209   0.0000       1.555659        42.3316 
 210   0.0000       1.561901        42.5015 
 211   0.0000       1.567813        42.6624 
 212   0.0000       1.585925        43.1552 
 213   0.0000       1.592678        43.3390 
 214   0.0000       1.608766        43.7767 
 215   0.0000       1.618690        44.0468 
 216   0.0000       1.623862        44.1875 
 217   0.0000       1.644057        44.7371 
 218   0.0000       1.647149        44.8212 
 219   0.0000       1.652693        44.9721 
 220   0.0000       1.658165        45.1210 
 221   0.0000       1.666794        45.3558 
 222   0.0000       1.688937        45.9583 
 223   0.0000       1.699541        46.2469 
 224   0.0000       1.702141        46.3176 
 225   0.0000       1.724932        46.9378 
 226   0.0000       1.728860        47.0447 
 227   0.0000       1.742090        47.4047 
 228   0.0000       1.762830        47.9691 
 229   0.0000       1.777129        48.3581 
 230   0.0000       1.784889        48.5693 
 231   0.0000       1.792543        48.7776 
 232   0.0000       1.812951        49.3329 
 233   0.0000       1.816129        49.4194 
 234   0.0000       1.822293        49.5871 
 235   0.0000       1.843831        50.1732 
 236   0.0000       1.858177        50.5636 
 237   0.0000       1.862928        50.6928 
 238   0.0000       1.893008        51.5114 
 239   0.0000       1.906552        51.8799 
 240   0.0000       1.912999        52.0553 
 241   0.0000       1.924057        52.3563 
 242   0.0000       1.947024        52.9812 
 243   0.0000       1.963362        53.4258 
 244   0.0000       1.966796        53.5192 
 245   0.0000       1.973205        53.6936 
 246   0.0000       1.978809        53.8461 
 247   0.0000       1.991036        54.1788 
 248   0.0000       2.005103        54.5616 
 249   0.0000       2.040589        55.5273 
 250   0.0000       2.041821        55.5608 
 251   0.0000       2.066852        56.2419 
 252   0.0000       2.071925        56.3800 
 253   0.0000       2.083524        56.6956 
 254   0.0000       2.088288        56.8252 
 255   0.0000       2.108149        57.3656 
 256   0.0000       2.115771        57.5731 
 257   0.0000       2.120685        57.7068 
 258   0.0000       2.132011        58.0150 
 259   0.0000       2.137319        58.1594 
 260   0.0000       2.152578        58.5746 
 261   0.0000       2.163717        58.8777 
 262   0.0000       2.166453        58.9522 
 263   0.0000       2.173094        59.1329 
 264   0.0000       2.181510        59.3619 
 265   0.0000       2.194284        59.7095 
 266   0.0000       2.197688        59.8021 
 267   0.0000       2.208327        60.0916 
 268   0.0000       2.214358        60.2557 
 269   0.0000       2.228155        60.6312 
 270   0.0000       2.244891        61.0866 
 271   0.0000       2.250318        61.2343 
 272   0.0000       2.257938        61.4416 
 273   0.0000       2.260202        61.5032 
 274   0.0000       2.270892        61.7941 
 275   0.0000       2.284217        62.1567 
 276   0.0000       2.298658        62.5497 
 277   0.0000       2.323899        63.2365 
 278   0.0000       2.345132        63.8143 
 279   0.0000       2.346407        63.8490 
 280   0.0000       2.360507        64.2326 
 281   0.0000       2.384698        64.8909 
 282   0.0000       2.407938        65.5233 
 283   0.0000       2.421018        65.8792 
 284   0.0000       2.434907        66.2572 
 285   0.0000       2.447545        66.6011 
 286   0.0000       2.460420        66.9514 
 287   0.0000       2.469410        67.1961 
 288   0.0000       2.496101        67.9224 
 289   0.0000       2.504016        68.1377 
 290   0.0000       2.519452        68.5578 
 291   0.0000       2.539952        69.1156 
 292   0.0000       2.558585        69.6226 
 293   0.0000       2.576759        70.1172 
 294   0.0000       2.601294        70.7848 
 295   0.0000       2.603521        70.8454 
 296   0.0000       2.612466        71.0888 
 297   0.0000       2.619452        71.2789 
 298   0.0000       2.634651        71.6925 
 299   0.0000       2.645123        71.9775 
 300   0.0000       2.655057        72.2478 
 301   0.0000       2.662964        72.4629 
 302   0.0000       2.669367        72.6372 
 303   0.0000       2.678250        72.8789 
 304   0.0000       2.679289        72.9072 
 305   0.0000       2.695533        73.3492 
 306   0.0000       2.699033        73.4444 
 307   0.0000       2.715185        73.8839 
 308   0.0000       2.719376        73.9980 
 309   0.0000       2.723218        74.1025 
 310   0.0000       2.733804        74.3906 
 311   0.0000       2.737453        74.4899 
 312   0.0000       2.762639        75.1752 
 313   0.0000       2.778444        75.6053 
 314   0.0000       2.788122        75.8687 
 315   0.0000       2.805908        76.3526 
 316   0.0000       2.813239        76.5521 
 317   0.0000       2.819992        76.7359 
 318   0.0000       2.830017        77.0087 
 319   0.0000       2.833141        77.0937 
 320   0.0000       2.856305        77.7240 
 321   0.0000       2.873462        78.1909 
 322   0.0000       2.898689        78.8773 
 323   0.0000       2.903429        79.0063 
 324   0.0000       2.914903        79.3185 
 325   0.0000       2.929477        79.7151 
 326   0.0000       2.936455        79.9050 
 327   0.0000       2.963908        80.6520 
 328   0.0000       2.977538        81.0229 
 329   0.0000       2.991280        81.3969 
 330   0.0000       3.011562        81.9488 
 331   0.0000       3.020325        82.1872 
 332   0.0000       3.041274        82.7573 
 333   0.0000       3.069168        83.5163 
 334   0.0000       3.088250        84.0356 
 335   0.0000       3.100264        84.3625 
 336   0.0000       3.118196        84.8504 
 337   0.0000       3.124284        85.0161 
 338   0.0000       3.132111        85.2291 
 339   0.0000       3.140600        85.4601 
 340   0.0000       3.152469        85.7830 
 341   0.0000       3.162402        86.0533 
 342   0.0000       3.167655        86.1963 
 343   0.0000       3.190844        86.8273 
 344   0.0000       3.200498        87.0900 
 345   0.0000       3.217407        87.5501 
 346   0.0000       3.222724        87.6948 
 347   0.0000       3.233509        87.9882 
 348   0.0000       3.247700        88.3744 
 349   0.0000       3.257922        88.6526 
 350   0.0000       3.272131        89.0392 
 351   0.0000       3.282315        89.3163 
 352   0.0000       3.289604        89.5147 
 353   0.0000       3.309168        90.0470 
 354   0.0000       3.324462        90.4632 
 355   0.0000       3.331516        90.6552 
 356   0.0000       3.348874        91.1275 
 357   0.0000       3.350943        91.1838 
 358   0.0000       3.390013        92.2469 
 359   0.0000       3.400147        92.5227 
 360   0.0000       3.411716        92.8375 
 361   0.0000       3.415014        92.9273 
 362   0.0000       3.423216        93.1504 
 363   0.0000       3.450649        93.8969 
 364   0.0000       3.456080        94.0447 
 365   0.0000       3.483054        94.7787 
 366   0.0000       3.493408        95.0605 
 367   0.0000       3.501404        95.2781 
 368   0.0000       3.535447        96.2044 
 369   0.0000       3.540649        96.3460 
 370   0.0000       3.549916        96.5981 
 371   0.0000       3.570080        97.1468 
 372   0.0000       3.599591        97.9498 
 373   0.0000       3.614153        98.3461 
 374   0.0000       3.628333        98.7320 
 375   0.0000       3.665253        99.7366 
 376   0.0000       3.680946       100.1636 
 377   0.0000       3.700821       100.7045 
 378   0.0000       3.719031       101.2000 
 379   0.0000       3.733727       101.5999 
 380   0.0000       3.747464       101.9737 
 381   0.0000       3.759261       102.2947 
 382   0.0000       3.786856       103.0456 
 383   0.0000       3.792845       103.2085 
 384   0.0000       3.850296       104.7719 
 385   0.0000       3.897763       106.0635 
 386   0.0000       3.900574       106.1400 
 387   0.0000       3.921237       106.7023 
 388   0.0000       3.936509       107.1178 
 389   0.0000       3.956012       107.6486 
 390   0.0000       3.983997       108.4101 
 391   0.0000       4.008003       109.0633 
 392   0.0000       4.028030       109.6083 
 393   0.0000       4.044928       110.0681 
 394   0.0000       4.062699       110.5517 
 395   0.0000       4.084535       111.1459 
 396   0.0000       4.096713       111.4772 
 397   0.0000       4.113823       111.9428 
 398   0.0000       4.129318       112.3644 
 399   0.0000       4.156689       113.1093 
 400   0.0000       4.188256       113.9682 
 401   0.0000       4.198178       114.2382 
 402   0.0000       4.211867       114.6107 
 403   0.0000       4.227777       115.0437 
 404   0.0000       4.234817       115.2352 
 405   0.0000       4.244960       115.5112 
 406   0.0000       4.288666       116.7005 
 407   0.0000       4.293994       116.8455 
 408   0.0000       4.305807       117.1670 
 409   0.0000       4.321023       117.5810 
 410   0.0000       4.365582       118.7935 
 411   0.0000       4.446340       120.9911 
 412   0.0000       4.461800       121.4117 
 413   0.0000       4.522117       123.0530 
 414   0.0000       4.539644       123.5300 
 415   0.0000       4.570759       124.3767 
 416   0.0000       4.608852       125.4132 
 417   0.0000       4.632503       126.0568 
 418   0.0000       4.639639       126.2510 
 419   0.0000       4.678587       127.3108 
 420   0.0000       4.686858       127.5359 
 421   0.0000       4.727706       128.6474 
 422   0.0000       4.748723       129.2193 
 423   0.0000       4.766621       129.7064 
 424   0.0000       4.815776       131.0439 
 425   0.0000       4.825374       131.3051 
 426   0.0000       4.886042       132.9559 
 427   0.0000       4.914399       133.7276 
 428   0.0000       4.930170       134.1567 
 429   0.0000       4.988648       135.7480 
 430   0.0000       5.038163       137.0954 
 431   0.0000       5.084193       138.3479 
 432   0.0000       5.097463       138.7090 
 433   0.0000       5.129927       139.5924 
 434   0.0000       5.137842       139.8078 
 435   0.0000       5.147761       140.0777 
 436   0.0000       5.152774       140.2141 
 437   0.0000       5.188360       141.1825 
 438   0.0000       5.191876       141.2781 
 439   0.0000       5.213023       141.8536 
 440   0.0000       5.219724       142.0359 
 441   0.0000       5.223238       142.1315 
 442   0.0000       5.234244       142.4310 
 443   0.0000       5.290538       143.9628 
 444   0.0000       5.297323       144.1475 
 445   0.0000       5.343353       145.4000 
 446   0.0000       5.371238       146.1588 
 447   0.0000       5.380491       146.4106 
 448   0.0000       5.395979       146.8320 
 449   0.0000       5.418017       147.4317 
 450   0.0000       5.436624       147.9381 
 451   0.0000       5.446895       148.2175 
 452   0.0000       5.473274       148.9353 
 453   0.0000       5.488636       149.3534 
 454   0.0000       5.509042       149.9086 
 455   0.0000       5.549934       151.0214 
 456   0.0000       5.598765       152.3501 
 457   0.0000       5.625333       153.0731 
 458   0.0000       5.640255       153.4791 
 459   0.0000       5.732287       155.9835 
 460   0.0000       5.954035       162.0175 
 461   0.0000       6.082160       165.5040 
 462   0.0000       6.223133       169.3400 
 463   0.0000       6.250931       170.0965 
 464   0.0000       6.294860       171.2919 
 465   0.0000       6.316601       171.8835 
 466   0.0000       6.332706       172.3217 
 467   0.0000       6.356281       172.9632 
 468   0.0000       6.370852       173.3597 
 469   0.0000       6.383978       173.7169 
 470   0.0000       6.408724       174.3903 
 471   0.0000       6.415275       174.5685 
 472   0.0000       6.430873       174.9929 
 473   0.0000       6.432780       175.0448 
 474   0.0000       6.500566       176.8894 
 475   0.0000       6.552288       178.2968 
 476   0.0000       6.679281       181.7525 
 477   0.0000       6.839459       186.1111 
 478   0.0000       6.849887       186.3949 
 479   0.0000       6.883404       187.3069 
 480   0.0000       6.926271       188.4734 
 481   0.0000       7.005022       190.6163 
 482   0.0000       7.102109       193.2582 
 483   0.0000       7.103212       193.2882 
 484   0.0000       7.195920       195.8109 
 485   0.0000       7.256840       197.4686 
 486   0.0000       7.333923       199.5662 
 487   0.0000       7.379284       200.8005 
 488   0.0000       7.447722       202.6628 
 489   0.0000      10.707013       291.3526 
 490   0.0000      10.785607       293.4913 
 491   0.0000      11.324168       308.1463 
 492   0.0000      21.993432       598.4717 
 493   0.0000      22.406386       609.7088 
 494   0.0000      22.579912       614.4306 
 495   0.0000      22.629120       615.7697 
 496   0.0000      22.728780       618.4816 
 497   0.0000      22.778046       619.8221 
 498   0.0000      22.841239       621.5417 
 499   0.0000      23.195070       631.1699 
 500   0.0000      25.839696       703.1339 
 501   0.0000      32.466858       883.4681 
 502   0.0000      43.398484      1180.9328 
 503   0.0000      43.531788      1184.5602 
 504   0.0000      44.002518      1197.3694 
 505   0.0000      44.042263      1198.4509 

                    ********************************
                    * MULLIKEN POPULATION ANALYSIS *
                    ********************************

-----------------------
MULLIKEN ATOMIC CHARGES
-----------------------
   0 C :   -0.118412
   1 C :   -0.186596
   2 C :    0.152919
   3 C :   -0.286858
   4 C :    0.214351
   5 C :   -0.214754
   6 H :    0.149025
   7 H :    0.086005
   8 H :    0.149935
   9 Cl:   -0.140602
  10 H :    0.149703
  11 C :    0.022266
  12 C :   -0.373830
  13 H :    0.133811
  14 H :    0.133677
  15 H :    0.133942
  16 N :    0.415551
  17 O :   -0.363351
  18 O :   -0.349878
  19 H :    0.148086
  20 O :   -0.826651
  21 H :    0.317630
  22 H :    0.357185
  23 H :    0.286187
  24 O :   -0.989341
Sum of atomic charges:   -1.0000000

--------------------------------
MULLIKEN REDUCED ORBITAL CHARGES
--------------------------------
  0 C s       :     3.214072  s :     3.214072
      pz      :     0.954638  p :     2.815245
      px      :     0.917376
      py      :     0.943231
      dz2     :     0.005058  d :     0.081777
      dxz     :     0.016400
      dyz     :     0.012028
      dx2y2   :     0.020227
      dxy     :     0.028063
      f0      :     0.001410  f :     0.007318
      f+1     :     0.000610
      f-1     :     0.000528
      f+2     :     0.001058
      f-2     :     0.000371
      f+3     :     0.001333
      f-3     :     0.002009
  1 C s       :     3.271999  s :     3.271999
      pz      :     0.955104  p :     2.824357
      px      :     0.951687
      py      :     0.917566
      dz2     :     0.004985  d :     0.082891
      dxz     :     0.005550
      dyz     :     0.021420
      dx2y2   :     0.031402
      dxy     :     0.019533
      f0      :     0.001358  f :     0.007349
      f+1     :     0.000645
      f-1     :     0.000559
      f+2     :     0.000347
      f-2     :     0.001016
      f+3     :     0.001313
      f-3     :     0.002112
  2 C s       :     3.202245  s :     3.202245
      pz      :     0.945255  p :     2.512824
      px      :     0.787666
      py      :     0.779903
      dz2     :     0.009109  d :     0.121909
      dxz     :     0.022812
      dyz     :     0.018718
      dx2y2   :     0.040324
      dxy     :     0.030946
      f0      :     0.001553  f :     0.010102
      f+1     :     0.000657
      f-1     :     0.000807
      f+2     :     0.001139
      f-2     :     0.000838
      f+3     :     0.001769
      f-3     :     0.003339
  3 C s       :     3.329288  s :     3.329288
      pz      :     0.974228  p :     2.866903
      px      :     0.947347
      py      :     0.945328
      dz2     :     0.005455  d :     0.083125
      dxz     :     0.015651
      dyz     :     0.012732
      dx2y2   :     0.016974
      dxy     :     0.032313
      f0      :     0.001449  f :     0.007543
      f+1     :     0.000645
      f-1     :     0.000577
      f+2     :     0.001052
      f-2     :     0.000403
      f+3     :     0.001399
      f-3     :     0.002017
  4 C s       :     3.069004  s :     3.069004
      pz      :     0.994578  p :     2.556189
      px      :     0.756772
      py      :     0.804839
      dz2     :     0.008001  d :     0.149904
      dxz     :     0.025232
      dyz     :     0.026900
      dx2y2   :     0.049139
      dxy     :     0.040632
      f0      :     0.001742  f :     0.010553
      f+1     :     0.001027
      f-1     :     0.000609
      f+2     :     0.001036
      f-2     :     0.001119
      f+3     :     0.001785
      f-3     :     0.003234
  5 C s       :     3.275157  s :     3.275157
      pz      :     0.969462  p :     2.850253
      px      :     0.935566
      py      :     0.945225
      dz2     :     0.006386  d :     0.081929
      dxz     :     0.018524
      dyz     :     0.008471
      dx2y2   :     0.018718
      dxy     :     0.029831
      f0      :     0.001342  f :     0.007415
      f+1     :     0.000657
      f-1     :     0.000711
      f+2     :     0.000719
      f-2     :     0.000661
      f+3     :     0.001436
      f-3     :     0.001889
  6 H s       :     0.828654  s :     0.828654
      pz      :     0.004804  p :     0.022321
      px      :     0.007238
      py      :     0.010279
  7 H s       :     0.890509  s :     0.890509
      pz      :     0.004721  p :     0.023486
      px      :     0.014792
      py      :     0.003973
  8 H s       :     0.827593  s :     0.827593
      pz      :     0.004849  p :     0.022472
      px      :     0.007521
      py      :     0.010102
  9 Cls       :     5.880633  s :     5.880633
      pz      :     3.920465  p :    11.194112
      px      :     3.301752
      py      :     3.971894
      dz2     :     0.007788  d :     0.060482
      dxz     :     0.018874
      dyz     :     0.000794
      dx2y2   :     0.022319
      dxy     :     0.010707
      f0      :     0.000543  f :     0.005376
      f+1     :     0.001036
      f-1     :     0.000078
      f+2     :     0.000810
      f-2     :     0.000111
      f+3     :     0.001725
      f-3     :     0.001073
 10 H s       :     0.827883  s :     0.827883
      pz      :     0.004639  p :     0.022414
      px      :     0.005225
      py      :     0.012550
 11 C s       :     3.171775  s :     3.171775
      pz      :     0.744292  p :     2.657188
      px      :     1.051488
      py      :     0.861407
      dz2     :     0.038828  d :     0.139281
      dxz     :     0.017519
      dyz     :     0.036903
      dx2y2   :     0.030215
      dxy     :     0.015816
      f0      :     0.001795  f :     0.009490
      f+1     :     0.001063
      f-1     :     0.002207
      f+2     :     0.001099
      f-2     :     0.001199
      f+3     :     0.001205
      f-3     :     0.000924
 12 C s       :     3.314845  s :     3.314845
      pz      :     0.954149  p :     3.008790
      px      :     1.046822
      py      :     1.007818
      dz2     :     0.013380  d :     0.046347
      dxz     :     0.005862
      dyz     :     0.007812
      dx2y2   :     0.012172
      dxy     :     0.007121
      f0      :     0.000451  f :     0.003848
      f+1     :     0.000442
      f-1     :     0.001268
      f+2     :     0.000444
      f-2     :     0.000309
      f+3     :     0.000763
      f-3     :     0.000172
 13 H s       :     0.844515  s :     0.844515
      pz      :     0.004327  p :     0.021674
      px      :     0.005842
      py      :     0.011505
 14 H s       :     0.844788  s :     0.844788
      pz      :     0.004274  p :     0.021535
      px      :     0.012716
      py      :     0.004546
 15 H s       :     0.844332  s :     0.844332
      pz      :     0.011164  p :     0.021725
      px      :     0.004758
      py      :     0.005804
 16 N s       :     3.325690  s :     3.325690
      pz      :     1.041923  p :     3.007574
      px      :     1.054764
      py      :     0.910888
      dz2     :     0.051806  d :     0.236975
      dxz     :     0.032937
      dyz     :     0.073025
      dx2y2   :     0.038581
      dxy     :     0.040626
      f0      :     0.003570  f :     0.014210
      f+1     :     0.001305
      f-1     :     0.001841
      f+2     :     0.002275
      f-2     :     0.002036
      f+3     :     0.001409
      f-3     :     0.001773
 17 O s       :     3.873412  s :     3.873412
      pz      :     1.395758  p :     4.445493
      px      :     1.448464
      py      :     1.601271
      dz2     :     0.010736  d :     0.041183
      dxz     :     0.009236
      dyz     :     0.013313
      dx2y2   :     0.003964
      dxy     :     0.003935
      f0      :     0.000503  f :     0.003264
      f+1     :     0.000425
      f-1     :     0.001017
      f+2     :     0.000572
      f-2     :     0.000582
      f+3     :     0.000080
      f-3     :     0.000084
 18 O s       :     3.874583  s :     3.874583
      pz      :     1.857336  p :     4.430486
      px      :     1.387522
      py      :     1.185627
      dz2     :     0.005549  d :     0.041537
      dxz     :     0.001313
      dyz     :     0.007861
      dx2y2   :     0.013519
      dxy     :     0.013295
      f0      :     0.000338  f :     0.003273
      f+1     :     0.000166
      f-1     :     0.000614
      f+2     :     0.000259
      f-2     :     0.000212
      f+3     :     0.000841
      f-3     :     0.000843
 19 H s       :     0.817990  s :     0.817990
      pz      :     0.003335  p :     0.033924
      px      :     0.026506
      py      :     0.004083
 20 O s       :     3.801185  s :     3.801185
      pz      :     1.828603  p :     5.006827
      px      :     1.513312
      py      :     1.664911
      dz2     :     0.002356  d :     0.017543
      dxz     :     0.000851
      dyz     :     0.004563
      dx2y2   :     0.004064
      dxy     :     0.005709
      f0      :     0.000228  f :     0.001096
      f+1     :     0.000167
      f-1     :     0.000066
      f+2     :     0.000120
      f-2     :     0.000284
      f+3     :     0.000139
      f-3     :     0.000093
 21 H s       :     0.635921  s :     0.635921
      pz      :     0.016526  p :     0.046450
      px      :     0.013560
      py      :     0.016364
 22 H s       :     0.576534  s :     0.576534
      pz      :     0.011305  p :     0.066282
      px      :     0.042308
      py      :     0.012669
 23 H s       :     0.665186  s :     0.665186
      pz      :     0.017855  p :     0.048627
      px      :     0.014730
      py      :     0.016042
 24 O s       :     3.871214  s :     3.871214
      pz      :     1.626115  p :     5.104597
      px      :     1.800209
      py      :     1.678274
      dz2     :     0.002583  d :     0.012657
      dxz     :     0.000677
      dyz     :     0.006161
      dx2y2   :     0.002583
      dxy     :     0.000653
      f0      :     0.000040  f :     0.000872
      f+1     :     0.000021
      f-1     :     0.000431
      f+2     :     0.000262
      f-2     :     0.000055
      f+3     :     0.000019
      f-3     :     0.000045


                     *******************************
                     * LOEWDIN POPULATION ANALYSIS *
                     *******************************

----------------------
LOEWDIN ATOMIC CHARGES
----------------------
   0 C :   -0.126706
   1 C :   -0.104684
   2 C :   -0.131757
   3 C :   -0.107194
   4 C :   -0.413645
   5 C :   -0.141389
   6 H :    0.154258
   7 H :    0.146787
   8 H :    0.159406
   9 Cl:    0.356439
  10 H :    0.153814
  11 C :   -0.223191
  12 C :   -0.271469
  13 H :    0.127138
  14 H :    0.127630
  15 H :    0.137156
  16 N :   -0.031487
  17 O :   -0.064447
  18 O :   -0.051808
  19 H :    0.170420
  20 O :   -0.470257
  21 H :    0.135943
  22 H :    0.112927
  23 H :    0.092651
  24 O :   -0.736533

-------------------------------
LOEWDIN REDUCED ORBITAL CHARGES
-------------------------------
  0 C s       :     2.765424  s :     2.765424
      pz      :     0.876158  p :     2.931935
      px      :     1.034961
      py      :     1.020815
      dz2     :     0.025512  d :     0.385994
      dxz     :     0.056380
      dyz     :     0.038945
      dx2y2   :     0.107495
      dxy     :     0.157661
      f0      :     0.003149  f :     0.043353
      f+1     :     0.004115
      f-1     :     0.003459
      f+2     :     0.007148
      f-2     :     0.002167
      f+3     :     0.009057
      f-3     :     0.014258
  1 C s       :     2.759057  s :     2.759057
      pz      :     0.879554  p :     2.924129
      px      :     0.998586
      py      :     1.045989
      dz2     :     0.027044  d :     0.378480
      dxz     :     0.015673
      dyz     :     0.073158
      dx2y2   :     0.155816
      dxy     :     0.106789
      f0      :     0.003141  f :     0.043019
      f+1     :     0.003106
      f-1     :     0.004449
      f+2     :     0.002063
      f-2     :     0.007082
      f+3     :     0.008884
      f-3     :     0.014293
  2 C s       :     2.707761  s :     2.707761
      pz      :     0.845185  p :     2.847197
      px      :     1.030199
      py      :     0.971813
      dz2     :     0.039544  d :     0.518850
      dxz     :     0.076268
      dyz     :     0.061564
      dx2y2   :     0.171652
      dxy     :     0.169822
      f0      :     0.004059  f :     0.057949
      f+1     :     0.004422
      f-1     :     0.004516
      f+2     :     0.007077
      f-2     :     0.005848
      f+3     :     0.010916
      f-3     :     0.021111
  3 C s       :     2.757933  s :     2.757933
      pz      :     0.892110  p :     2.928624
      px      :     1.028500
      py      :     1.008013
      dz2     :     0.027671  d :     0.377152
      dxz     :     0.052584
      dyz     :     0.040300
      dx2y2   :     0.104607
      dxy     :     0.151989
      f0      :     0.003362  f :     0.043486
      f+1     :     0.004121
      f-1     :     0.003698
      f+2     :     0.007509
      f-2     :     0.002363
      f+3     :     0.009217
      f-3     :     0.013216
  4 C s       :     2.779854  s :     2.779854
      pz      :     0.925798  p :     2.962572
      px      :     0.930365
      py      :     1.106409
      dz2     :     0.044915  d :     0.608084
      dxz     :     0.086306
      dyz     :     0.086822
      dx2y2   :     0.219213
      dxy     :     0.170827
      f0      :     0.004244  f :     0.063136
      f+1     :     0.005322
      f-1     :     0.004767
      f+2     :     0.006887
      f-2     :     0.007607
      f+3     :     0.012396
      f-3     :     0.021912
  5 C s       :     2.767762  s :     2.767762
      pz      :     0.893252  p :     2.949894
      px      :     1.058377
      py      :     0.998264
      dz2     :     0.029712  d :     0.380043
      dxz     :     0.065683
      dyz     :     0.025771
      dx2y2   :     0.120054
      dxy     :     0.138822
      f0      :     0.003222  f :     0.043689
      f+1     :     0.004291
      f-1     :     0.003783
      f+2     :     0.004962
      f-2     :     0.004918
      f+3     :     0.009237
      f-3     :     0.013277
  6 H s       :     0.786517  s :     0.786517
      pz      :     0.013390  p :     0.059224
      px      :     0.019315
      py      :     0.026519
  7 H s       :     0.790610  s :     0.790610
      pz      :     0.013527  p :     0.062603
      px      :     0.037639
      py      :     0.011437
  8 H s       :     0.779833  s :     0.779833
      pz      :     0.014152  p :     0.060761
      px      :     0.020026
      py      :     0.026584
  9 Cls       :     5.558069  s :     5.558069
      pz      :     3.846418  p :    10.977111
      px      :     3.277789
      py      :     3.852904
      dz2     :     0.012013  d :     0.097434
      dxz     :     0.029608
      dyz     :     0.001076
[...]
     49      -0.000617   0.000798  -0.000406  -0.000038  -0.000009   0.000055
     50      -0.000823  -0.000761   0.000375  -0.000014   0.000041  -0.000030
     51       0.000028  -0.000034   0.000100   0.000001  -0.000007  -0.000009
     52       0.000061  -0.000211   0.000104   0.000009  -0.000015  -0.000012
     53       0.000225   0.000081  -0.000063   0.000003  -0.000014   0.000046
     54       0.000091  -0.000170  -0.000070  -0.000009  -0.000014   0.000047
     55       0.000304  -0.000314   0.000251   0.000012  -0.000011   0.000079
     56      -0.000064   0.000168  -0.000268   0.000003  -0.000017   0.000017
     57       0.003830  -0.004008  -0.002949   0.001387   0.000791  -0.000190
     58       0.000219  -0.001086   0.000087  -0.000283  -0.000005   0.000661
     59       0.000600   0.000317   0.001082   0.000010   0.000008   0.000093
     60      -0.000081   0.000008  -0.000012   0.000056   0.000066  -0.000018
     61       0.000037   0.000002   0.000000  -0.000030  -0.000039   0.000005
     62      -0.000017  -0.000002   0.000000  -0.000010  -0.000007   0.000000
     63      -0.000067  -0.000006   0.000003   0.000221   0.000202  -0.000044
     64      -0.000054  -0.000004   0.000006   0.000321   0.000235  -0.000044
     65      -0.000050  -0.000009   0.000007   0.000181   0.000148  -0.000029
     66       0.001322  -0.000076   0.000125  -0.001347  -0.001400   0.000344
     67      -0.000535   0.000011  -0.000081   0.000272   0.000303  -0.000070
     68       0.000258   0.000008   0.000023  -0.000397  -0.000391   0.000099
     69       0.000216  -0.000095  -0.000043  -0.000293  -0.000371   0.000151
     70      -0.000031  -0.000010  -0.000037  -0.000145   0.000042  -0.000066
     71       0.000013  -0.000036   0.000055   0.001631   0.001158  -0.000179
     72      -0.000140   0.000037  -0.000001  -0.000011   0.000029  -0.000017
     73      -0.000005   0.000005  -0.000003  -0.000023  -0.000052   0.000013
     74      -0.000018  -0.000000  -0.000001  -0.000049  -0.000034   0.000006
                 72         73         74    
      0       0.020377   0.000015  -0.000005
      1       0.023433   0.000025  -0.000001
      2       0.004575   0.000004  -0.000006
      3       0.007232  -0.000086  -0.000034
      4      -0.002309  -0.000034   0.000009
      5       0.000651  -0.000086  -0.000013
      6      -0.000196  -0.000006   0.000007
      7      -0.000489  -0.000009  -0.000003
      8      -0.000059   0.000015   0.000001
      9      -0.001267   0.000004  -0.000001
     10      -0.002611   0.000000   0.000000
     11      -0.000365   0.000003   0.000001
     12      -0.002930  -0.000015  -0.000003
     13      -0.002302   0.000002   0.000000
     14      -0.000572  -0.000002   0.000001
     15      -0.033727   0.000002  -0.000004
     16       0.075389  -0.000016   0.000002
     17       0.002047   0.000003  -0.000002
     18      -0.201323  -0.000058   0.000003
     19      -0.268340  -0.000085   0.000028
     20      -0.048069  -0.000050   0.000002
     21      -0.073781   0.001446   0.000436
     22       0.010778  -0.000067  -0.000313
     23      -0.007880   0.000553   0.000229
     24       0.018010   0.000040  -0.000001
     25       0.024167   0.000038  -0.000004
     26       0.004351   0.000013   0.000005
     27       0.000171   0.000001  -0.000005
     28       0.000004   0.000000  -0.000001
     29       0.000019   0.000001   0.000004
     30       0.376492   0.000060  -0.000014
     31      -0.853460   0.000005   0.000017
     32      -0.023861  -0.000045  -0.000041
     33       0.000006   0.000044  -0.000062
     34       0.000016   0.000032  -0.000016
     35       0.000025  -0.000001  -0.000020
     36       0.000065   0.000032   0.000006
     37      -0.000068  -0.000002   0.000006
     38      -0.000017   0.000015  -0.000009
     39      -0.000422  -0.000076   0.000008
     40       0.000921   0.000031  -0.000008
     41      -0.000038   0.000003   0.000035
     42      -0.000395   0.000062  -0.000033
     43      -0.000058   0.000096  -0.000001
     44      -0.000042  -0.000101   0.000023
     45       0.000023   0.000105   0.000022
     46       0.000138  -0.000018   0.000018
     47       0.000225   0.000008   0.000038
     48      -0.000002   0.000001  -0.000007
     49       0.000018  -0.000035   0.000023
     50      -0.000052  -0.000057   0.000036
     51      -0.000003   0.000002  -0.000001
     52      -0.000003  -0.000001   0.000004
     53       0.000021   0.000023  -0.000014
     54       0.000005   0.000000  -0.000005
     55       0.000010   0.000033  -0.000018
     56       0.000013   0.000006  -0.000004
     57      -0.000013  -0.001024   0.000484
     58       0.000003  -0.000428   0.000097
     59       0.000010   0.000248  -0.000085
     60      -0.000023  -0.000061   0.030998
     61       0.000010   0.000250   0.043957
     62      -0.000002  -0.000000   0.030452
     63      -0.000058  -0.001246  -0.480418
     64      -0.000037  -0.002306  -0.723493
     65      -0.000042  -0.001497  -0.491050
     66       0.000452  -0.001380  -0.005710
     67      -0.000107  -0.002866   0.025851
     68       0.000117   0.003764   0.009834
     69       0.000130  -0.035366   0.000264
     70      -0.000077   0.648022  -0.001947
     71      -0.000175  -0.758188   0.002053
     72      -0.000022   0.002485  -0.000378
     73       0.000022  -0.040699   0.000122
     74       0.000002   0.047627  -0.000259


-----------
IR SPECTRUM
-----------

 Mode   freq       eps      Int      T**2         TX        TY        TZ
       cm**-1   L/(mol*cm) km/mol    a.u.
----------------------------------------------------------------------------
  7:     16.89   0.001505    7.61  0.027805  (-0.028959  0.061556 -0.152242)
  8:     40.16   0.001908    9.64  0.014821  (-0.089588  0.030639 -0.076529)
  9:     45.95   0.004951   25.02  0.033626  ( 0.011673 -0.157191 -0.093706)
 10:     51.40   0.002595   13.11  0.015755  (-0.080300  0.096450  0.001986)
 11:     72.60   0.006381   32.25  0.027428  (-0.002614 -0.010012  0.165289)
 12:     84.48   0.030572  154.50  0.112927  ( 0.083346  0.074088 -0.317004)
 13:     87.33   0.001266    6.40  0.004526  (-0.010015  0.059479 -0.029793)
 14:    114.37   0.010317   52.14  0.028151  (-0.159720 -0.049781  0.012737)
 15:    148.64   0.000953    4.81  0.002000  ( 0.038865  0.021676 -0.004454)
 16:    183.67   0.015584   78.76  0.026478  (-0.034443 -0.143100 -0.069385)
 17:    201.32   0.009640   48.72  0.014943  (-0.012198 -0.109940 -0.052032)
 18:    243.56   0.000115    0.58  0.000148  (-0.002517  0.007811 -0.008961)
 19:    256.94   0.000901    4.55  0.001094  ( 0.021863 -0.019656  0.015168)
 20:    309.90   0.000104    0.53  0.000105  (-0.002623  0.000055  0.009907)
 21:    314.73   0.020261  102.39  0.020090  ( 0.134185 -0.026132  0.037433)
 22:    321.35   0.040579  205.07  0.039407  ( 0.192016 -0.039467  0.031287)
 23:    374.31   0.000573    2.90  0.000478  (-0.016313  0.005354  0.013521)
 24:    409.96   0.005139   25.97  0.003912  ( 0.061172 -0.009494  0.008941)
 25:    451.20   0.001891    9.56  0.001308  ( 0.024041 -0.008848  0.025533)
 26:    465.32   0.019868  100.41  0.013325  (-0.111558  0.029581  0.002058)
 27:    507.33   0.003320   16.78  0.002042  (-0.016745  0.000268  0.041976)
 28:    526.35   0.005341   26.99  0.003167  ( 0.051836 -0.011775  0.018473)
 29:    546.47   0.035414  178.97  0.020223  (-0.136750  0.001069 -0.039007)
 30:    600.00   0.001519    7.67  0.000790  (-0.006501  0.026789 -0.005470)
 31:    618.22   0.001540    7.78  0.000777  ( 0.005105 -0.018814 -0.019931)
 32:    696.94   0.006598   33.34  0.002954  ( 0.048802 -0.023062 -0.006375)
 33:    717.71   0.005150   26.03  0.002239  ( 0.002359  0.013999 -0.045143)
 34:    765.48   0.008726   44.10  0.003557  ( 0.007829 -0.003193  0.059040)
 35:    816.93   0.006695   33.84  0.002558  (-0.017422 -0.002844  0.047392)
 36:    836.68   0.007274   36.76  0.002713  ( 0.048335 -0.004997  0.018759)
 37:    879.06   0.007584   38.33  0.002692  (-0.001637 -0.028070 -0.043609)
 38:    915.78   0.001751    8.85  0.000597  (-0.010844 -0.015408  0.015549)
 39:    923.86   0.003697   18.68  0.001249  ( 0.002921 -0.012616 -0.032880)
 40:    954.91   0.000084    0.43  0.000028  (-0.002859  0.004280 -0.001039)
 41:   1006.45   0.001505    7.61  0.000467  ( 0.002146 -0.021472 -0.000987)
 42:   1021.80   0.001107    5.59  0.000338  ( 0.017480  0.004406  0.003629)
 43:   1037.90   0.000423    2.14  0.000127  (-0.009004 -0.005150  0.004435)
 44:   1093.23   0.008992   45.44  0.002567  (-0.040723 -0.029690 -0.005178)
 45:   1105.47   0.002471   12.49  0.000698  ( 0.024194 -0.004412  0.009630)
 46:   1121.58   0.005920   29.92  0.001647  (-0.036962  0.013195  0.010337)
 47:   1132.05   0.002942   14.87  0.000811  (-0.026118 -0.008249  0.007788)
 48:   1146.17   0.021874  110.54  0.005956  ( 0.019146  0.029464 -0.068709)
 49:   1160.88   0.011755   59.41  0.003160  (-0.044373 -0.006506  0.033893)
 50:   1188.61   0.000028    0.14  0.000007  (-0.000629  0.002062 -0.001653)
 51:   1272.60   0.012773   64.55  0.003132  ( 0.039958 -0.031735  0.022986)
 52:   1313.36   0.003116   15.75  0.000740  ( 0.020460 -0.006694  0.016640)
 53:   1346.27   0.000245    1.24  0.000057  ( 0.005925 -0.000091  0.004655)
 54:   1385.17   0.043137  218.00  0.009718  ( 0.034468  0.055949  0.073485)
 55:   1414.00   0.013547   68.46  0.002990  ( 0.004199  0.009772  0.053634)
 56:   1452.94   0.004006   20.25  0.000860  (-0.028740 -0.000649 -0.005836)
 57:   1472.75   0.000142    0.72  0.000030  ( 0.001992 -0.004885 -0.001504)
 58:   1479.77   0.003168   16.01  0.000668  ( 0.012276 -0.005264  0.022128)
 59:   1512.54   0.010543   53.28  0.002175  (-0.042757  0.017804 -0.005485)
 60:   1542.07   0.138676  700.81  0.028063  (-0.059342 -0.142763  0.064505)
 61:   1607.91   0.009418   47.60  0.001828  ( 0.041800 -0.002438  0.008647)
 62:   1622.06   0.018269   92.33  0.003515  ( 0.020705 -0.053304 -0.015643)
 63:   1636.12   0.005946   30.05  0.001134  (-0.022026  0.025476  0.000111)
 64:   2042.10   0.192891  974.79  0.029477  ( 0.168533  0.006955  0.032016)
 65:   2305.49   0.651629  3293.06  0.088202  ( 0.280279 -0.079603  0.057529)
 66:   3047.87   0.002721   13.75  0.000279  (-0.005171 -0.007789  0.013825)
 67:   3113.33   0.003426   17.31  0.000343  ( 0.013293  0.009284  0.008971)
 68:   3124.85   0.005249   26.52  0.000524  ( 0.014364 -0.017707 -0.002075)
 69:   3176.38   0.000873    4.41  0.000086  ( 0.009259 -0.000027  0.000262)
 70:   3187.91   0.001457    7.36  0.000143  (-0.002786 -0.011473 -0.001806)
 71:   3189.84   0.000034    0.17  0.000003  ( 0.000995  0.001361  0.000688)
 72:   3205.53   0.000562    2.84  0.000055  ( 0.000166  0.007375  0.000532)
 73:   3792.89   0.000203    1.02  0.000017  ( 0.003204 -0.001689  0.001882)
 74:   3817.18   0.005658   28.60  0.000463  (-0.016051 -0.010206 -0.010039)

* The epsilon (eps) is given for a Dirac delta lineshape.
** The dipole moment derivative (T) already includes vibrational overlap.

The first frequency considered to be a vibration is 7
The total number of vibrations considered is 68


--------------------------
THERMOCHEMISTRY AT 298.15K
--------------------------

Temperature         ... 298.15 K
Pressure            ... 1.00 atm
Total Mass          ... 221.62 AMU

Throughout the following assumptions are being made:
  (1) The electronic state is orbitally nondegenerate
  (2) There are no thermally accessible electronically excited states
  (3) Hindered rotations indicated by low frequency modes are not
      treated as such but are treated as vibrations and this may
      cause some error
  (4) All equations used are the standard statistical mechanics
      equations for an ideal gas
  (5) All vibrations are strictly harmonic

freq.      16.89  E(vib)   ...       0.57 
freq.      40.16  E(vib)   ...       0.54 
freq.      45.95  E(vib)   ...       0.53 
freq.      51.40  E(vib)   ...       0.52 
freq.      72.60  E(vib)   ...       0.49 
freq.      84.48  E(vib)   ...       0.48 
freq.      87.33  E(vib)   ...       0.48 
freq.     114.37  E(vib)   ...       0.44 
freq.     148.64  E(vib)   ...       0.41 
freq.     183.67  E(vib)   ...       0.37 
freq.     201.32  E(vib)   ...       0.35 
freq.     243.56  E(vib)   ...       0.31 
freq.     256.94  E(vib)   ...       0.30 
freq.     309.90  E(vib)   ...       0.26 
freq.     314.73  E(vib)   ...       0.25 
freq.     321.35  E(vib)   ...       0.25 
freq.     374.31  E(vib)   ...       0.21 
freq.     409.96  E(vib)   ...       0.19 
freq.     451.20  E(vib)   ...       0.16 
freq.     465.32  E(vib)   ...       0.16 
freq.     507.33  E(vib)   ...       0.14 
freq.     526.35  E(vib)   ...       0.13 
freq.     546.47  E(vib)   ...       0.12 
freq.     600.00  E(vib)   ...       0.10 
freq.     618.22  E(vib)   ...       0.09 
freq.     696.94  E(vib)   ...       0.07 
freq.     717.71  E(vib)   ...       0.07 
freq.     765.48  E(vib)   ...       0.06 
freq.     816.93  E(vib)   ...       0.05 
freq.     836.68  E(vib)   ...       0.04 
freq.     879.06  E(vib)   ...       0.04 
freq.     915.78  E(vib)   ...       0.03 
freq.     923.86  E(vib)   ...       0.03 
freq.     954.91  E(vib)   ...       0.03 
freq.    1006.45  E(vib)   ...       0.02 
freq.    1021.80  E(vib)   ...       0.02 
freq.    1037.90  E(vib)   ...       0.02 
freq.    1093.23  E(vib)   ...       0.02 
freq.    1105.47  E(vib)   ...       0.02 
freq.    1121.58  E(vib)   ...       0.01 
freq.    1132.05  E(vib)   ...       0.01 
freq.    1146.17  E(vib)   ...       0.01 
freq.    1160.88  E(vib)   ...       0.01 
freq.    1188.61  E(vib)   ...       0.01 
freq.    1272.60  E(vib)   ...       0.01 
freq.    1313.36  E(vib)   ...       0.01 
freq.    1346.27  E(vib)   ...       0.01 
freq.    1385.17  E(vib)   ...       0.00 
freq.    1414.00  E(vib)   ...       0.00 
freq.    1452.94  E(vib)   ...       0.00 
freq.    1472.75  E(vib)   ...       0.00 
freq.    1479.77  E(vib)   ...       0.00 
freq.    1512.54  E(vib)   ...       0.00 
freq.    1542.07  E(vib)   ...       0.00 
freq.    1607.91  E(vib)   ...       0.00 
freq.    1622.06  E(vib)   ...       0.00 
freq.    1636.12  E(vib)   ...       0.00 
freq.    2042.10  E(vib)   ...       0.00 
freq.    2305.49  E(vib)   ...       0.00 
freq.    3047.87  E(vib)   ...       0.00 
freq.    3113.33  E(vib)   ...       0.00 
freq.    3124.85  E(vib)   ...       0.00 
freq.    3176.38  E(vib)   ...       0.00 
freq.    3187.91  E(vib)   ...       0.00 
freq.    3189.84  E(vib)   ...       0.00 
freq.    3205.53  E(vib)   ...       0.00 
freq.    3792.89  E(vib)   ...       0.00 
freq.    3817.18  E(vib)   ...       0.00 

------------
INNER ENERGY
------------

The inner energy is: U= E(el) + E(ZPE) + E(vib) + E(rot) + E(trans)
    E(el)   - is the total energy from the electronic structure calculation
              = E(kin-el) + E(nuc-el) + E(el-el) + E(nuc-nuc)
    E(ZPE)  - the the zero temperature vibrational energy from the frequency calculation
    E(vib)  - the the finite temperature correction to E(ZPE) due to population
              of excited vibrational states
    E(rot)  - is the rotational thermal energy
    E(trans)- is the translational thermal energy

Summary of contributions to the inner energy U:
Electronic energy                ...  -1127.29331504 Eh
Zero point energy                ...      0.17900669 Eh     112.33 kcal/mol
Thermal vibrational correction   ...      0.01349023 Eh       8.47 kcal/mol
Thermal rotational correction    ...      0.00141627 Eh       0.89 kcal/mol
Thermal translational correction ...      0.00141627 Eh       0.89 kcal/mol
-----------------------------------------------------------------------
Total thermal energy                  -1127.09798559 Eh


Summary of corrections to the electronic energy:
(perhaps to be used in another calculation)
Total thermal correction                  0.01632277 Eh      10.24 kcal/mol
Non-thermal (ZPE) correction              0.17900669 Eh     112.33 kcal/mol
-----------------------------------------------------------------------
Total correction                          0.19532946 Eh     122.57 kcal/mol


--------
ENTHALPY
--------

The enthalpy is H = U + kB*T
                kB is Boltzmann's constant
Total free energy                 ...  -1127.09798559 Eh 
Thermal Enthalpy correction       ...      0.00094421 Eh       0.59 kcal/mol
-----------------------------------------------------------------------
Total Enthalpy                    ...  -1127.09704138 Eh


Note: Only C1 symmetry has been detected, increase convergence thresholds 
      if your molecule has a higher symmetry. Symmetry factor of 1.0 is   
      used for the rotational entropy correction. 
 

Note: Rotational entropy computed according to Herzberg 
Infrared and Raman Spectra, Chapter V,1, Van Nostrand Reinhold, 1945 
Point Group:  C1, Symmetry Number:   1  
Rotational constants in cm-1:     0.028196     0.009058     0.007593 

Vibrational entropy computed according to the QRRHO of S. Grimme
Chem.Eur.J. 2012 18 9955


-------
ENTROPY
-------

The entropy contributions are T*S = T*(S(el)+S(vib)+S(rot)+S(trans))
     S(el)   - electronic entropy
     S(vib)  - vibrational entropy
     S(rot)  - rotational entropy
     S(trans)- translational entropy
The entropies will be listed as multiplied by the temperature to get
units of energy

Electronic entropy                ...      0.00000000 Eh      0.00 kcal/mol
Vibrational entropy               ...      0.02468123 Eh     15.49 kcal/mol
Rotational entropy                ...      0.01572028 Eh      9.86 kcal/mol
Translational entropy             ...      0.01999833 Eh     12.55 kcal/mol
-----------------------------------------------------------------------
Final entropy term                ...      0.06039984 Eh     37.90 kcal/mol

In case the symmetry of your molecule has not been determined correctly
or in case you have a reason to use a different symmetry number we print 
out the resulting rotational entropy values for sn=1,12 :
 --------------------------------------------------------
|  sn= 1 | S(rot)=       0.01572028 Eh      9.86 kcal/mol|
|  sn= 2 | S(rot)=       0.01506582 Eh      9.45 kcal/mol|
|  sn= 3 | S(rot)=       0.01468299 Eh      9.21 kcal/mol|
|  sn= 4 | S(rot)=       0.01441136 Eh      9.04 kcal/mol|
|  sn= 5 | S(rot)=       0.01420067 Eh      8.91 kcal/mol|
|  sn= 6 | S(rot)=       0.01402853 Eh      8.80 kcal/mol|
|  sn= 7 | S(rot)=       0.01388298 Eh      8.71 kcal/mol|
|  sn= 8 | S(rot)=       0.01375691 Eh      8.63 kcal/mol|
|  sn= 9 | S(rot)=       0.01364570 Eh      8.56 kcal/mol|
|  sn=10 | S(rot)=       0.01354622 Eh      8.50 kcal/mol|
|  sn=11 | S(rot)=       0.01345623 Eh      8.44 kcal/mol|
|  sn=12 | S(rot)=       0.01337407 Eh      8.39 kcal/mol|
 --------------------------------------------------------


-------------------
GIBBS FREE ENERGY
-------------------

The Gibbs free energy is G = H - T*S

Total enthalpy                    ...  -1127.09704138 Eh 
Total entropy correction          ...     -0.06039984 Eh    -37.90 kcal/mol
-----------------------------------------------------------------------
Final Gibbs free energy         ...  -1127.15744121 Eh

For completeness - the Gibbs free energy minus the electronic energy
G-E(el)                           ...      0.13587383 Eh     85.26 kcal/mol



Timings for individual modules:

Sum of individual times         ...     1448.812 sec (=  24.147 min)
GTO integral calculation        ...        9.528 sec (=   0.159 min)   0.7 %
SCF iterations                  ...       91.769 sec (=   1.529 min)   6.3 %
SCF Gradient evaluation         ...       20.809 sec (=   0.347 min)   1.4 %
Numerical frequency calculation ...     1326.705 sec (=  22.112 min)  91.6 %
                             ****ORCA TERMINATED NORMALLY****
TOTAL RUN TIME: 0 days 0 hours 23 minutes 11 seconds 530 msec
