
                                 *****************
                                 * O   R   C   A *
                                 *****************

                                            #,                                       
                                            ###                                      
                                            ####                                     
                                            #####                                    
                                            ######                                   
                                           ########,                                 
                                     ,,################,,,,,                         
                               ,,#################################,,                 
                          ,,##########################################,,             
                       ,#########################################, ''#####,          
                    ,#############################################,,   '####,        
                  ,##################################################,,,,####,       
                ,###########''''           ''''###############################       
              ,#####''   ,,,,##########,,,,          '''####'''          '####       
            ,##' ,,,,###########################,,,                        '##       
           ' ,,###''''                  '''############,,,                           
         ,,##''                                '''############,,,,        ,,,,,,###''
      ,#''                                            '''#######################'''  
     '                                                          ''''####''''         
             ,#######,   #######,   ,#######,      ##                                
            ,#'     '#,  ##    ##  ,#'     '#,    #''#        ######   ,####,        
            ##       ##  ##   ,#'  ##            #'  '#       #        #'  '#        
            ##       ##  #######   ##           ,######,      #####,   #    #        
            '#,     ,#'  ##    ##  '#,     ,#' ,#      #,         ##   #,  ,#        
             '#######'   ##     ##  '#######'  #'      '#     #####' # '####'        



                  #######################################################
                  #                        -***-                        #
                  #          Department of theory and spectroscopy      #
                  #    Directorship and core code : Frank Neese         #
                  #        Max Planck Institute fuer Kohlenforschung    #
                  #                Kaiser Wilhelm Platz 1               #
                  #                 D-45470 Muelheim/Ruhr               #
                  #                      Germany                        #
                  #                                                     #
                  #                  All rights reserved                #
                  #                        -***-                        #
                  #######################################################


                         Program Version 5.0.4 -  RELEASE  -


 With contributions from (in alphabetic order):
   Daniel Aravena         : Magnetic Suceptibility
   Michael Atanasov       : Ab Initio Ligand Field Theory (pilot matlab implementation)
   Alexander A. Auer      : GIAO ZORA, VPT2 properties, NMR spectrum
   Ute Becker             : Parallelization
   Giovanni Bistoni       : ED, misc. LED, open-shell LED, HFLD
   Martin Brehm           : Molecular dynamics
   Dmytro Bykov           : SCF Hessian
   Vijay G. Chilkuri      : MRCI spin determinant printing, contributions to CSF-ICE
   Dipayan Datta          : RHF DLPNO-CCSD density
   Achintya Kumar Dutta   : EOM-CC, STEOM-CC
   Dmitry Ganyushin       : Spin-Orbit,Spin-Spin,Magnetic field MRCI
   Miquel Garcia          : C-PCM and meta-GGA Hessian, CC/C-PCM, Gaussian charge scheme
   Yang Guo               : DLPNO-NEVPT2, F12-NEVPT2, CIM, IAO-localization
   Andreas Hansen         : Spin unrestricted coupled pair/coupled cluster methods
   Benjamin Helmich-Paris : MC-RPA, TRAH-SCF, COSX integrals
   Lee Huntington         : MR-EOM, pCC
   Robert Izsak           : Overlap fitted RIJCOSX, COSX-SCS-MP3, EOM
   Marcus Kettner         : VPT2
   Christian Kollmar      : KDIIS, OOCD, Brueckner-CCSD(T), CCSD density, CASPT2, CASPT2-K
   Simone Kossmann        : Meta GGA functionals, TD-DFT gradient, OOMP2, MP2 Hessian
   Martin Krupicka        : Initial AUTO-CI
   Lucas Lang             : DCDCAS
   Marvin Lechner         : AUTO-CI (C++ implementation), FIC-MRCC
   Dagmar Lenk            : GEPOL surface, SMD
   Dimitrios Liakos       : Extrapolation schemes; Compound Job, initial MDCI parallelization
   Dimitrios Manganas     : Further ROCIS development; embedding schemes
   Dimitrios Pantazis     : SARC Basis sets
   Anastasios Papadopoulos: AUTO-CI, single reference methods and gradients
   Taras Petrenko         : DFT Hessian,TD-DFT gradient, ASA, ECA, R-Raman, ABS, FL, XAS/XES, NRVS
   Peter Pinski           : DLPNO-MP2, DLPNO-MP2 Gradient
   Christoph Reimann      : Effective Core Potentials
   Marius Retegan         : Local ZFS, SOC
   Christoph Riplinger    : Optimizer, TS searches, QM/MM, DLPNO-CCSD(T), (RO)-DLPNO pert. Triples
   Tobias Risthaus        : Range-separated hybrids, TD-DFT gradient, RPA, STAB
   Michael Roemelt        : Original ROCIS implementation
   Masaaki Saitow         : Open-shell DLPNO-CCSD energy and density
   Barbara Sandhoefer     : DKH picture change effects
   Avijit Sen             : IP-ROCIS
   Kantharuban Sivalingam : CASSCF convergence, NEVPT2, FIC-MRCI
   Bernardo de Souza      : ESD, SOC TD-DFT
   Georgi Stoychev        : AutoAux, RI-MP2 NMR, DLPNO-MP2 response
   Willem Van den Heuvel  : Paramagnetic NMR
   Boris Wezisla          : Elementary symmetry handling
   Frank Wennmohs         : Technical directorship


 We gratefully acknowledge several colleagues who have allowed us to
 interface, adapt or use parts of their codes:
   Stefan Grimme, W. Hujo, H. Kruse, P. Pracht,  : VdW corrections, initial TS optimization,
                  C. Bannwarth, S. Ehlert          DFT functionals, gCP, sTDA/sTD-DF
   Ed Valeev, F. Pavosevic, A. Kumar             : LibInt (2-el integral package), F12 methods
   Garnet Chan, S. Sharma, J. Yang, R. Olivares  : DMRG
   Ulf Ekstrom                                   : XCFun DFT Library
   Mihaly Kallay                                 : mrcc  (arbitrary order and MRCC methods)
   Jiri Pittner, Ondrej Demel                    : Mk-CCSD
   Frank Weinhold                                : gennbo (NPA and NBO analysis)
   Christopher J. Cramer and Donald G. Truhlar   : smd solvation model
   Lars Goerigk                                  : TD-DFT with DH, B97 family of functionals
   V. Asgeirsson, H. Jonsson                     : NEB implementation
   FAccTs GmbH                                   : IRC, NEB, NEB-TS, DLPNO-Multilevel, CI-OPT
                                                   MM, QMMM, 2- and 3-layer-ONIOM, Crystal-QMMM,
                                                   LR-CPCM, SF, NACMEs, symmetry and pop. for TD-DFT,
                                                   nearIR, NL-DFT gradient (VV10), updates on ESD,
                                                   ML-optimized integration grids
   S Lehtola, MJT Oliveira, MAL Marques          : LibXC Library
   Liviu Ungur et al                             : ANISO software


 Your calculation uses the libint2 library for the computation of 2-el integrals
 For citations please refer to: http://libint.valeyev.net

 Your ORCA version has been built with support for libXC version: 5.1.0
 For citations please refer to: https://tddft.org/programs/libxc/

 This ORCA versions uses:
   CBLAS   interface :  Fast vector & matrix operations
   LAPACKE interface :  Fast linear algebra routines
   SCALAPACK package :  Parallel linear algebra routines
   Shared memory     :  Shared parallel matrices
   BLAS/LAPACK       :  OpenBLAS 0.3.15  USE64BITINT DYNAMIC_ARCH NO_AFFINITY Prescott SINGLE_THREADED
        Core in use  :  Prescott
   Copyright (c) 2011-2014, The OpenBLAS Project


Your calculation utilizes the atom-pairwise dispersion correction
with the Becke-Johnson damping scheme (D3BJ)
Cite in your paper:
S.Grimme, S.Ehrlich, L.Goerigk, J Comput Chem, (2011), 32, 1456–1465 
S.Grimme, J.Antony, S.Ehrlich and H.Krieg, J.Chem.Phys., 132, (2010), 154104 
   

================================================================================

----- Orbital basis set information -----
Your calculation utilizes the basis: def2-TZVP
   F. Weigend and R. Ahlrichs, Phys. Chem. Chem. Phys. 7, 3297 (2005).

----- AuxJ basis set information -----
Your calculation utilizes the auxiliary basis: def2/J
   F. Weigend, Phys. Chem. Chem. Phys. 8, 1057 (2006).

================================================================================
                                        WARNINGS
                       Please study these warnings very carefully!
================================================================================


WARNING: your system is open-shell and RHF/RKS was chosen
  ===> : WILL SWITCH to UHF/UKS


WARNING: Geometry Optimization
  ===> : Switching off AutoStart
         For restart on a previous wavefunction, please use MOREAD

INFO   : the flag for use of the SHARK integral package has been found!

================================================================================
                                       INPUT FILE
================================================================================
NAME = /home/rudenko/mop_saddle_orca_4_serv/for_orca/m-o2nc6h4chno2ch3_piperidine/orca/orca_start/start.inp
|  1> !  opt B3LYP def2-TZVP CPCM D3 
|  2> %pal nprocs 102 end
|  3> %cpcm epsilon 78.4 end 
|  4> *xyz 0 2 
|  5> C   -0.84181814 0.79034419 0.96301806
|  6> C   0.52023545 0.77596822 1.25823005
|  7> C   1.3279847 -0.27837062 0.81924256
|  8> C   0.77677308 -1.31503632 0.06947836
|  9> C   -0.58899366 -1.28096078 -0.22910671
| 10> C   -1.41003918 -0.2374399 0.21794498
| 11> H   -1.46720337 1.61520382 1.31696409
| 12> H   0.95440362 1.60034795 1.8381409
| 13> H   1.40322598 -2.14430693 -0.28533778
| 14> H   -2.48098317 -0.22674197 -0.01626003
| 15> N   -1.16003318 -2.34599365 -1.01554189
| 16> O   -2.34920295 -2.30572765 -1.30336528
| 17> O   -0.44190682 -3.26786294 -1.38146586
| 18> C   2.78399276 -0.28713036 1.19173395
| 19> C   3.18855607 -1.57161835 1.90602226
| 20> H   4.20266372 -1.50998977 2.33087387
| 21> H   3.16039465 -2.45474798 1.24999586
| 22> H   2.50738999 -1.78224453 2.7469481
| 23> N   3.62469879 -0.1571539 -0.04684831
| 24> O   4.51255854 0.68128848 -0.05428822
| 25> O   3.4110826 -0.89092759 -0.99666843
| 26> H   3.02902943 0.60602628 1.85398883
| 27> C   1.657986 -0.03597478 6.94292127
| 28> C   2.60803531 0.23136275 8.03354623
| 29> C   3.25453416 1.6235833 7.95372599
| 30> C   3.61008178 1.9808697 6.50108382
| 31> N   2.41834977 1.93844337 5.62151387
| 32> C   1.83698593 0.57011042 5.60644014
| 33> H   0.86011725 -0.73721267 7.09311087
| 34> H   2.12774768 0.10236731 9.02814546
| 35> H   3.4046121 -0.55141054 8.00479144
| 36> H   4.15837169 1.66285797 8.58861016
| 37> H   2.56368143 2.38252763 8.36731479
| 38> H   4.05085395 3.0001938 6.44341831
| 39> H   4.37445099 1.28046792 6.10091472
| 40> H   1.71634328 2.60520275 5.96188633
| 41> H   0.8760116 0.61329405 5.04088064
| 42> H   2.52192033 -0.08177691 5.00155473
| 43> H   2.88108672 2.24387647 3.79928044
| 44> H   2.4637829 3.14599819 2.62797977
| 45> O   3.06819163 2.43565984 2.85337915
| 46> *
| 47> 
| 48>                          ****END OF INPUT****
================================================================================

                       *****************************
                       * Geometry Optimization Run *
                       *****************************

Geometry optimization settings:
Update method            Update   .... BFGS
Choice of coordinates    CoordSys .... Z-matrix Internals
Initial Hessian          InHess   .... Almoef's Model

Convergence Tolerances:
Energy Change            TolE     ....  5.0000e-06 Eh
Max. Gradient            TolMAXG  ....  3.0000e-04 Eh/bohr
RMS Gradient             TolRMSG  ....  1.0000e-04 Eh/bohr
Max. Displacement        TolMAXD  ....  4.0000e-03 bohr
RMS Displacement         TolRMSD  ....  2.0000e-03 bohr
Strict Convergence                ....  False
------------------------------------------------------------------------------
                        ORCA OPTIMIZATION COORDINATE SETUP
------------------------------------------------------------------------------

The optimization will be done in new redundant internal coordinates
Making redundant internal coordinates   ...  (new redundants) done
Evaluating the initial hessian          ...  (Almloef) done
Evaluating the coordinates              ...  done
Calculating the B-matrix                .... done
Calculating the G-matrix                .... done
Diagonalizing the G-matrix              .... done
Small eigenvalue found = 3.412e-03
Small eigenvalue found = 1.025e-02
Small eigenvalue found = 2.072e-02
The first mode is                       ....  149
The number of degrees of freedom        ....  117

    -----------------------------------------------------------------
                    Redundant Internal Coordinates


    -----------------------------------------------------------------
         Definition                    Initial Value    Approx d2E/dq
    -----------------------------------------------------------------
      1. B(C   1,C   0)                  1.3938         0.616242   
      2. B(C   2,C   1)                  1.3989         0.604796   
      3. B(C   3,C   2)                  1.3931         0.617779   
      4. B(C   4,C   3)                  1.3984         0.605723   
      5. B(C   5,C   4)                  1.4010         0.599969   
      6. B(C   5,C   0)                  1.3908         0.622943   
      7. B(H   6,C   0)                  1.0940         0.354882   
      8. B(H   7,C   1)                  1.0975         0.350376   
      9. B(H   8,C   3)                  1.0982         0.349423   
     10. B(H   9,C   5)                  1.0963         0.351853   
     11. B(N  10,C   4)                  1.4418         0.462584   
     12. B(O  11,N  10)                  1.2242         0.921692   
     13. B(O  12,N  10)                  1.2245         0.920503   
     14. B(C  13,C   2)                  1.5029         0.412641   
     15. B(C  14,C  13)                  1.5244         0.381343   
     16. B(H  15,C  14)                  1.1012         0.345544   
     17. B(H  16,C  14)                  1.1005         0.346485   
     18. B(H  17,C  14)                  1.1025         0.343938   
     19. B(N  18,C  13)                  1.5026         0.370042   
     20. B(O  19,N  18)                  1.2212         0.931789   
     21. B(O  20,N  18)                  1.2191         0.939002   
     22. B(H  21,C  13)                  1.1386         0.301248   
     23. B(C  23,C  22)                  1.4709         0.464172   
     24. B(C  24,C  23)                  1.5371         0.363986   
     25. B(C  25,C  24)                  1.5376         0.363279   
     26. B(N  26,C  25)                  1.4818         0.399437   
     27. B(C  27,N  26)                  1.4868         0.392150   
     28. B(C  27,C  22)                  1.4784         0.451605   
     29. B(H  28,C  22)                  1.0728         0.383597   
     30. B(H  29,C  23)                  1.1120         0.332142   
     31. B(H  30,C  23)                  1.1172         0.325879   
     32. B(H  31,C  24)                  1.1052         0.340501   
     33. B(H  32,C  24)                  1.1065         0.338928   
     34. B(H  33,C  25)                  1.1120         0.332096   
     35. B(H  34,C  25)                  1.1113         0.333013   
     36. B(H  35,N  26)                  1.0263         0.407600   
     37. B(H  36,C  27)                  1.1159         0.327438   
     38. B(H  37,C  27)                  1.1225         0.319588   
     39. B(H  38,N  26)                  1.9047         0.016171   
     40. B(H  38,H  21)                  2.5473         0.000326   
     41. B(H  39,H   7)                  2.3002         0.000808   
     42. B(O  40,H  21)                  2.0852         0.008334   
     43. B(O  40,H   7)                  2.4893         0.001888   
     44. B(O  40,H  39)                  0.9595         0.520857   
     45. B(O  40,H  38)                  0.9831         0.477623   
     46. A(C   1,C   0,H   6)          119.8618         0.351677   
     47. A(C   1,C   0,C   5)          120.3386         0.433961   
     48. A(C   5,C   0,H   6)          119.7994         0.352321   
     49. A(C   0,C   1,H   7)          119.3927         0.350918   
     50. A(C   0,C   1,C   2)          120.3716         0.431660   
     51. A(C   2,C   1,H   7)          120.2356         0.349809   
     52. A(C   1,C   2,C  13)          119.0796         0.401925   
     53. A(C   1,C   2,C   3)          120.0862         0.431854   
     54. A(C   3,C   2,C  13)          120.8226         0.403433   
     55. A(C   4,C   3,H   8)          120.4328         0.349739   
     56. A(C   2,C   3,C   4)          118.8957         0.431973   
     57. A(C   2,C   3,H   8)          120.6711         0.350904   
     58. A(C   3,C   4,C   5)          121.4903         0.429709   
     59. A(C   3,C   4,N  10)          119.0295         0.407591   
     60. A(C   5,C   4,N  10)          119.4801         0.406903   
     61. A(C   4,C   5,H   9)          120.7685         0.349584   
     62. A(C   0,C   5,C   4)          118.8111         0.431878   
     63. A(C   0,C   5,H   9)          120.4201         0.351810   
     64. A(H  39,H   7,O  40)           22.6724         0.101222   
     65. A(C   1,H   7,O  40)          143.4671         0.149409   
     66. A(C   1,H   7,H  39)          161.0484         0.129334   
     67. A(C   4,N  10,O  12)          119.1324         0.433447   
     68. A(C   4,N  10,O  11)          119.2536         0.433547   
     69. A(O  11,N  10,O  12)          121.6138         0.488232   
     70. A(C  14,C  13,N  18)          108.0980         0.361777   
     71. A(C   2,C  13,N  18)          109.7086         0.366691   
     72. A(C   2,C  13,C  14)          112.2192         0.370908   
     73. A(N  18,C  13,H  21)          106.9290         0.312663   
     74. A(C  14,C  13,H  21)          109.3497         0.316059   
     75. A(C   2,C  13,H  21)          110.3700         0.320149   
     76. A(H  16,C  14,H  17)          106.5928         0.287017   
     77. A(H  15,C  14,H  17)          106.5818         0.286896   
     78. A(C  13,C  14,H  17)          110.7572         0.322973   
     79. A(H  15,C  14,H  16)          107.3649         0.287226   
     80. A(C  13,C  14,H  16)          112.9592         0.323364   
     81. A(C  13,C  14,H  15)          112.2107         0.323220   
     82. A(C  13,N  18,O  19)          118.1118         0.417381   
     83. A(O  19,N  18,O  20)          122.4044         0.491025   
     84. A(C  13,N  18,O  20)          119.4800         0.417955   
     85. A(C  13,H  21,H  38)          159.4037         0.120740   
     86. A(H  38,H  21,O  40)           21.7021         0.102927   
     87. A(C  13,H  21,O  40)          166.2021         0.170693   
     88. A(C  27,C  22,H  28)          118.9858         0.338182   
     89. A(C  23,C  22,H  28)          119.6944         0.339734   
     90. A(C  23,C  22,C  27)          121.1709         0.389813   
     91. A(H  29,C  23,H  30)          104.4601         0.282752   
     92. A(C  24,C  23,H  30)          109.4752         0.317710   
     93. A(C  22,C  23,H  30)          108.3071         0.330649   
     94. A(C  24,C  23,H  29)          109.4620         0.318698   
     95. A(C  22,C  23,H  29)          111.2927         0.331692   
     96. A(C  22,C  23,C  24)          113.4398         0.375481   
     97. A(H  31,C  24,H  32)          105.7537         0.285584   
     98. A(C  25,C  24,H  32)          109.7626         0.319650   
     99. A(C  23,C  24,H  32)          109.8306         0.319751   
    100. A(C  25,C  24,H  31)          110.2023         0.319892   
    101. A(C  23,C  24,H  31)          110.2621         0.319993   
    102. A(C  23,C  24,C  25)          110.9029         0.360022   
    103. A(H  33,C  25,H  34)          106.6434         0.283698   
    104. A(N  26,C  25,H  34)          108.7472         0.321788   
    105. A(C  24,C  25,H  34)          110.6583         0.318733   
    106. A(N  26,C  25,H  33)          108.3151         0.321643   
    107. A(C  24,C  25,H  33)          110.7099         0.318589   
    108. A(C  24,C  25,N  26)          111.6025         0.363506   
    109. A(C  27,N  26,H  35)          109.5007         0.328843   
    110. A(C  25,N  26,H  35)          109.5524         0.329844   
    111. A(C  25,N  26,C  27)          110.2947         0.366000   
    112. A(C  25,N  26,H  38)          111.5865         0.205018   
    113. A(H  35,N  26,H  38)          112.2901         0.189455   
    114. A(C  27,N  26,H  38)          103.4664         0.204535   
    115. A(N  26,C  27,H  36)          107.8340         0.319936   
    116. A(C  22,C  27,H  36)          111.7020         0.329412   
    117. A(C  22,C  27,N  26)          114.5499         0.376167   
    118. A(H  36,C  27,H  37)          105.9526         0.281277   
    119. A(N  26,C  27,H  37)          107.5386         0.318671   
    120. A(C  22,C  27,H  37)          108.8416         0.328095   
    121. A(H  21,H  38,N  26)          129.9119         0.105182   
    122. A(H  21,H  38,O  40)           51.6554         0.123820   
    123. A(H   7,H  39,O  40)           89.8021         0.132606   
    124. A(H   7,O  40,H  21)           59.6113         0.114616   
    125. A(H  21,O  40,H  39)          121.6792         0.180393   
    126. A(H  21,O  40,H  38)          106.6425         0.178618   
    127. A(H   7,O  40,H  39)           67.5255         0.154310   
    128. A(H   7,O  40,H  38)           99.5167         0.153042   
    129. A(H  38,O  40,H  39)          104.5099         0.317491   
    130. D(H   7,C   1,C   0,H   6)     -0.5094         0.026259   
    131. D(C   2,C   1,C   0,H   6)    179.5375         0.026259   
    132. D(C   2,C   1,C   0,C   5)     -0.6032         0.026259   
    133. D(H   7,C   1,C   0,C   5)    179.3499         0.026259   
    134. D(C   3,C   2,C   1,C   0)      0.7322         0.025238   
    135. D(C  13,C   2,C   1,H   7)      2.0068         0.025238   
    136. D(C  13,C   2,C   1,C   0)   -178.0405         0.025238   
    137. D(C   3,C   2,C   1,H   7)   -179.2205         0.025238   
    138. D(H   8,C   3,C   2,C  13)     -1.6288         0.026398   
    139. D(C   4,C   3,C   2,C  13)    178.5935         0.026398   
    140. D(H   8,C   3,C   2,C   1)    179.6202         0.026398   
    141. D(C   4,C   3,C   2,C   1)     -0.1575         0.026398   
    142. D(N  10,C   4,C   3,H   8)     -0.3535         0.025320   
    143. D(C   5,C   4,C   3,H   8)    179.6693         0.025320   
    144. D(N  10,C   4,C   3,C   2)    179.4248         0.025320   
    145. D(C   5,C   4,C   3,C   2)     -0.5525         0.025320   
    146. D(H   9,C   5,C   4,N  10)      0.5182         0.024815   
    147. D(C   0,C   5,C   4,N  10)   -179.2972         0.024815   
    148. D(H   9,C   5,C   0,H   6)     -0.0526         0.026868   
    149. D(H   9,C   5,C   0,C   1)   -179.9121         0.026868   
    150. D(H   9,C   5,C   4,C   3)   -179.5046         0.024815   
    151. D(C   4,C   5,C   0,H   6)    179.7635         0.026868   
    152. D(C   0,C   5,C   4,C   3)      0.6799         0.024815   
    153. D(C   4,C   5,C   0,C   1)     -0.0960         0.026868   
    154. D(O  40,H   7,C   1,C   2)     -1.8321         0.113652   
    155. D(H  39,H   7,C   1,C   0)   -149.1269         0.113652   
    156. D(O  40,H   7,C   1,C   0)    178.2147         0.113652   
    157. D(H  39,H   7,C   1,C   2)     30.8263         0.113652   
    158. D(O  11,N  10,C   4,C   5)      1.5182         0.016860   
    159. D(O  11,N  10,C   4,C   3)   -178.4595         0.016860   
    160. D(O  12,N  10,C   4,C   3)      1.3974         0.016860   
    161. D(O  12,N  10,C   4,C   5)   -178.6249         0.016860   
    162. D(H  21,C  13,C   2,C   3)   -176.5667         0.012605   
    163. D(H  21,C  13,C   2,C   1)      2.1967         0.012605   
    164. D(N  18,C  13,C   2,C   1)   -115.3807         0.012605   
    165. D(C  14,C  13,C   2,C   1)    124.4360         0.012605   
    166. D(C  14,C  13,C   2,C   3)    -54.3274         0.012605   
    167. D(N  18,C  13,C   2,C   3)     65.8559         0.012605   
    168. D(H  17,C  14,C  13,N  18)   -172.3149         0.011586   
    169. D(H  17,C  14,C  13,C   2)    -51.2007         0.011586   
    170. D(H  16,C  14,C  13,H  21)   -168.8966         0.011586   
    171. D(H  16,C  14,C  13,N  18)    -52.8280         0.011586   
    172. D(H  16,C  14,C  13,C   2)     68.2862         0.011586   
    173. D(H  15,C  14,C  13,N  18)     68.7115         0.011586   
    174. D(H  15,C  14,C  13,C   2)   -170.1743         0.011586   
    175. D(H  17,C  14,C  13,H  21)     71.6165         0.011586   
    176. D(H  15,C  14,C  13,H  21)    -47.3572         0.011586   
    177. D(O  20,N  18,C  13,C  14)     72.5256         0.011750   
    178. D(O  20,N  18,C  13,C   2)    -50.1349         0.011750   
    179. D(O  19,N  18,C  13,H  21)     10.8547         0.011750   
    180. D(O  19,N  18,C  13,C  14)   -106.7806         0.011750   
    181. D(O  19,N  18,C  13,C   2)    130.5590         0.011750   
    182. D(O  20,N  18,C  13,H  21)   -169.8392         0.011750   
    183. D(O  40,H  21,C  13,C  14)   -146.6756         0.086198   
    184. D(O  40,H  21,C  13,C   2)    -22.7639         0.086198   
    185. D(H  38,H  21,C  13,N  18)    172.6885         0.086198   
    186. D(H  38,H  21,C  13,C  14)    -70.5010         0.086198   
    187. D(O  40,H  21,C  13,N  18)     96.5139         0.086198   
    188. D(H  38,H  21,C  13,C   2)     53.4108         0.086198   
    189. D(H  29,C  23,C  22,C  27)    154.6545         0.015884   
    190. D(C  24,C  23,C  22,C  27)     30.6864         0.015884   
    191. D(C  24,C  23,C  22,H  28)   -153.7960         0.015884   
    192. D(H  29,C  23,C  22,H  28)    -29.8279         0.015884   
    193. D(H  30,C  23,C  22,H  28)     84.4545         0.015884   
    194. D(H  30,C  23,C  22,C  27)    -91.0631         0.015884   
    195. D(H  32,C  24,C  23,H  30)   -157.9985         0.010613   
    196. D(H  32,C  24,C  23,H  29)    -44.0526         0.010613   
    197. D(H  32,C  24,C  23,C  22)     80.9064         0.010613   
    198. D(H  31,C  24,C  23,H  30)    -41.8445         0.010613   
    199. D(H  31,C  24,C  23,H  29)     72.1014         0.010613   
    200. D(H  31,C  24,C  23,C  22)   -162.9397         0.010613   
    201. D(C  25,C  24,C  23,H  30)     80.5020         0.010613   
    202. D(C  25,C  24,C  23,H  29)   -165.5520         0.010613   
    203. D(C  25,C  24,C  23,C  22)    -40.5931         0.010613   
    204. D(H  34,C  25,C  24,H  32)    174.8659         0.010575   
    205. D(H  34,C  25,C  24,H  31)     58.7866         0.010575   
    206. D(H  34,C  25,C  24,C  23)    -63.5947         0.010575   
    207. D(H  33,C  25,C  24,H  32)     56.8455         0.010575   
    208. D(H  33,C  25,C  24,H  31)    -59.2337         0.010575   
    209. D(H  33,C  25,C  24,C  23)    178.3849         0.010575   
    210. D(N  26,C  25,C  24,H  32)    -63.8874         0.010575   
    211. D(N  26,C  25,C  24,H  31)   -179.9666         0.010575   
    212. D(N  26,C  25,C  24,C  23)     57.6520         0.010575   
    213. D(H  38,N  26,C  25,H  34)    -53.0927         0.014582   
    214. D(H  38,N  26,C  25,C  24)   -175.4434         0.014582   
    215. D(H  35,N  26,C  25,H  34)   -178.0791         0.014582   
    216. D(H  35,N  26,C  25,H  33)    -62.5515         0.014582   
    217. D(H  35,N  26,C  25,C  24)     59.5702         0.014582   
    218. D(C  27,N  26,C  25,H  34)     61.3217         0.014582   
    219. D(H  38,N  26,C  25,H  33)     62.4349         0.014582   
    220. D(C  27,N  26,C  25,H  33)    176.8493         0.014582   
    221. D(C  27,N  26,C  25,C  24)    -61.0290         0.014582   
    222. D(H  37,C  27,N  26,H  35)    166.1890         0.014063   
    223. D(H  37,C  27,N  26,C  25)    -73.1809         0.014063   
    224. D(H  36,C  27,N  26,H  38)    -67.5731         0.014063   
    225. D(H  36,C  27,N  26,C  25)    172.9615         0.014063   
    226. D(C  22,C  27,N  26,H  38)    167.3970         0.014063   
    227. D(C  22,C  27,N  26,H  35)    -72.6987         0.014063   
    228. D(C  22,C  27,N  26,C  25)     47.9315         0.014063   
    229. D(H  37,C  27,C  22,H  28)    -89.5258         0.015039   
    230. D(H  37,C  27,C  22,C  23)     86.0229         0.015039   
    231. D(H  36,C  27,N  26,H  35)     52.3313         0.014063   
    232. D(H  36,C  27,C  22,H  28)     27.1130         0.015039   
    233. D(H  36,C  27,C  22,C  23)   -157.3383         0.015039   
    234. D(N  26,C  27,C  22,H  28)    150.0814         0.015039   
    235. D(H  37,C  27,N  26,H  38)     46.2846         0.014063   
    236. D(N  26,C  27,C  22,C  23)    -34.3699         0.015039   
    237. D(H  21,H  38,N  26,H  35)   -131.1898         0.001666   
    238. D(H  21,H  38,N  26,C  27)    -13.2115         0.001666   
    239. D(H  21,H  38,N  26,C  25)    105.3630         0.001666   
    240. D(N  26,H  38,H  21,O  40)    175.7836         0.001501   
    241. D(N  26,H  38,H  21,C  13)     34.5601         0.001501   
    242. D(O  40,H  38,H  21,C  13)   -141.2235         0.001501   
    243. D(O  40,H  39,H   7,C   1)    -56.4470         0.001506   
    244. D(H  39,O  40,N  26,C  27)    113.7621         0.001500   
    245. D(H  39,O  40,N  26,C  25)   -127.0505         0.001500   
    246. D(H   7,O  40,H  21,H  38)    -91.4182         0.001544   
    247. D(H   7,O  40,H  21,C  13)     21.0998         0.001544   
    248. D(H  39,O  40,H  21,H  38)   -119.4559         0.001544   
    249. D(H  39,O  40,H  21,C  13)     -6.9379         0.001544   
    250. D(H  38,O  40,H  21,C  13)    112.5181         0.001544   
    251. D(H  21,O  40,H   7,H  39)   -154.3486         0.001502   
    252. D(H  21,O  40,H   7,C   1)     -1.3920         0.001502   
    253. D(H  39,O  40,H   7,C   1)    152.9567         0.001502   
    254. D(H  38,O  40,H   7,H  39)    101.8630         0.001502   
    255. D(H  39,O  40,N  26,H  35)     -3.7810         0.001500   
    256. D(H  38,O  40,H   7,C   1)   -105.1803         0.001502   
    257. D(H  21,O  40,H  39,H   7)     26.0274         0.385233   
    258. D(H  38,O  40,H  39,H   7)    -94.4595         0.385233   
    259. D(H   7,O  40,H  38,H  21)     60.9720         0.336333   
    260. D(H  39,O  40,H  38,H  21)    130.0565         0.336333   
    261. D(H  21,O  40,N  26,H  35)   -133.0478         0.001500   
    262. D(H  21,O  40,N  26,C  27)    -15.5048         0.001500   
    263. D(H  21,O  40,N  26,C  25)    103.6826         0.001500   
    264. D(H   7,O  40,N  26,H  35)    -72.4293         0.001500   
    265. D(H   7,O  40,N  26,C  27)     45.1137         0.001500   
    266. D(H   7,O  40,N  26,C  25)    164.3011         0.001500   
    -----------------------------------------------------------------

Number of atoms                         .... 41
Number of degrees of freedom            .... 266

         *************************************************************
         *                GEOMETRY OPTIMIZATION CYCLE   1            *
         *************************************************************
---------------------------------
CARTESIAN COORDINATES (ANGSTROEM)
---------------------------------
  C     -0.841818    0.790344    0.963018
  C      0.520235    0.775968    1.258230
  C      1.327985   -0.278371    0.819243
  C      0.776773   -1.315036    0.069478
  C     -0.588994   -1.280961   -0.229107
  C     -1.410039   -0.237440    0.217945
  H     -1.467203    1.615204    1.316964
  H      0.954404    1.600348    1.838141
  H      1.403226   -2.144307   -0.285338
  H     -2.480983   -0.226742   -0.016260
  N     -1.160033   -2.345994   -1.015542
  O     -2.349203   -2.305728   -1.303365
  O     -0.441907   -3.267863   -1.381466
  C      2.783993   -0.287130    1.191734
  C      3.188556   -1.571618    1.906022
  H      4.202664   -1.509990    2.330874
  H      3.160395   -2.454748    1.249996
  H      2.507390   -1.782245    2.746948
  N      3.624699   -0.157154   -0.046848
  O      4.512559    0.681288   -0.054288
  O      3.411083   -0.890928   -0.996668
  H      3.029029    0.606026    1.853989
  C      1.657986   -0.035975    6.942921
  C      2.608035    0.231363    8.033546
  C      3.254534    1.623583    7.953726
  C      3.610082    1.980870    6.501084
  N      2.418350    1.938443    5.621514
  C      1.836986    0.570110    5.606440
  H      0.860117   -0.737213    7.093111
  H      2.127748    0.102367    9.028145
  H      3.404612   -0.551411    8.004791
  H      4.158372    1.662858    8.588610
  H      2.563681    2.382528    8.367315
  H      4.050854    3.000194    6.443418
  H      4.374451    1.280468    6.100915
  H      1.716343    2.605203    5.961886
  H      0.876012    0.613294    5.040881
  H      2.521920   -0.081777    5.001555
  H      2.881087    2.243876    3.799280
  H      2.463783    3.145998    2.627980
  O      3.068192    2.435660    2.853379

----------------------------
CARTESIAN COORDINATES (A.U.)
----------------------------
  NO LB      ZA    FRAG     MASS         X           Y           Z
   0 C     6.0000    0    12.011   -1.590806    1.493534    1.819840
   1 C     6.0000    0    12.011    0.983103    1.466367    2.377710
   2 C     6.0000    0    12.011    2.509527   -0.526044    1.548144
   3 C     6.0000    0    12.011    1.467888   -2.485059    0.131295
   4 C     6.0000    0    12.011   -1.113037   -2.420665   -0.432949
   5 C     6.0000    0    12.011   -2.664588   -0.448696    0.411856
   6 H     1.0000    0     1.008   -2.772613    3.052293    2.488701
   7 H     1.0000    0     1.008    1.803561    3.024219    3.473583
   8 H     1.0000    0     1.008    2.651713   -4.052153   -0.539210
   9 H     1.0000    0     1.008   -4.688379   -0.428480   -0.030727
  10 N     7.0000    0    14.007   -2.192145   -4.433286   -1.919096
  11 O     8.0000    0    15.999   -4.439350   -4.357194   -2.463003
  12 O     8.0000    0    15.999   -0.835083   -6.175366   -2.610592
  13 C     6.0000    0    12.011    5.260984   -0.542598    2.252051
  14 C     6.0000    0    12.011    6.025498   -2.969928    3.601860
  15 H     1.0000    0     1.008    7.941883   -2.853467    4.404713
  16 H     1.0000    0     1.008    5.972280   -4.638801    2.362150
  17 H     1.0000    0     1.008    4.738280   -3.367954    5.190980
  18 N     7.0000    0    14.007    6.849688   -0.296978   -0.088530
  19 O     8.0000    0    15.999    8.527500    1.287449   -0.102590
  20 O     8.0000    0    15.999    6.446012   -1.683609   -1.883430
  21 H     1.0000    0     1.008    5.724036    1.145224    3.503531
  22 C     6.0000    0    12.011    3.133139   -0.067982   13.120220
  23 C     6.0000    0    12.011    4.928472    0.437212   15.181202
  24 C     6.0000    0    12.011    6.150178    3.068128   15.030364
  25 C     6.0000    0    12.011    6.822066    3.743301   12.285268
  26 N     7.0000    0    14.007    4.570019    3.663127   10.623122
  27 C     6.0000    0    12.011    3.471400    1.077353   10.594636
  28 H     1.0000    0     1.008    1.625386   -1.393130   13.404037
  29 H     1.0000    0     1.008    4.020860    0.193446   17.060722
  30 H     1.0000    0     1.008    6.433784   -1.042015   15.126864
  31 H     1.0000    0     1.008    7.858184    3.142346   16.230121
  32 H     1.0000    0     1.008    4.844656    4.502325   15.811933
  33 H     1.0000    0     1.008    7.655005    5.669545   12.176296
  34 H     1.0000    0     1.008    8.266514    2.419734   11.529058
  35 H     1.0000    0     1.008    3.243419    4.923120   11.266332
  36 H     1.0000    0     1.008    1.655422    1.158958    9.525884
  37 H     1.0000    0     1.008    4.765739   -0.154536    9.451569
  38 H     1.0000    0     1.008    5.444465    4.240312    7.179600
  39 H     1.0000    0     1.008    4.655875    5.945075    4.966162
  40 O     8.0000    0    15.999    5.798042    4.602730    5.392105

--------------------------------
INTERNAL COORDINATES (ANGSTROEM)
--------------------------------
 C      0   0   0     0.000000000000     0.00000000     0.00000000
 C      1   0   0     1.393752764871     0.00000000     0.00000000
 C      2   1   0     1.398856410353   120.37161381     0.00000000
 C      3   2   1     1.393074434185   120.08619305     0.73221973
 C      4   3   2     1.398439478327   118.89573034   359.84251292
 C      1   2   3     1.390808822411   120.33863252   359.39681983
 H      1   2   3     1.093973439924   119.86180858   179.53748203
 H      2   1   3     1.097451836312   119.39272673   179.95311083
 H      4   3   2     1.098192821745   120.67105337   179.62023158
 H      6   1   2     1.096306281170   120.42010270   180.08793740
 N      5   4   3     1.441825731468   119.02951986   179.42480165
 O     11   5   4     1.224168451018   119.25364287   181.54051832
 O     11   5   4     1.224519827766   119.13237061     1.39738487
 C      3   2   1     1.502925826331   119.07959033   181.95952967
 C     14   3   2     1.524397801775   112.21919927   124.43595446
 H     15  14   3     1.101231718659   112.21065536   189.82566281
 H     15  14   3     1.100491547654   112.95915244    68.28622059
 H     15  14   3     1.102500287811   110.75716773   308.79933204
 N     14   3   2     1.502586611087   109.70864434   244.61926149
 O     19  14   3     1.221202650059   118.11177013   130.55895073
 O     19  14   3     1.219103754864   119.47997504   309.86510625
 H     14   3   2     1.138575109206   110.37004572     2.19670581
 C     18  15  14     4.623541502069   137.18547286   288.50895165
 C     23  18  15     1.470892875009   128.52739433   307.70258642
 C     24  23  18     1.537078427930   113.43981975    87.59832425
 C     25  24  23     1.537607542832   110.90285227   319.40691346
 N     26  25  24     1.481778820904   111.60247996    57.65203762
 C     23  18  15     1.478364655775    46.54161618    46.73517897
 H     23  18  15     1.072793566604    90.96289331   177.41009105
 H     24  23  18     1.111999846847   111.29274069   211.56644310
 H     24  23  18     1.117181920661   108.30705897   325.84886050
 H     25  24  23     1.105234223890   110.26214017   197.06034122
 H     25  24  23     1.106494322657   109.83061032    80.90636337
 H     26  25  24     1.112037336482   110.70985048   178.38491686
 H     26  25  24     1.111286754721   110.65833811   296.40527925
 H     27  26  25     1.026272183364   109.55241565    59.57021338
 H     28  23  18     1.115882626829   111.70201331    87.21346130
 H     28  23  18     1.122487675901   108.84155981   330.57460291
 H     27  26  25     1.904717705299   111.58648770   184.55663461
 H     39  27  26     1.536200291441   139.25488685   231.77628124
 O     40  39  27     0.959528720198    38.28359098   181.26178706

---------------------------
INTERNAL COORDINATES (A.U.)
---------------------------
 C      0   0   0     0.000000000000     0.00000000     0.00000000
 C      1   0   0     2.633811024001     0.00000000     0.00000000
 C      2   1   0     2.643455516247   120.37161381     0.00000000
 C      3   2   1     2.632529164778   120.08619305     0.73221973
 C      4   3   2     2.642667628902   118.89573034   359.84251292
 C      1   2   3     2.628247778998   120.33863252   359.39681983
 H      1   2   3     2.067310199240   119.86180858   179.53748203
 H      2   1   3     2.073883415798   119.39272673   179.95311083
 H      4   3   2     2.075283675337   120.67105337   179.62023158
 H      6   1   2     2.071718630309   120.42010270   180.08793740
 N      5   4   3     2.724655765316   119.02951986   179.42480165
 O     11   5   4     2.313343114211   119.25364287   181.54051832
 O     11   5   4     2.314007120035   119.13237061     1.39738487
 C      3   2   1     2.840118211364   119.07959033   181.95952967
 C     14   3   2     2.880694364505   112.21919927   124.43595446
 H     15  14   3     2.081026358253   112.21065536   189.82566281
 H     15  14   3     2.079627637761   112.95915244    68.28622059
 H     15  14   3     2.083423606532   110.75716773   308.79933204
 N     14   3   2     2.839477187452   109.70864434   244.61926149
 O     19  14   3     2.307738562630   118.11177013   130.55895073
 O     19  14   3     2.303772225528   119.47997504   309.86510625
 H     14   3   2     2.151595139300   110.37004572     2.19670581
 C     18  15  14     8.737227207729   137.18547286   288.50895165
 C     23  18  15     2.779584706104   128.52739433   307.70258642
 C     24  23  18     2.904657275146   113.43981975    87.59832425
 C     25  24  23     2.905657157405   110.90285227   319.40691346
 N     26  25  24     2.800156162553   111.60247996    57.65203762
 C     23  18  15     2.793704325484    46.54161618    46.73517897
 H     23  18  15     2.027286039114    90.96289331   177.41009105
 H     24  23  18     2.101375171504   111.29274069   211.56644310
 H     24  23  18     2.111167871818   108.30705897   325.84886050
 H     25  24  23     2.088589996988   110.26214017   197.06034122
 H     25  24  23     2.090971238561   109.83061032    80.90636337
 H     26  25  24     2.101446016647   110.70985048   178.38491686
 H     26  25  24     2.100027622677   110.65833811   296.40527925
 H     27  26  25     1.939373365419   109.55241565    59.57021338
 H     28  23  18     2.108712562308   111.70201331    87.21346130
 H     28  23  18     2.121194296154   108.84155981   330.57460291
 H     27  26  25     3.599394825447   111.58648770   184.55663461
 H     39  27  26     2.902997837674   139.25488685   231.77628124
 O     40  39  27     1.813246498807    38.28359098   181.26178706

---------------------
BASIS SET INFORMATION
---------------------
There are 4 groups of distinct atoms

 Group   1 Type C   : 11s6p2d1f contracted to 5s3p2d1f pattern {62111/411/11/1}
 Group   2 Type H   : 5s1p contracted to 3s1p pattern {311/1}
 Group   3 Type N   : 11s6p2d1f contracted to 5s3p2d1f pattern {62111/411/11/1}
 Group   4 Type O   : 11s6p2d1f contracted to 5s3p2d1f pattern {62111/411/11/1}

Atom   0C    basis set group =>   1
Atom   1C    basis set group =>   1
Atom   2C    basis set group =>   1
Atom   3C    basis set group =>   1
Atom   4C    basis set group =>   1
Atom   5C    basis set group =>   1
Atom   6H    basis set group =>   2
Atom   7H    basis set group =>   2
Atom   8H    basis set group =>   2
Atom   9H    basis set group =>   2
Atom  10N    basis set group =>   3
Atom  11O    basis set group =>   4
Atom  12O    basis set group =>   4
Atom  13C    basis set group =>   1
Atom  14C    basis set group =>   1
Atom  15H    basis set group =>   2
Atom  16H    basis set group =>   2
Atom  17H    basis set group =>   2
Atom  18N    basis set group =>   3
Atom  19O    basis set group =>   4
Atom  20O    basis set group =>   4
Atom  21H    basis set group =>   2
Atom  22C    basis set group =>   1
Atom  23C    basis set group =>   1
Atom  24C    basis set group =>   1
Atom  25C    basis set group =>   1
Atom  26N    basis set group =>   3
Atom  27C    basis set group =>   1
Atom  28H    basis set group =>   2
Atom  29H    basis set group =>   2
Atom  30H    basis set group =>   2
Atom  31H    basis set group =>   2
Atom  32H    basis set group =>   2
Atom  33H    basis set group =>   2
Atom  34H    basis set group =>   2
Atom  35H    basis set group =>   2
Atom  36H    basis set group =>   2
Atom  37H    basis set group =>   2
Atom  38H    basis set group =>   2
Atom  39H    basis set group =>   2
Atom  40O    basis set group =>   4
---------------------------------
AUXILIARY/J BASIS SET INFORMATION
---------------------------------
There are 4 groups of distinct atoms

 Group   1 Type C   : 12s5p4d2f1g contracted to 6s4p3d1f1g pattern {711111/2111/211/2/1}
 Group   2 Type H   : 5s2p1d contracted to 3s1p1d pattern {311/2/1}
 Group   3 Type N   : 12s5p4d2f1g contracted to 6s4p3d1f1g pattern {711111/2111/211/2/1}
 Group   4 Type O   : 12s5p4d2f1g contracted to 6s4p3d1f1g pattern {711111/2111/211/2/1}

Atom   0C    basis set group =>   1
Atom   1C    basis set group =>   1
Atom   2C    basis set group =>   1
Atom   3C    basis set group =>   1
Atom   4C    basis set group =>   1
Atom   5C    basis set group =>   1
Atom   6H    basis set group =>   2
Atom   7H    basis set group =>   2
Atom   8H    basis set group =>   2
Atom   9H    basis set group =>   2
Atom  10N    basis set group =>   3
Atom  11O    basis set group =>   4
Atom  12O    basis set group =>   4
Atom  13C    basis set group =>   1
Atom  14C    basis set group =>   1
Atom  15H    basis set group =>   2
Atom  16H    basis set group =>   2
Atom  17H    basis set group =>   2
Atom  18N    basis set group =>   3
Atom  19O    basis set group =>   4
Atom  20O    basis set group =>   4
Atom  21H    basis set group =>   2
Atom  22C    basis set group =>   1
Atom  23C    basis set group =>   1
Atom  24C    basis set group =>   1
Atom  25C    basis set group =>   1
Atom  26N    basis set group =>   3
Atom  27C    basis set group =>   1
Atom  28H    basis set group =>   2
Atom  29H    basis set group =>   2
Atom  30H    basis set group =>   2
Atom  31H    basis set group =>   2
Atom  32H    basis set group =>   2
Atom  33H    basis set group =>   2
Atom  34H    basis set group =>   2
Atom  35H    basis set group =>   2
Atom  36H    basis set group =>   2
Atom  37H    basis set group =>   2
Atom  38H    basis set group =>   2
Atom  39H    basis set group =>   2
Atom  40O    basis set group =>   4


           ************************************************************
           *        Program running with 102 parallel MPI-processes   *
           *              working on a common directory               *
           ************************************************************
------------------------------------------------------------------------------
                           ORCA GTO INTEGRAL CALCULATION
                           -- RI-GTO INTEGRALS CHOSEN --
------------------------------------------------------------------------------
------------------------------------------------------------------------------
                   ___                                                        
                  /   \      - P O W E R E D   B Y -                         
                 /     \                                                     
                 |  |  |   _    _      __       _____    __    __             
                 |  |  |  | |  | |    /  \     |  _  \  |  |  /  |          
                  \  \/   | |  | |   /    \    | | | |  |  | /  /          
                 / \  \   | |__| |  /  /\  \   | |_| |  |  |/  /          
                |  |  |   |  __  | /  /__\  \  |    /   |      \           
                |  |  |   | |  | | |   __   |  |    \   |  |\   \          
                \     /   | |  | | |  |  |  |  | |\  \  |  | \   \       
                 \___/    |_|  |_| |__|  |__|  |_| \__\ |__|  \__/        
                                                                              
                      - O R C A' S   B I G   F R I E N D -                    
                                      &                                       
                       - I N T E G R A L  F E E D E R -                       
                                                                              
 v1 FN, 2020, v2 2021                                                         
------------------------------------------------------------------------------


Reading SHARK input file /home/rudenko/mop_saddle_orca_4_serv/for_orca/m-o2nc6h4chno2ch3_piperidine/orca/orca_start/start.SHARKINP.tmp ... ok
----------------------
SHARK INTEGRAL PACKAGE
----------------------

Number of atoms                             ...     41
Number of basis functions                   ...    771
Number of shells                            ...    311
Maximum angular momentum                    ...      3
Integral batch strategy                     ... SHARK/LIBINT Hybrid
RI-J (if used) integral strategy            ... SPLIT-RIJ (Revised 2003 algorithm where possible)
Printlevel                                  ...      1
Contraction scheme used                     ... SEGMENTED contraction
Coulomb Range Separation                    ... NOT USED
Exchange Range Separation                   ... NOT USED
Finite Nucleus Model                        ... NOT USED
Auxiliary Coulomb fitting basis             ... AVAILABLE
   # of basis functions in Aux-J            ...   1249
   # of shells in Aux-J                     ...    415
   Maximum angular momentum in Aux-J        ...      4
Auxiliary J/K fitting basis                 ... NOT available
Auxiliary Correlation fitting basis         ... NOT available
Auxiliary 'external' fitting basis          ... NOT available
Integral threshold                          ...     2.500000e-11
Primitive cut-off                           ...     2.500000e-12
Primitive pair pre-selection threshold      ...     2.500000e-12

Calculating pre-screening integrals         ... done (  0.1 sec) Dimension = 311
Organizing shell pair data                  ... done (  0.9 sec)
Shell pair information
Total number of shell pairs                 ...     48516
Shell pairs after pre-screening             ...     31002
Total number of primitive shell pairs       ...    146592
Primitive shell pairs kept                  ...     62184
          la=0 lb=0:   8732 shell pairs
          la=1 lb=0:   9228 shell pairs
          la=1 lb=1:   2492 shell pairs
          la=2 lb=0:   4171 shell pairs
          la=2 lb=1:   2240 shell pairs
          la=2 lb=2:    527 shell pairs
          la=3 lb=0:   1967 shell pairs
          la=3 lb=1:   1067 shell pairs
          la=3 lb=2:    463 shell pairs
          la=3 lb=3:    115 shell pairs

Calculating one electron integrals          ... done (  0.3 sec)
Calculating RI/J V-Matrix + Cholesky decomp.... done (  0.3 sec)
Calculating Nuclear repulsion               ... done (  0.0 sec) ENN=   1664.762290609517 Eh

SHARK setup successfully completed in   2.1 seconds

Maximum memory used throughout the entire GTOINT-calculation: 48.3 MB


           ************************************************************
           *        Program running with 102 parallel MPI-processes   *
           *              working on a common directory               *
           ************************************************************
-------------------------------------------------------------------------------
                                 ORCA SCF
-------------------------------------------------------------------------------

------------
SCF SETTINGS
------------
Hamiltonian:
 Density Functional     Method          .... DFT(GTOs)
 Exchange Functional    Exchange        .... B88
   X-Alpha parameter    XAlpha          ....  0.666667
   Becke's b parameter  XBeta           ....  0.004200
 Correlation Functional Correlation     .... LYP
 LDA part of GGA corr.  LDAOpt          .... VWN-5
 Gradients option       PostSCFGGA      .... off
 Hybrid DFT is turned on
   Fraction HF Exchange ScalHFX         ....  0.200000
   Scaling of DF-GGA-X  ScalDFX         ....  0.720000
   Scaling of DF-GGA-C  ScalDFC         ....  0.810000
   Scaling of DF-LDA-C  ScalLDAC        ....  1.000000
   Perturbative correction              ....  0.000000
   Density functional embedding theory  .... OFF
   NL short-range parameter             ....  4.800000
 RI-approximation to the Coulomb term is turned on
   Number of AuxJ basis functions       .... 1249
   RIJ-COSX (HFX calculated with COS-X)).... on


General Settings:
 Integral files         IntName         .... /home/rudenko/mop_saddle_orca_4_serv/for_orca/m-o2nc6h4chno2ch3_piperidine/orca/orca_start/start
 Hartree-Fock type      HFTyp           .... UHF
 Total Charge           Charge          ....    0
 Multiplicity           Mult            ....    2
 Number of Electrons    NEL             ....  159
 Basis Dimension        Dim             ....  771
 Nuclear Repulsion      ENuc            ....   1664.7622906095 Eh

Convergence Acceleration:
 DIIS                   CNVDIIS         .... on
   Start iteration      DIISMaxIt       ....    12
   Startup error        DIISStart       ....  0.200000
   # of expansion vecs  DIISMaxEq       ....     5
   Bias factor          DIISBfac        ....   1.050
   Max. coefficient     DIISMaxC        ....  10.000
 Trust-Rad. Augm. Hess. CNVTRAH         .... auto
   Auto Start mean grad. ratio tolernc. ....  1.125000
   Auto Start start iteration           ....    20
   Auto Start num. interpolation iter.  ....    10
   Max. Number of Micro iterations      ....    16
   Max. Number of Macro iterations      .... Maxiter - #DIIS iter
   Number of Davidson start vectors     ....     2
   Converg. threshold I  (grad. norm)   ....   1.000e-05
   Converg. threshold II (energy diff.) ....   1.000e-08
   Grad. Scal. Fac. for Micro threshold ....   0.100
   Minimum threshold for Micro iter.    ....   0.010
   NR start threshold (gradient norm)   ....   0.001
   Initial trust radius                 ....   0.400
   Minimum AH scaling param. (alpha)    ....   1.000
   Maximum AH scaling param. (alpha)    .... 1000.000
   Orbital update algorithm             .... Taylor
   White noise on init. David. guess    .... on
   Maximum white noise                  ....   0.010
   Quad. conv. algorithm                .... NR
 SOSCF                  CNVSOSCF        .... off
 Level Shifting         CNVShift        .... on
   Level shift para.    LevelShift      ....    0.2500
   Turn off err/grad.   ShiftErr        ....    0.0010
 Zerner damping         CNVZerner       .... off
 Static damping         CNVDamp         .... on
   Fraction old density DampFac         ....    0.7000
   Max. Damping (<1)    DampMax         ....    0.9800
   Min. Damping (>=0)   DampMin         ....    0.0000
   Turn off err/grad.   DampErr         ....    0.1000
 Fernandez-Rico         CNVRico         .... off

SCF Procedure:
 Maximum # iterations   MaxIter         ....   125
 SCF integral mode      SCFMode         .... Direct
   Integral package                     .... SHARK and LIBINT hybrid scheme
 Reset frequency        DirectResetFreq ....    20
 Integral Threshold     Thresh          ....  2.500e-11 Eh
 Primitive CutOff       TCut            ....  2.500e-12 Eh

Convergence Tolerance:
 Convergence Check Mode ConvCheckMode   .... Total+1el-Energy
 Convergence forced     ConvForced      .... 0
 Energy Change          TolE            ....  1.000e-08 Eh
 1-El. energy change                    ....  1.000e-05 Eh
 DIIS Error             TolErr          ....  5.000e-07


Diagonalization of the overlap matrix:
Smallest eigenvalue                        ... 7.174e-06
Time for diagonalization                   ...    0.431 sec
Threshold for overlap eigenvalues          ... 1.000e-08
Number of eigenvalues below threshold      ... 0
Time for construction of square roots      ...    0.589 sec
Total time needed                          ...    1.026 sec

Time for model grid setup =    0.303 sec

------------------------------
INITIAL GUESS: MODEL POTENTIAL
------------------------------
Loading Hartree-Fock densities                     ... done
Calculating cut-offs                               ... done
Initializing the effective Hamiltonian             ... done
Setting up the integral package (SHARK)            ... done
Starting the Coulomb interaction                   ... done (   0.1 sec)
Reading the grid                                   ... done
Mapping shells                                     ... done
Starting the XC term evaluation                    ... done (   0.1 sec)
  promolecular density results
     # of electrons  =    158.994230504
     EX              =   -133.452277922
     EC              =     -5.439015549
     EX+EC           =   -138.891293471
Transforming the Hamiltonian                       ... done (   0.6 sec)
Diagonalizing the Hamiltonian                      ... done (   0.5 sec)
Back transforming the eigenvectors                 ... done (   0.3 sec)
Now organizing SCF variables                       ... done
                      ------------------
                      INITIAL GUESS DONE (   2.0 sec)
                      ------------------
-------------------
DFT GRID GENERATION
-------------------

General Integration Accuracy     IntAcc      ... 4.388
Radial Grid Type                 RadialGrid  ... OptM3 with GC (2021)
Angular Grid (max. ang.)         AngularGrid ... 4 (Lebedev-302)
Angular grid pruning method      GridPruning ... 4 (adaptive)
Weight generation scheme         WeightScheme... Becke
Basis function cutoff            BFCut       ... 1.0000e-11
Integration weight cutoff        WCut        ... 1.0000e-14
Angular grids for H and He will be reduced by one unit
Partially contracted basis set               ... off
Rotationally invariant grid construction     ... off

Total number of grid points                  ...   189660
Total number of batches                      ...     2984
Average number of points per batch           ...       63
Average number of grid points per atom       ...     4626
Time for grid setup =    1.572 sec

--------------------
COSX GRID GENERATION
--------------------

GRIDX 1
-------
General Integration Accuracy     IntAcc      ... 3.816
Radial Grid Type                 RadialGrid  ... OptM3 with GC (2021)
Angular Grid (max. ang.)         AngularGrid ... 1 (Lebedev-50)
Angular grid pruning method      GridPruning ... 4 (adaptive)
Weight generation scheme         WeightScheme... Becke
Basis function cutoff            BFCut       ... 1.0000e-11
Integration weight cutoff        WCut        ... 1.0000e-14
Angular grids for H and He will be reduced by one unit
Partially contracted basis set               ... on
Rotationally invariant grid construction     ... off

Total number of grid points                  ...    24114
Total number of batches                      ...      397
Average number of points per batch           ...       60
Average number of grid points per atom       ...      588
UseSFitting                                  ... on

GRIDX 2
-------
General Integration Accuracy     IntAcc      ... 4.020
Radial Grid Type                 RadialGrid  ... OptM3 with GC (2021)
Angular Grid (max. ang.)         AngularGrid ... 2 (Lebedev-110)
Angular grid pruning method      GridPruning ... 4 (adaptive)
Weight generation scheme         WeightScheme... Becke
Basis function cutoff            BFCut       ... 1.0000e-11
Integration weight cutoff        WCut        ... 1.0000e-14
Angular grids for H and He will be reduced by one unit
Partially contracted basis set               ... on
Rotationally invariant grid construction     ... off

Total number of grid points                  ...    51917
Total number of batches                      ...      832
Average number of points per batch           ...       62
Average number of grid points per atom       ...     1266
UseSFitting                                  ... on

GRIDX 3
-------
General Integration Accuracy     IntAcc      ... 4.338
Radial Grid Type                 RadialGrid  ... OptM3 with GC (2021)
Angular Grid (max. ang.)         AngularGrid ... 3 (Lebedev-194)
Angular grid pruning method      GridPruning ... 4 (adaptive)
Weight generation scheme         WeightScheme... Becke
Basis function cutoff            BFCut       ... 1.0000e-11
Integration weight cutoff        WCut        ... 1.0000e-14
Angular grids for H and He will be reduced by one unit
Partially contracted basis set               ... on
Rotationally invariant grid construction     ... off

Total number of grid points                  ...   113277
Total number of batches                      ...     1790
Average number of points per batch           ...       63
Average number of grid points per atom       ...     2763
UseSFitting                                  ... on

Time for X-Grid setup             =    3.059 sec


--------------------
CPCM SOLVATION MODEL
--------------------
CPCM parameters:
  Epsilon                                         ...      78.4000
  Refrac                                          ...       1.3300
  Rsolv                                           ...       1.3000
  Surface type                                    ... GAUSSIAN VDW
  Epsilon function type                           ...         CPCM
Radii:
 Radius for C  used is    3.8550 Bohr (=   2.0400 Ang.)
 Radius for H  used is    2.4944 Bohr (=   1.3200 Ang.)
 Radius for N  used is    3.5149 Bohr (=   1.8600 Ang.)
 Radius for O  used is    3.4469 Bohr (=   1.8240 Ang.)
Calculating surface                               ...        done! (  0.0s)
GEPOL surface points                              ...         2281
GEPOL Volume                                      ...    2450.1147
GEPOL Surface-area                                ...    1348.1727
Calculating surface distance matrix               ...        done! (  0.3s)
Performing Cholesky decomposition & store         ...        done! (  0.9s)
Overall time for CPCM initialization              ...                 1.1s
--------------
SCF ITERATIONS
--------------
ITER       Energy         Delta-E        Max-DP      RMS-DP      [F,P]     Damp
               ***  Starting incremental Fock matrix formation  ***
  0  -1046.7103400226   0.000000000000 0.11626361  0.00064910  0.1703219 0.7000
  1  -1047.0483878661  -0.338047843486 0.09683172  0.00051227  0.0689254 0.7000
                               ***Turning on DIIS***
  2  -1047.1667720390  -0.118384172901 0.09266175  0.00061904  0.0176830 0.0000
  3  -1047.3741488391  -0.207376800156 0.09246912  0.00046200  0.0387572 0.0000
  4  -1047.4111907047  -0.037041865549 0.01976363  0.00012629  0.0097263 0.0000
  5  -1047.4138867586  -0.002696053947 0.00843740  0.00004884  0.0026158 0.0000
  6  -1047.4141023677  -0.000215609109 0.00480743  0.00003021  0.0006339 0.0000
               *** Restarting incremental Fock matrix formation ***
                                   *** Resetting DIIS ***
  7  -1047.4140848293   0.000017538466 0.00215364  0.00002074  0.0008244 0.0000
  8  -1047.4140771494   0.000007679881 0.00067671  0.00000503  0.0012786 0.0000
  9  -1047.4140919638  -0.000014814435 0.00054195  0.00000397  0.0002778 0.0000
 10  -1047.4140928983  -0.000000934522 0.00011186  0.00000074  0.0001029 0.0000
 11  -1047.4140929780  -0.000000079645 0.00008824  0.00000050  0.0001041 0.0000
 12  -1047.4140930469  -0.000000068933 0.00008322  0.00000056  0.0000399 0.0000
 13  -1047.4140930715  -0.000000024565 0.00012897  0.00000082  0.0000329 0.0000
 14  -1047.4140930686   0.000000002918 0.00003739  0.00000024  0.0000062 0.0000
 15  -1047.4140930571   0.000000011467 0.00004790  0.00000039  0.0000039 0.0000
                 **** Energy Check signals convergence ****

               *****************************************************
               *                     SUCCESS                       *
               *           SCF CONVERGED AFTER  16 CYCLES          *
               *****************************************************

Old exchange energy                            =    -27.051616922 Eh
New exchange energy                            =    -27.051637651 Eh
Exchange energy change after final integration =     -0.000020729 Eh
Total energy after final integration           =  -1047.414113784 Eh
Final COS-X integration done in                =     4.971 sec

----------------
TOTAL SCF ENERGY
----------------

Total Energy       :        -1047.41411378 Eh          -28501.58703 eV

Components:
Nuclear Repulsion  :         1664.76229061 Eh           45300.48496 eV
Electronic Energy  :        -2712.17640439 Eh          -73802.07199 eV
One Electron Energy:        -4733.79599422 Eh         -128813.13774 eV
Two Electron Energy:         2021.61958983 Eh           55011.06575 eV
Max COSX asymmetry :            0.00000063 Eh               0.00002 eV
CPCM Dielectric    :           -0.03500993 Eh              -0.95267 eV

Virial components:
Potential Energy   :        -2090.15629309 Eh          -56876.04426 eV
Kinetic Energy     :         1042.74217930 Eh           28374.45723 eV
Virial Ratio       :            2.00448043


DFT components:
N(Alpha)           :       79.999956680675 electrons
N(Beta)            :       78.999991504311 electrons
N(Total)           :      158.999948184985 electrons
E(X)               :     -107.664315834932 Eh       
E(C)               :       -6.402535744683 Eh       
E(XC)              :     -114.066851579615 Eh       
DFET-embed. en.    :        0.000000000000 Eh       
CPCM Solvation Model Properties:
Surface-charge          :           -0.03330499
Charge-correction       :            0.00000748 Eh               0.00020 eV
Free-energy (cav+disp)  :  This term is not implemented in the current solvation scheme

---------------
SCF CONVERGENCE
---------------

  Last Energy change         ...    2.5564e-09  Tolerance :   1.0000e-08
  Last MAX-Density change    ...    0.0000e+00  Tolerance :   1.0000e-07
  Last RMS-Density change    ...    0.0000e+00  Tolerance :   5.0000e-09
  Last DIIS Error            ...    1.2191e-06  Tolerance :   5.0000e-07

             **** THE GBW FILE WAS UPDATED (/home/rudenko/mop_saddle_orca_4_serv/for_orca/m-o2nc6h4chno2ch3_piperidine/orca/orca_start/start.gbw) ****
             **** DENSITY /home/rudenko/mop_saddle_orca_4_serv/for_orca/m-o2nc6h4chno2ch3_piperidine/orca/orca_start/start.scfp WAS UPDATED ****
             **** ENERGY FILE WAS UPDATED (/home/rudenko/mop_saddle_orca_4_serv/for_orca/m-o2nc6h4chno2ch3_piperidine/orca/orca_start/start.en.tmp) ****
----------------------
UHF SPIN CONTAMINATION
----------------------

Warning: in a DFT calculation there is little theoretical justification to 
         calculate <S**2> as in Hartree-Fock theory. We will do it anyways
         but you should keep in mind that the values have only limited relevance

Expectation value of <S**2>     :     0.754258
Ideal value S*(S+1) for S=0.5   :     0.750000
Deviation                       :     0.004258

             **** THE GBW FILE WAS UPDATED (/home/rudenko/mop_saddle_orca_4_serv/for_orca/m-o2nc6h4chno2ch3_piperidine/orca/orca_start/start.gbw) ****
             **** DENSITY /home/rudenko/mop_saddle_orca_4_serv/for_orca/m-o2nc6h4chno2ch3_piperidine/orca/orca_start/start.scfp WAS UPDATED ****
----------------
ORBITAL ENERGIES
----------------
                 SPIN UP ORBITALS
  NO   OCC          E(Eh)            E(eV) 
   0   1.0000     -19.171622      -521.6864 
   1   1.0000     -19.171469      -521.6822 
   2   1.0000     -19.166857      -521.5567 
   3   1.0000     -19.166630      -521.5505 
   4   1.0000     -19.107646      -519.9455 
   5   1.0000     -14.562321      -396.2609 
   6   1.0000     -14.556168      -396.0935 
   7   1.0000     -14.309200      -389.3731 
   8   1.0000     -10.243162      -278.7306 
   9   1.0000     -10.239441      -278.6293 
  10   1.0000     -10.208321      -277.7825 
  11   1.0000     -10.205706      -277.7114 
  12   1.0000     -10.205144      -277.6961 
  13   1.0000     -10.199179      -277.5338 
  14   1.0000     -10.194494      -277.4063 
  15   1.0000     -10.194358      -277.4026 
  16   1.0000     -10.191167      -277.3157 
  17   1.0000     -10.177968      -276.9566 
  18   1.0000     -10.165655      -276.6215 
  19   1.0000     -10.164283      -276.5842 
  20   1.0000     -10.162289      -276.5300 
  21   1.0000      -1.245794       -33.8998 
  22   1.0000      -1.244865       -33.8745 
  23   1.0000      -1.068118       -29.0650 
  24   1.0000      -1.064211       -28.9587 
  25   1.0000      -0.993467       -27.0336 
  26   1.0000      -0.907734       -24.7007 
  27   1.0000      -0.900159       -24.4946 
  28   1.0000      -0.853998       -23.2385 
  29   1.0000      -0.810307       -22.0496 
  30   1.0000      -0.782302       -21.2875 
  31   1.0000      -0.763713       -20.7817 
  32   1.0000      -0.745944       -20.2982 
  33   1.0000      -0.711885       -19.3714 
  34   1.0000      -0.703641       -19.1470 
  35   1.0000      -0.643725       -17.5166 
  36   1.0000      -0.638962       -17.3870 
  37   1.0000      -0.613793       -16.7022 
  38   1.0000      -0.608703       -16.5637 
  39   1.0000      -0.590809       -16.0767 
  40   1.0000      -0.569422       -15.4948 
  41   1.0000      -0.552078       -15.0228 
  42   1.0000      -0.550800       -14.9880 
  43   1.0000      -0.548142       -14.9157 
  44   1.0000      -0.541129       -14.7249 
  45   1.0000      -0.531699       -14.4683 
  46   1.0000      -0.522599       -14.2206 
  47   1.0000      -0.515408       -14.0250 
  48   1.0000      -0.506669       -13.7872 
  49   1.0000      -0.490000       -13.3336 
  50   1.0000      -0.483288       -13.1509 
  51   1.0000      -0.451398       -12.2832 
  52   1.0000      -0.450887       -12.2693 
  53   1.0000      -0.449716       -12.2374 
  54   1.0000      -0.438041       -11.9197 
  55   1.0000      -0.430139       -11.7047 
  56   1.0000      -0.415449       -11.3049 
  57   1.0000      -0.407214       -11.0809 
  58   1.0000      -0.405934       -11.0460 
  59   1.0000      -0.394739       -10.7414 
  60   1.0000      -0.390911       -10.6372 
  61   1.0000      -0.387359       -10.5406 
  62   1.0000      -0.385599       -10.4927 
  63   1.0000      -0.374898       -10.2015 
  64   1.0000      -0.366570        -9.9749 
  65   1.0000      -0.362868        -9.8741 
  66   1.0000      -0.349103        -9.4996 
  67   1.0000      -0.333518        -9.0755 
  68   1.0000      -0.332865        -9.0577 
  69   1.0000      -0.331669        -9.0252 
  70   1.0000      -0.329442        -8.9646 
  71   1.0000      -0.323524        -8.8035 
  72   1.0000      -0.319334        -8.6895 
  73   1.0000      -0.312859        -8.5133 
  74   1.0000      -0.306347        -8.3361 
  75   1.0000      -0.299039        -8.1373 
  76   1.0000      -0.284828        -7.7506 
  77   1.0000      -0.274705        -7.4751 
  78   1.0000      -0.238821        -6.4986 
  79   1.0000      -0.182272        -4.9599 
  80   0.0000      -0.106148        -2.8884 
  81   0.0000      -0.084554        -2.3008 
  82   0.0000      -0.035784        -0.9737 
  83   0.0000      -0.007857        -0.2138 
  84   0.0000       0.025340         0.6895 
  85   0.0000       0.046176         1.2565 
  86   0.0000       0.050015         1.3610 
  87   0.0000       0.063442         1.7263 
  88   0.0000       0.067074         1.8252 
  89   0.0000       0.074669         2.0319 
  90   0.0000       0.084669         2.3040 
  91   0.0000       0.085708         2.3322 
  92   0.0000       0.094089         2.5603 
  93   0.0000       0.095705         2.6043 
  94   0.0000       0.097834         2.6622 
  95   0.0000       0.105769         2.8781 
  96   0.0000       0.111230         3.0267 
  97   0.0000       0.112886         3.0718 
  98   0.0000       0.119616         3.2549 
  99   0.0000       0.121282         3.3003 
 100   0.0000       0.125070         3.4033 
 101   0.0000       0.134122         3.6497 
 102   0.0000       0.136210         3.7065 
 103   0.0000       0.141265         3.8440 
 104   0.0000       0.149903         4.0791 
 105   0.0000       0.150385         4.0922 
 106   0.0000       0.160121         4.3571 
 107   0.0000       0.171990         4.6801 
 108   0.0000       0.173144         4.7115 
 109   0.0000       0.179496         4.8843 
 110   0.0000       0.182676         4.9709 
 111   0.0000       0.188822         5.1381 
 112   0.0000       0.196965         5.3597 
 113   0.0000       0.197818         5.3829 
 114   0.0000       0.204701         5.5702 
 115   0.0000       0.212337         5.7780 
 116   0.0000       0.212540         5.7835 
 117   0.0000       0.218652         5.9498 
 118   0.0000       0.219826         5.9818 
 119   0.0000       0.224118         6.0986 
 120   0.0000       0.230780         6.2798 
 121   0.0000       0.234040         6.3685 
 122   0.0000       0.238839         6.4992 
 123   0.0000       0.239791         6.5250 
 124   0.0000       0.244760         6.6603 
 125   0.0000       0.251529         6.8444 
 126   0.0000       0.262716         7.1489 
 127   0.0000       0.265221         7.2170 
 128   0.0000       0.270354         7.3567 
 129   0.0000       0.275467         7.4959 
 130   0.0000       0.279693         7.6108 
 131   0.0000       0.283590         7.7169 
 132   0.0000       0.287426         7.8213 
 133   0.0000       0.291621         7.9354 
 134   0.0000       0.298532         8.1235 
 135   0.0000       0.305383         8.3099 
 136   0.0000       0.311069         8.4646 
 137   0.0000       0.315587         8.5876 
 138   0.0000       0.316486         8.6120 
 139   0.0000       0.317528         8.6404 
 140   0.0000       0.330833         9.0024 
 141   0.0000       0.334216         9.0945 
 142   0.0000       0.348280         9.4772 
 143   0.0000       0.350302         9.5322 
 144   0.0000       0.355702         9.6791 
 145   0.0000       0.360980         9.8228 
 146   0.0000       0.365336         9.9413 
 147   0.0000       0.367560        10.0018 
 148   0.0000       0.371036        10.0964 
 149   0.0000       0.379325        10.3220 
 150   0.0000       0.380664        10.3584 
 151   0.0000       0.388185        10.5630 
 152   0.0000       0.393180        10.6990 
 153   0.0000       0.395751        10.7689 
 154   0.0000       0.400586        10.9005 
 155   0.0000       0.402654        10.9568 
 156   0.0000       0.406081        11.0500 
 157   0.0000       0.408051        11.1036 
 158   0.0000       0.410922        11.1817 
 159   0.0000       0.422701        11.5023 
 160   0.0000       0.426986        11.6189 
 161   0.0000       0.427924        11.6444 
 162   0.0000       0.431716        11.7476 
 163   0.0000       0.436497        11.8777 
 164   0.0000       0.441639        12.0176 
 165   0.0000       0.442887        12.0516 
 166   0.0000       0.445028        12.1098 
 167   0.0000       0.450164        12.2496 
 168   0.0000       0.450750        12.2655 
 169   0.0000       0.453789        12.3482 
 170   0.0000       0.456338        12.4176 
 171   0.0000       0.457862        12.4591 
 172   0.0000       0.463944        12.6246 
 173   0.0000       0.464868        12.6497 
 174   0.0000       0.468721        12.7546 
 175   0.0000       0.475382        12.9358 
 176   0.0000       0.477726        12.9996 
 177   0.0000       0.483738        13.1632 
 178   0.0000       0.487749        13.2723 
 179   0.0000       0.491320        13.3695 
 180   0.0000       0.500268        13.6130 
 181   0.0000       0.502720        13.6797 
 182   0.0000       0.508469        13.8361 
 183   0.0000       0.514350        13.9962 
 184   0.0000       0.517905        14.0929 
 185   0.0000       0.519462        14.1353 
 186   0.0000       0.522909        14.2291 
 187   0.0000       0.526972        14.3396 
 188   0.0000       0.530771        14.4430 
 189   0.0000       0.537857        14.6358 
 190   0.0000       0.542807        14.7705 
 191   0.0000       0.559550        15.2261 
 192   0.0000       0.562907        15.3175 
 193   0.0000       0.567474        15.4417 
 194   0.0000       0.570407        15.5216 
 195   0.0000       0.579325        15.7642 
 196   0.0000       0.584379        15.9018 
 197   0.0000       0.599240        16.3062 
 198   0.0000       0.601522        16.3682 
 199   0.0000       0.607659        16.5352 
 200   0.0000       0.610311        16.6074 
 201   0.0000       0.619094        16.8464 
 202   0.0000       0.628803        17.1106 
 203   0.0000       0.632962        17.2238 
 204   0.0000       0.633671        17.2431 
 205   0.0000       0.640492        17.4287 
 206   0.0000       0.644822        17.5465 
 207   0.0000       0.652714        17.7613 
 208   0.0000       0.656181        17.8556 
 209   0.0000       0.663975        18.0677 
 210   0.0000       0.671488        18.2721 
 211   0.0000       0.676295        18.4029 
 212   0.0000       0.692029        18.8311 
 213   0.0000       0.701367        19.0852 
 214   0.0000       0.706095        19.2138 
 215   0.0000       0.713900        19.4262 
 216   0.0000       0.722353        19.6562 
 217   0.0000       0.730169        19.8689 
 218   0.0000       0.733945        19.9717 
 219   0.0000       0.739894        20.1335 
 220   0.0000       0.755335        20.5537 
 221   0.0000       0.764587        20.8055 
 222   0.0000       0.769356        20.9352 
 223   0.0000       0.783271        21.3139 
 224   0.0000       0.789672        21.4881 
 225   0.0000       0.797132        21.6911 
 226   0.0000       0.812858        22.1190 
 227   0.0000       0.826388        22.4872 
 228   0.0000       0.831331        22.6217 
 229   0.0000       0.835775        22.7426 
 230   0.0000       0.845168        22.9982 
 231   0.0000       0.852370        23.1942 
 232   0.0000       0.856649        23.3106 
 233   0.0000       0.859180        23.3795 
 234   0.0000       0.869345        23.6561 
 235   0.0000       0.879767        23.9397 
 236   0.0000       0.882534        24.0150 
 237   0.0000       0.896176        24.3862 
 238   0.0000       0.902358        24.5544 
 239   0.0000       0.904719        24.6186 
 240   0.0000       0.917823        24.9752 
 241   0.0000       0.924373        25.1535 
 242   0.0000       0.926873        25.2215 
 243   0.0000       0.937182        25.5020 
 244   0.0000       0.947678        25.7876 
 245   0.0000       0.962707        26.1966 
 246   0.0000       0.963414        26.2158 
 247   0.0000       0.973221        26.4827 
 248   0.0000       0.978981        26.6394 
 249   0.0000       0.991297        26.9746 
 250   0.0000       1.012166        27.5424 
 251   0.0000       1.016222        27.6528 
 252   0.0000       1.028799        27.9951 
 253   0.0000       1.036157        28.1953 
 254   0.0000       1.046069        28.4650 
 255   0.0000       1.050436        28.5838 
 256   0.0000       1.064223        28.9590 
 257   0.0000       1.068942        29.0874 
 258   0.0000       1.074475        29.2379 
 259   0.0000       1.078612        29.3505 
 260   0.0000       1.080742        29.4085 
 261   0.0000       1.091189        29.6928 
 262   0.0000       1.098372        29.8882 
 263   0.0000       1.108848        30.1733 
 264   0.0000       1.118077        30.4244 
 265   0.0000       1.122093        30.5337 
 266   0.0000       1.132999        30.8305 
 267   0.0000       1.139448        31.0060 
 268   0.0000       1.145026        31.1577 
 269   0.0000       1.160122        31.5685 
 270   0.0000       1.170671        31.8556 
 271   0.0000       1.174165        31.9507 
 272   0.0000       1.182214        32.1697 
[...]
      f+2     :     0.000002
      f-2     :     0.000002
      f+3     :     0.000001
      f-3     :     0.000000
 11 O s       :     0.000003  s :     0.000003
      pz      :     0.000218  p :     0.000250
      px      :     0.000010
      py      :     0.000022
      dz2     :     0.000001  d :     0.000004
      dxz     :     0.000003
      dyz     :     0.000000
      dx2y2   :    -0.000000
      dxy     :     0.000000
      f0      :     0.000000  f :     0.000000
      f+1     :     0.000000
      f-1     :     0.000000
      f+2     :     0.000000
      f-2     :    -0.000000
      f+3     :    -0.000000
      f-3     :     0.000000
 12 O s       :     0.000002  s :     0.000002
      pz      :     0.000118  p :     0.000136
      px      :     0.000005
      py      :     0.000012
      dz2     :     0.000000  d :     0.000003
      dxz     :     0.000000
      dyz     :     0.000002
      dx2y2   :     0.000000
      dxy     :    -0.000000
      f0      :     0.000000  f :     0.000000
      f+1     :    -0.000000
      f-1     :     0.000000
      f+2     :     0.000000
      f-2     :     0.000000
      f+3     :     0.000000
      f-3     :     0.000000
 13 C s       :     0.000104  s :     0.000104
      pz      :     0.000321  p :     0.000526
      px      :     0.000114
      py      :     0.000091
      dz2     :     0.000020  d :     0.000088
      dxz     :    -0.000001
      dyz     :     0.000053
      dx2y2   :     0.000002
      dxy     :     0.000014
      f0      :    -0.000000  f :     0.000013
      f+1     :     0.000006
      f-1     :     0.000005
      f+2     :     0.000000
      f-2     :     0.000001
      f+3     :     0.000000
      f-3     :     0.000000
 14 C s       :     0.000157  s :     0.000157
      pz      :     0.000578  p :     0.000792
      px      :     0.000137
      py      :     0.000077
      dz2     :     0.000000  d :     0.000033
      dxz     :     0.000002
      dyz     :     0.000024
      dx2y2   :    -0.000003
      dxy     :     0.000009
      f0      :    -0.000000  f :     0.000002
      f+1     :     0.000000
      f-1     :     0.000000
      f+2     :     0.000000
      f-2     :     0.000000
      f+3     :     0.000000
      f-3     :     0.000001
 15 H s       :    -0.000001  s :    -0.000001
      pz      :     0.000011  p :     0.000019
      px      :     0.000008
      py      :     0.000000
 16 H s       :     0.000009  s :     0.000009
      pz      :     0.000015  p :     0.000020
      px      :     0.000004
      py      :     0.000001
 17 H s       :     0.000825  s :     0.000825
      pz      :     0.000096  p :     0.000144
      px      :     0.000035
      py      :     0.000013
 18 N s       :     0.000011  s :     0.000011
      pz      :     0.000013  p :     0.000019
      px      :    -0.000003
      py      :     0.000009
      dz2     :     0.000002  d :     0.000009
      dxz     :    -0.000000
      dyz     :     0.000001
      dx2y2   :     0.000005
      dxy     :     0.000001
      f0      :     0.000000  f :     0.000003
      f+1     :     0.000000
      f-1     :     0.000001
      f+2     :     0.000001
      f-2     :     0.000000
      f+3     :     0.000000
      f-3     :     0.000001
 19 O s       :     0.000001  s :     0.000001
      pz      :     0.000022  p :     0.000025
      px      :     0.000001
      py      :     0.000002
      dz2     :     0.000001  d :     0.000001
      dxz     :     0.000000
      dyz     :     0.000000
      dx2y2   :    -0.000000
      dxy     :    -0.000000
      f0      :    -0.000000  f :     0.000000
      f+1     :     0.000000
      f-1     :     0.000000
      f+2     :     0.000000
      f-2     :    -0.000000
      f+3     :    -0.000000
      f-3     :    -0.000000
 20 O s       :     0.000010  s :     0.000010
      pz      :     0.000010  p :     0.000051
      px      :     0.000035
      py      :     0.000007
      dz2     :     0.000000  d :     0.000001
      dxz     :     0.000000
      dyz     :     0.000000
      dx2y2   :     0.000000
      dxy     :    -0.000000
      f0      :     0.000000  f :    -0.000000
      f+1     :     0.000000
      f-1     :     0.000000
      f+2     :     0.000000
      f-2     :    -0.000000
      f+3     :    -0.000000
      f-3     :     0.000000
 21 H s       :     0.000160  s :     0.000160
      pz      :     0.000015  p :     0.000025
      px      :    -0.000001
      py      :     0.000010
 22 C s       :     0.024886  s :     0.024886
      pz      :     0.284890  p :     0.710551
      px      :     0.012725
      py      :     0.412936
      dz2     :    -0.000592  d :     0.004691
      dxz     :     0.003548
      dyz     :     0.001007
      dx2y2   :    -0.001551
      dxy     :     0.002279
      f0      :    -0.000077  f :    -0.001009
      f+1     :    -0.000141
      f-1     :    -0.000413
      f+2     :     0.000507
      f-2     :    -0.000418
      f+3     :    -0.000182
      f-3     :    -0.000283
 23 C s       :    -0.001788  s :    -0.001788
      pz      :    -0.005784  p :    -0.018144
      px      :    -0.008199
      py      :    -0.004160
      dz2     :     0.012492  d :     0.076582
      dxz     :     0.016805
      dyz     :     0.003488
      dx2y2   :     0.011505
      dxy     :     0.032291
      f0      :     0.000123  f :     0.007235
      f+1     :     0.002549
      f-1     :     0.000498
      f+2     :     0.002124
      f-2     :     0.000193
      f+3     :     0.001350
      f-3     :     0.000396
 24 C s       :     0.003244  s :     0.003244
      pz      :     0.001535  p :     0.012805
      px      :     0.008027
      py      :     0.003243
      dz2     :     0.000634  d :     0.000059
      dxz     :    -0.000215
      dyz     :     0.000330
      dx2y2   :    -0.001228
      dxy     :     0.000539
      f0      :    -0.000020  f :    -0.000189
      f+1     :    -0.000017
      f-1     :    -0.000014
      f+2     :    -0.000020
      f-2     :    -0.000013
      f+3     :    -0.000100
      f-3     :    -0.000005
 25 C s       :     0.000474  s :     0.000474
      pz      :    -0.000415  p :    -0.000718
      px      :     0.000101
      py      :    -0.000404
      dz2     :     0.000544  d :     0.001939
      dxz     :     0.000319
      dyz     :    -0.000082
      dx2y2   :     0.000675
      dxy     :     0.000483
      f0      :     0.000025  f :     0.000133
      f+1     :     0.000012
      f-1     :     0.000004
      f+2     :     0.000018
      f-2     :     0.000007
      f+3     :     0.000046
      f-3     :     0.000022
 26 N s       :     0.001670  s :     0.001670
      pz      :     0.002476  p :     0.015538
      px      :     0.009715
      py      :     0.003347
      dz2     :     0.000231  d :    -0.000422
      dxz     :    -0.000323
      dyz     :    -0.000146
      dx2y2   :    -0.000152
      dxy     :    -0.000032
      f0      :    -0.000013  f :    -0.000080
      f+1     :     0.000004
      f-1     :    -0.000005
      f+2     :    -0.000008
      f-2     :    -0.000031
      f+3     :    -0.000014
      f-3     :    -0.000015
 27 C s       :    -0.002343  s :    -0.002343
      pz      :    -0.008604  p :    -0.015980
      px      :    -0.000071
      py      :    -0.007305
      dz2     :     0.049898  d :     0.076239
      dxz     :     0.005860
      dyz     :     0.012449
      dx2y2   :     0.004707
      dxy     :     0.003325
      f0      :     0.003588  f :     0.007444
      f+1     :     0.000233
      f-1     :     0.000685
      f+2     :     0.001727
      f-2     :     0.000182
      f+3     :     0.000187
      f-3     :     0.000841
 28 H s       :    -0.016722  s :    -0.016722
      pz      :     0.007082  p :     0.019113
      px      :     0.002314
      py      :     0.009718
 29 H s       :     0.004655  s :     0.004655
      pz      :    -0.000175  p :    -0.000602
      px      :    -0.000227
      py      :    -0.000200
 30 H s       :     0.040410  s :     0.040410
      pz      :    -0.000176  p :    -0.000566
      px      :    -0.000017
      py      :    -0.000373
 31 H s       :     0.000460  s :     0.000460
      pz      :     0.000044  p :     0.000297
      px      :     0.000268
      py      :    -0.000015
 32 H s       :     0.000633  s :     0.000633
      pz      :     0.000032  p :     0.000541
      px      :    -0.000011
      py      :     0.000520
 33 H s       :     0.000972  s :     0.000972
      pz      :    -0.000001  p :    -0.000020
      px      :    -0.000027
      py      :     0.000008
 34 H s       :     0.000508  s :     0.000508
      pz      :     0.000035  p :     0.000097
      px      :    -0.000009
      py      :     0.000071
 35 H s       :     0.001837  s :     0.001837
      pz      :    -0.000015  p :     0.000515
      px      :     0.000123
      py      :     0.000406
 36 H s       :     0.005731  s :     0.005731
      pz      :    -0.000402  p :    -0.000728
      px      :    -0.000168
      py      :    -0.000158
 37 H s       :     0.032446  s :     0.032446
      pz      :    -0.000420  p :    -0.000444
      px      :     0.000077
      py      :    -0.000102
 38 H s       :     0.000263  s :     0.000263
      pz      :     0.000219  p :     0.000298
      px      :     0.000009
      py      :     0.000070
 39 H s       :     0.000027  s :     0.000027
      pz      :     0.000015  p :     0.000031
      px      :     0.000004
      py      :     0.000012
 40 O s       :     0.000096  s :     0.000096
      pz      :     0.000361  p :     0.000701
      px      :     0.000179
      py      :     0.000161
      dz2     :    -0.000005  d :     0.000005
      dxz     :     0.000001
      dyz     :     0.000008
      dx2y2   :     0.000001
      dxy     :    -0.000000
      f0      :    -0.000000  f :     0.000000
      f+1     :    -0.000000
      f-1     :    -0.000000
      f+2     :     0.000000
      f-2     :     0.000000
      f+3     :     0.000000
      f-3     :    -0.000000


                      *****************************
                      * MAYER POPULATION ANALYSIS *
                      *****************************

  NA   - Mulliken gross atomic population
  ZA   - Total nuclear charge
  QA   - Mulliken gross atomic charge
  VA   - Mayer's total valence
  BVA  - Mayer's bonded valence
  FA   - Mayer's free valence

  ATOM       NA         ZA         QA         VA         BVA        FA
  0 C      6.0981     6.0000    -0.0981     3.8566     3.8566     0.0000
  1 C      6.1728     6.0000    -0.1728     3.8927     3.8927     0.0000
  2 C      5.8907     6.0000     0.1093     3.6561     3.6561     0.0000
  3 C      6.2180     6.0000    -0.2180     4.0062     4.0062     0.0000
  4 C      5.8798     6.0000     0.1202     3.8101     3.8101     0.0000
  5 C      6.1836     6.0000    -0.1836     3.9585     3.9585     0.0000
  6 H      0.8418     1.0000     0.1582     0.9637     0.9637     0.0000
  7 H      0.8837     1.0000     0.1163     1.0714     1.0714     0.0000
  8 H      0.8274     1.0000     0.1726     1.0098     1.0098     0.0000
  9 H      0.8293     1.0000     0.1707     0.9895     0.9895     0.0000
 10 N      6.5426     7.0000     0.4574     4.1902     4.1902     0.0000
 11 O      8.3534     8.0000    -0.3534     1.8991     1.8991     0.0000
 12 O      8.3523     8.0000    -0.3523     1.9030     1.9030     0.0000
 13 C      5.9513     6.0000     0.0487     3.6512     3.6512     0.0000
 14 C      6.3828     6.0000    -0.3828     3.8683     3.8683    -0.0000
 15 H      0.8544     1.0000     0.1456     0.9659     0.9659     0.0000
 16 H      0.8509     1.0000     0.1491     0.9737     0.9737     0.0000
 17 H      0.8489     1.0000     0.1511     0.9706     0.9706     0.0000
 18 N      6.5665     7.0000     0.4335     4.1051     4.1051     0.0000
 19 O      8.3491     8.0000    -0.3491     1.9145     1.9145     0.0000
 20 O      8.3402     8.0000    -0.3402     1.9146     1.9146     0.0000
 21 H      0.8380     1.0000     0.1620     0.9930     0.9930     0.0000
 22 C      6.2260     6.0000    -0.2260     3.8259     3.0789     0.7470
 23 C      6.1401     6.0000    -0.1401     3.8687     3.8654     0.0033
 24 C      6.1778     6.0000    -0.1778     3.8928     3.8924     0.0004
 25 C      6.1164     6.0000    -0.1164     3.8963     3.8962     0.0000
 26 N      7.3886     7.0000    -0.3886     2.9811     2.9807     0.0004
 27 C      6.0877     6.0000    -0.0877     3.9437     3.9405     0.0032
 28 H      0.8664     1.0000     0.1336     0.9679     0.9659     0.0021
 29 H      0.8888     1.0000     0.1112     0.9650     0.9649     0.0000
 30 H      0.9033     1.0000     0.0967     0.9691     0.9647     0.0045
 31 H      0.9011     1.0000     0.0989     0.9732     0.9732     0.0000
 32 H      0.9075     1.0000     0.0925     0.9781     0.9780     0.0000
 33 H      0.8800     1.0000     0.1200     0.9677     0.9677     0.0000
 34 H      0.8828     1.0000     0.1172     0.9755     0.9754     0.0000
 35 H      0.7836     1.0000     0.2164     0.9490     0.9490     0.0000
 36 H      0.8766     1.0000     0.1234     0.9669     0.9668     0.0001
 37 H      0.8838     1.0000     0.1162     0.9655     0.9626     0.0029
 38 H      0.6550     1.0000     0.3450     0.9382     0.9382     0.0000
 39 H      0.6637     1.0000     0.3363     0.9075     0.9075     0.0000
 40 O      8.7153     8.0000    -0.7153     1.7412     1.7412     0.0000

  Mayer bond orders larger than 0.100000
B(  0-C ,  1-C ) :   1.3978 B(  0-C ,  5-C ) :   1.4065 B(  0-C ,  6-H ) :   0.9751 
B(  1-C ,  2-C ) :   1.3435 B(  1-C ,  7-H ) :   0.9372 B(  2-C ,  3-C ) :   1.3824 
B(  2-C , 13-C ) :   0.9074 B(  3-C ,  4-C ) :   1.4221 B(  3-C ,  8-H ) :   0.9157 
B(  4-C ,  5-C ) :   1.3429 B(  4-C , 10-N ) :   0.9998 B(  5-C ,  9-H ) :   0.9444 
B(  7-H , 40-O ) :   0.1470 B( 10-N , 11-O ) :   1.5883 B( 10-N , 12-O ) :   1.5908 
B( 11-O , 12-O ) :   0.1930 B( 13-C , 14-C ) :   0.9565 B( 13-C , 18-N ) :   0.8044 
B( 13-C , 21-H ) :   0.9497 B( 14-C , 15-H ) :   0.9704 B( 14-C , 16-H ) :   0.9488 
B( 14-C , 17-H ) :   0.9655 B( 18-N , 19-O ) :   1.6250 B( 18-N , 20-O ) :   1.6167 
B( 19-O , 20-O ) :   0.2105 B( 22-C , 23-C ) :   1.0154 B( 22-C , 27-C ) :   1.0286 
B( 22-C , 28-H ) :   0.9671 B( 23-C , 24-C ) :   0.9737 B( 23-C , 29-H ) :   0.9661 
B( 23-C , 30-H ) :   0.9353 B( 24-C , 25-C ) :   0.9868 B( 24-C , 31-H ) :   0.9643 
B( 24-C , 32-H ) :   0.9632 B( 25-C , 26-N ) :   0.9486 B( 25-C , 33-H ) :   0.9619 
B( 25-C , 34-H ) :   0.9702 B( 26-N , 27-C ) :   0.9490 B( 26-N , 35-H ) :   0.9130 
B( 26-N , 38-H ) :   0.1711 B( 27-C , 36-H ) :   0.9595 B( 27-C , 37-H ) :   0.9532 
B( 38-H , 40-O ) :   0.7672 B( 39-H , 40-O ) :   0.8891 

-------
TIMINGS
-------

Total SCF time: 0 days 0 hours 1 min 34 sec 

Total time                  ....      94.537 sec
Sum of individual times     ....      87.573 sec  ( 92.6%)

Fock matrix formation       ....      49.966 sec  ( 52.9%)
  Split-RI-J                ....       6.354 sec  ( 12.7% of F)
  Chain of spheres X        ....      25.343 sec  ( 50.7% of F)
  XC integration            ....       6.474 sec  ( 13.0% of F)
    Basis function eval.    ....       0.463 sec  (  7.2% of XC)
    Density eval.           ....       2.861 sec  ( 44.2% of XC)
    XC-Functional eval.     ....       0.031 sec  (  0.5% of XC)
    XC-Potential eval.      ....       0.708 sec  ( 10.9% of XC)
Diagonalization             ....      18.351 sec  ( 19.4%)
Density matrix formation    ....       1.002 sec  (  1.1%)
Population analysis         ....       2.723 sec  (  2.9%)
Initial guess               ....       2.786 sec  (  2.9%)
Orbital Transformation      ....       0.000 sec  (  0.0%)
Orbital Orthonormalization  ....       2.555 sec  (  2.7%)
DIIS solution               ....       7.972 sec  (  8.4%)
Grid generation             ....       4.773 sec  (  5.0%)

Maximum memory used throughout the entire SCF-calculation: 181.3 MB


-------------------------------------------------------------------------------
                          DFT DISPERSION CORRECTION                            
                                                                               
                              DFTD3 V3.1  Rev 1                                
                          USING Becke-Johnson damping                          
-------------------------------------------------------------------------------
The B3LYP functional is recognized
Active option DFTDOPT                   ...         4   

molecular C6(AA) [au] = 15569.359469 


            DFT-D V3
 parameters
 s6 scaling factor         :     1.0000 
 a1 scaling factor         :     0.3981 
 s8 scaling factor         :     1.9889 
 a2 scaling factor         :     4.4211 
 ad hoc parameters k1-k3   :    16.0000     1.3333    -4.0000 

 Edisp/kcal,au: -49.424395406984  -0.078762779173 
 E6   /kcal   : -24.307879305 
 E8   /kcal   : -25.116516102 
 % E8         :  50.818054313 

-------------------------   ----------------
Dispersion correction           -0.078762779
-------------------------   ----------------


-------------------------   --------------------
FINAL SINGLE POINT ENERGY     -1047.502457771187
-------------------------   --------------------

                                *** OPTIMIZATION RUN DONE ***

                            ***************************************
                            *     ORCA property calculations      *
                            ***************************************

                                    ---------------------
                                    Active property flags
                                    ---------------------
   (+) Dipole Moment


------------------------------------------------------------------------------
                       ORCA ELECTRIC PROPERTIES CALCULATION
------------------------------------------------------------------------------

Dipole Moment Calculation                       ... on
Quadrupole Moment Calculation                   ... off
Polarizability Calculation                      ... off
GBWName                                         ... /home/rudenko/mop_saddle_orca_4_serv/for_orca/m-o2nc6h4chno2ch3_piperidine/orca/orca_start/start.gbw
Electron density                                ... /home/rudenko/mop_saddle_orca_4_serv/for_orca/m-o2nc6h4chno2ch3_piperidine/orca/orca_start/start.scfp
The origin for moment calculation is the CENTER OF MASS  = ( 3.047422, -0.251659  4.388253)

-------------
DIPOLE MOMENT
-------------
                                X             Y             Z
Electronic contribution:    -10.42514     -11.57048     -30.08540
Nuclear contribution   :      9.55766      13.31483      34.04633
                        -----------------------------------------
Total Dipole Moment    :     -0.86749       1.74435       3.96094
                        -----------------------------------------
Magnitude (a.u.)       :      4.41410
Magnitude (Debye)      :     11.21976



--------------------
Rotational spectrum 
--------------------
 
Rotational constants in cm-1:     0.011887     0.005750     0.004810 
Rotational constants in MHz :   356.355970   172.378454   144.206878 

 Dipole components along the rotational axes: 
x,y,z [a.u.] :     3.607645    -2.357655     0.954298 
x,y,z [Debye]:     9.169904    -5.992683     2.425632 

 

Timings for individual modules:

Sum of individual times         ...     6079.101 sec (= 101.318 min)
GTO integral calculation        ...      237.659 sec (=   3.961 min)   3.9 %
SCF iterations                  ...     4911.560 sec (=  81.859 min)  80.8 %
SCF Gradient evaluation         ...      925.078 sec (=  15.418 min)  15.2 %
Geometry relaxation             ...        4.803 sec (=   0.080 min)   0.1 %
                             ****ORCA TERMINATED NORMALLY****
TOTAL RUN TIME: 0 days 1 hours 43 minutes 45 seconds 829 msec
