 *******************************************************************************
 **                                                                           **
 **                              MOPAC v22.0.6                                **
 **                                                                           **
 *******************************************************************************
 **          Digital Object Identifier (DOI): 10.5281/zenodo.6511958          **
 **    Visit the DOI location for information on how to cite this program.    **
 *******************************************************************************

                              PM7 CALCULATION RESULTS

 *******************************************************************************
 *  CALCULATION DONE:                                Tue Mar 26 11:45:05 2024  *
 *  PM7        - The PM7 Hamiltonian to be used
 *  SINGLET    - SPIN STATE DEFINED AS A SINGLET
 *
 *
 *
 *                 CHARGE ON SYSTEM = 0
 *
 *
 *
 *  EPS=78.4   - USE ANDREAS KLAMT'S COSMO IMPLICIT SOLVATION MODEL
 *  LET        - OVERRIDE SOME SAFETY CHECKS
 *  THREADS    - USE A MAXIMUM OF 30 THREADS
 *  T=         - A TIME OF 14.0 DAYS REQUESTED
 *  DUMP=N     - RESTART FILE WRITTEN EVERY 30.0 MINUTES REQUESTED
 *  RELSCF     - DEFAULT SCF CRITERION MULTIPLIED BY 1.0000
 *              (DEFAULT SCF CRITERION = 0.00010)
 *  ITRY=      - DO A MAXIMUM OF 15000 ITERATIONS FOR SCF
 *  AUX        - OUTPUT AUXILIARY INFORMATION
 *  ISOTOPE    - SAVE THE FORCE MATRIX FOR USE LATER
 *  BONDS      - FINAL BOND-ORDER MATRIX TO BE PRINTED
 *  LARGE      - EXPANDED OUTPUT TO BE PRINTED
 *  THERMO     - THERMODYNAMIC QUANTITIES TO BE CALCULATED
 *******************************************************************************
PM7 AUX LARGE THERMO(298,298) LET ISOTOPE BONDS DUMP=30M ITRY=15000 T=14D THREADS=30 CHARGE=0 SINGLET eps=78.4 RELSCF=1
 Title: ASE calculation

   ATOM   CHEMICAL          X               Y               Z
  NUMBER   SYMBOL      (ANGSTROMS)     (ANGSTROMS)     (ANGSTROMS)

     1       C         -0.10189000  *   0.05190000  *   0.14134000  *
     2       H         -1.14386000  *   0.17402000  *   0.44525000  *
     3       N         -0.22720000  *  -2.37867000  *   0.18199000  *
     4       O         -1.41804000  *  -2.57110000  *   0.35820000  *
     5       O          0.62529000  *  -3.12396000  *   0.64517000  *
     6       H          1.87775000  *   0.85951000  *   0.10187000  *
     7       C          0.20305000  *  -1.20609000  *  -0.61092000  *
     8       H         -0.34017000  *  -1.21506000  *  -1.59621000  *
     9       D          1.29163000  *  -1.30062000  *  -0.86766000  *
    10       C          0.83768000  *   0.96210000  *   0.38844000  *
    11       H          0.64114000  *   1.89565000  *   0.90081000  *
    12       C          6.53960000  *  -2.73916000  *   0.25285000  *
    13       C          7.91656000  *  -2.73222000  *  -0.02148000  *
    14       C          8.52901000  *  -1.50219000  *  -0.27685000  *
    15       C          7.76531000  *  -0.33872000  *  -0.24515000  *
    16       C          6.40015000  *  -0.43313000  *   0.05046000  *
    17       N          5.79890000  *  -1.61513000  *   0.28781000  *
    18       H          5.99752000  *  -3.67465000  *   0.44714000  *
    19       H          8.21705000  *   0.63148000  *  -0.44864000  *
    20       H          5.76067000  *   0.45737000  *   0.09949000  *
    21       C          8.68107000  *  -4.00249000  *  -0.06315000  *
    22       H          9.74894000  *  -3.86665000  *   0.16885000  *
    23       H          8.63196000  *  -4.46016000  *  -1.06673000  *
    24       H          8.29856000  *  -4.75428000  *   0.64447000  *
    25       H          9.59758000  *  -1.45501000  *  -0.50037000  *
    26       H          2.51964000  *  -2.99355000  *  -0.23081000  *
    27       O          3.17164000  *  -2.66951000  *  -0.85693000  *
    28       H          3.88518000  *  -2.30811000  *  -0.31179000  *


                                Isotopes Used

              Atom:    9  H  Default mass  1.0079,  mass used:  2.0140 amu


          CARTESIAN COORDINATES 

    NO.       ATOM           X           Y           Z

     1         C         -0.1019      0.0519      0.1413
     2         H         -1.1439      0.1740      0.4452
     3         N         -0.2272     -2.3787      0.1820
     4         O         -1.4180     -2.5711      0.3582
     5         O          0.6253     -3.1240      0.6452
     6         H          1.8778      0.8595      0.1019
     7         C          0.2031     -1.2061     -0.6109
     8         H         -0.3402     -1.2151     -1.5962
     9         H          1.2916     -1.3006     -0.8677
    10         C          0.8377      0.9621      0.3884
    11         H          0.6411      1.8957      0.9008
    12         C          6.5396     -2.7392      0.2529
    13         C          7.9166     -2.7322     -0.0215
    14         C          8.5290     -1.5022     -0.2769
    15         C          7.7653     -0.3387     -0.2452
    16         C          6.4002     -0.4331      0.0505
    17         N          5.7989     -1.6151      0.2878
    18         H          5.9975     -3.6747      0.4471
    19         H          8.2171      0.6315     -0.4486
    20         H          5.7607      0.4574      0.0995
    21         C          8.6811     -4.0025     -0.0631
    22         H          9.7489     -3.8666      0.1689
    23         H          8.6320     -4.4602     -1.0667
    24         H          8.2986     -4.7543      0.6445
    25         H          9.5976     -1.4550     -0.5004
    26         H          2.5196     -2.9935     -0.2308
    27         O          3.1716     -2.6695     -0.8569
    28         H          3.8852     -2.3081     -0.3118

 General Reference for PM7:
 "Optimization of Parameters for Semiempirical Methods VI: More Modifications to the 
 NDDO Approximations and Re-optimization of Parameters", J. J. P. Stewart, J. Mol. Mod., 1:32, 19 (2013)
 https://link.springer.com/article/10.1007/s00894-012-1667-x

           Empirical Formula: C9 H14 N2 O3  =    28 atoms



      MOLECULAR POINT GROUP   :   C1  


 SINGLET STATE CALCULATION


      RHF CALCULATION, NO. OF DOUBLY OCCUPIED LEVELS = 39

  SCF CRITERION =    0.1000E-03


          HEAT OF FORMATION =     -60.172127 KCALS/MOLE


          CARTESIAN COORDINATE DERIVATIVES

   NUMBER  ATOM         X            Y            Z

     1       C      0.264523    -0.073245    -0.187111
     2       H      0.272178     0.319752     0.029758
     3       N     -0.408656    -0.058247     0.020168
     4       O     -0.203527    -0.147085     0.302069
     5       O     -0.070360     0.009704    -0.596016
     6       H     -0.223153     0.423626     0.133993
     7       C      0.099295    -0.071815    -0.202359
     8       H     -0.000827    -0.061616     0.200013
     9       H     -0.100793    -0.125264     0.145601
    10       C     -0.052892    -0.089493    -0.213631
    11       H     -0.094459    -0.001440    -0.125682
    12       C     -0.043061    -0.113544    -0.138152
    13       C      0.005027     0.002538     0.246552
    14       C     -0.250757    -0.141385     0.046796
    15       C     -0.028393     0.261518    -0.218421
    16       C      0.185548     0.007044     0.107150
    17       N      0.124265    -0.123721     0.157589
    18       H      0.701862    -0.249238    -0.517399
    19       H      0.078937     0.150511    -0.421494
    20       H     -0.176100    -0.311839     0.345115
    21       C     -0.028386     0.026600     0.199826
    22       H     -0.077935     0.129042     0.183957
    23       H      0.335735    -0.183292    -0.182762
    24       H     -0.178774     0.009683    -0.058782
    25       H     -0.285953     0.022462     0.064222
    26       H     -0.496356     0.354816    -0.055852
    27       O      0.555815    -0.373538     0.189203
    28       H      0.097302     0.407596     0.545826

 DIPOLE           X         Y         Z       TOTAL
 POINT-CHG.    -4.503    -4.932    -0.011     6.679
 HYBRID        -0.502     0.384     0.465     0.784
 SUM           -5.005    -4.548     0.454     6.778


          GRADIENT NORM =   2.20350


                              **** WARNING ****

           GRADIENT IS VERY LARGE FOR A THERMO CALCULATION
           RESULTS ARE LIKELY TO BE INACCURATE IF THERE ARE
           ANY LOW-LYING VIBRATIONS (LESS THAN ABOUT 400CM-1)
           GRADIENT NORM SHOULD BE LESS THAN ABOUT 1.1 FOR THERMO
           TO GIVE ACCURATE RESULTS


          TIME FOR SCF CALCULATION =    0.05

          TIME FOR DERIVATIVES     =    0.03

          MOLECULAR WEIGHT =  199.23



          ROTATIONAL CONSTANTS IN CM(-1)

          A =    0.04137291   B =    0.00622018   C =    0.00553744



           PRINCIPAL MOMENTS OF INERTIA IN UNITS OF 10**(-40)*GRAM-CM**2

          A =      676.5961   B =     4500.3106   C =     5055.1814


          ORIENTATION OF MOLECULE IN FORCE CALCULATION

    NO.       ATOM         X         Y         Z

     1          C       3.9065   -1.4158   -0.9429
     2          H       4.9988   -1.4158   -0.9429
     3          N       3.7656    1.0143   -0.9429
     4          O       4.9292    1.3386   -1.1077
     5          O       2.9979    1.6790   -0.2606
     6          H       2.0973   -2.4312   -0.4249
     7          C       3.2657   -0.2230   -1.5816
     8          H       3.5087   -0.1884   -2.6797
     9          H       2.1452   -0.2539   -1.5232
    10          C       3.1807   -2.4126   -0.4410
    11          H       3.6152   -3.3024   -0.0027
    12          C      -2.7103    0.6516    1.0204
    13          C      -4.0995    0.4885    1.1429
    14          C      -4.6173   -0.8077    1.0713
    15          C      -3.7498   -1.8812    0.8896
    16          C      -2.3758   -1.6317    0.7908
    17          N      -1.8683   -0.3851    0.8483
    18          H      -2.2437    1.6455    1.0535
    19          H      -4.1289   -2.9003    0.8224
    20          H      -1.6525   -2.4467    0.6601
    21          C      -4.9824    1.6677    1.3150
    22          H      -5.9214    1.4262    1.8371
    23          H      -5.2660    2.0948    0.3372
    24          H      -4.5047    2.4789    1.8859
    25          H      -5.6936   -0.9761    1.1562
    26          H       0.9616    1.3181   -0.5706
    27          O       0.2016    0.9059   -0.9884
    28          H      -0.2870    0.4884   -0.2646


    FIRST DERIVATIVES WILL BE USED IN THE CALCULATION OF SECOND DERIVATIVES

          ESTIMATED TIME TO COMPLETE CALCULATION =       13.78 SECONDS

    FOR POINT-GROUP C1   THERE ARE   1 UNIQUE SYMMETRY FUNCTIONS.

 STEP:   1 TIME =     0.05 SECS, INTEGRAL =      0.05 TIME LEFT:1209599.87
 STEP:   2 TIME =     0.05 SECS, INTEGRAL =      0.10 TIME LEFT:1209599.82
 STEP:   3 TIME =     0.05 SECS, INTEGRAL =      0.15 TIME LEFT:1209599.77
 STEP:   4 TIME =     0.05 SECS, INTEGRAL =      0.20 TIME LEFT:1209599.72
 STEP:   5 TIME =     0.05 SECS, INTEGRAL =      0.25 TIME LEFT:1209599.67
 STEP:   6 TIME =     0.05 SECS, INTEGRAL =      0.29 TIME LEFT:1209599.62
 STEP:   7 TIME =     0.05 SECS, INTEGRAL =      0.34 TIME LEFT:1209599.58
 STEP:   8 TIME =     0.05 SECS, INTEGRAL =      0.39 TIME LEFT:1209599.53
 STEP:   9 TIME =     0.05 SECS, INTEGRAL =      0.44 TIME LEFT:1209599.48
 STEP:  10 TIME =     0.05 SECS, INTEGRAL =      0.49 TIME LEFT:1209599.43
 STEP:  11 TIME =     0.05 SECS, INTEGRAL =      0.54 TIME LEFT:1209599.38
 STEP:  12 TIME =     0.05 SECS, INTEGRAL =      0.58 TIME LEFT:1209599.34
 STEP:  13 TIME =     0.05 SECS, INTEGRAL =      0.63 TIME LEFT:1209599.29
 STEP:  14 TIME =     0.05 SECS, INTEGRAL =      0.68 TIME LEFT:1209599.24
 STEP:  15 TIME =     0.05 SECS, INTEGRAL =      0.73 TIME LEFT:1209599.19
 STEP:  16 TIME =     0.05 SECS, INTEGRAL =      0.77 TIME LEFT:1209599.14
 STEP:  17 TIME =     0.05 SECS, INTEGRAL =      0.82 TIME LEFT:1209599.09
 STEP:  18 TIME =     0.05 SECS, INTEGRAL =      0.87 TIME LEFT:1209599.05
 STEP:  19 TIME =     0.05 SECS, INTEGRAL =      0.92 TIME LEFT:1209599.00
 STEP:  20 TIME =     0.05 SECS, INTEGRAL =      0.96 TIME LEFT:1209598.95
 STEP:  21 TIME =     0.05 SECS, INTEGRAL =      1.02 TIME LEFT:1209598.90
 STEP:  22 TIME =     0.05 SECS, INTEGRAL =      1.06 TIME LEFT:1209598.86
 STEP:  23 TIME =     0.05 SECS, INTEGRAL =      1.11 TIME LEFT:1209598.81
 STEP:  24 TIME =     0.05 SECS, INTEGRAL =      1.16 TIME LEFT:1209598.76
 STEP:  25 TIME =     0.05 SECS, INTEGRAL =      1.21 TIME LEFT:1209598.71
 STEP:  26 TIME =     0.05 SECS, INTEGRAL =      1.25 TIME LEFT:1209598.66
 STEP:  27 TIME =     0.05 SECS, INTEGRAL =      1.30 TIME LEFT:1209598.62
 STEP:  28 TIME =     0.05 SECS, INTEGRAL =      1.35 TIME LEFT:1209598.57
 STEP:  29 TIME =     0.05 SECS, INTEGRAL =      1.39 TIME LEFT:1209598.52
 STEP:  30 TIME =     0.05 SECS, INTEGRAL =      1.45 TIME LEFT:1209598.47
 STEP:  31 TIME =     0.05 SECS, INTEGRAL =      1.49 TIME LEFT:1209598.43
 STEP:  32 TIME =     0.05 SECS, INTEGRAL =      1.54 TIME LEFT:1209598.38
 STEP:  33 TIME =     0.04 SECS, INTEGRAL =      1.58 TIME LEFT:1209598.34
 STEP:  34 TIME =     0.05 SECS, INTEGRAL =      1.63 TIME LEFT:1209598.29
 STEP:  35 TIME =     0.05 SECS, INTEGRAL =      1.68 TIME LEFT:1209598.24
 STEP:  36 TIME =     0.05 SECS, INTEGRAL =      1.72 TIME LEFT:1209598.20
 STEP:  37 TIME =     0.05 SECS, INTEGRAL =      1.77 TIME LEFT:1209598.14
 STEP:  38 TIME =     0.05 SECS, INTEGRAL =      1.82 TIME LEFT:1209598.10
 STEP:  39 TIME =     0.05 SECS, INTEGRAL =      1.87 TIME LEFT:1209598.05
 STEP:  40 TIME =     0.05 SECS, INTEGRAL =      1.91 TIME LEFT:1209598.00
 STEP:  41 TIME =     0.05 SECS, INTEGRAL =      1.96 TIME LEFT:1209597.96
 STEP:  42 TIME =     0.05 SECS, INTEGRAL =      2.01 TIME LEFT:1209597.91
 STEP:  43 TIME =     0.05 SECS, INTEGRAL =      2.05 TIME LEFT:1209597.86
 STEP:  44 TIME =     0.04 SECS, INTEGRAL =      2.10 TIME LEFT:1209597.82
 STEP:  45 TIME =     0.05 SECS, INTEGRAL =      2.14 TIME LEFT:1209597.77
 STEP:  46 TIME =     0.05 SECS, INTEGRAL =      2.19 TIME LEFT:1209597.73
 STEP:  47 TIME =     0.05 SECS, INTEGRAL =      2.24 TIME LEFT:1209597.68
 STEP:  48 TIME =     0.05 SECS, INTEGRAL =      2.29 TIME LEFT:1209597.63
 STEP:  49 TIME =     0.04 SECS, INTEGRAL =      2.33 TIME LEFT:1209597.59
 STEP:  50 TIME =     0.05 SECS, INTEGRAL =      2.38 TIME LEFT:1209597.54
 STEP:  51 TIME =     0.05 SECS, INTEGRAL =      2.43 TIME LEFT:1209597.49
 STEP:  52 TIME =     0.04 SECS, INTEGRAL =      2.47 TIME LEFT:1209597.45
 STEP:  53 TIME =     0.05 SECS, INTEGRAL =      2.52 TIME LEFT:1209597.40
 STEP:  54 TIME =     0.04 SECS, INTEGRAL =      2.56 TIME LEFT:1209597.36
 STEP:  55 TIME =     0.04 SECS, INTEGRAL =      2.60 TIME LEFT:1209597.32
 STEP:  56 TIME =     0.05 SECS, INTEGRAL =      2.65 TIME LEFT:1209597.27
 STEP:  57 TIME =     0.04 SECS, INTEGRAL =      2.69 TIME LEFT:1209597.23
 STEP:  58 TIME =     0.05 SECS, INTEGRAL =      2.74 TIME LEFT:1209597.18
 STEP:  59 TIME =     0.04 SECS, INTEGRAL =      2.78 TIME LEFT:1209597.14
 STEP:  60 TIME =     0.05 SECS, INTEGRAL =      2.83 TIME LEFT:1209597.09
 STEP:  61 TIME =     0.04 SECS, INTEGRAL =      2.87 TIME LEFT:1209597.05
 STEP:  62 TIME =     0.05 SECS, INTEGRAL =      2.92 TIME LEFT:1209597.00
 STEP:  63 TIME =     0.04 SECS, INTEGRAL =      2.96 TIME LEFT:1209596.96
 STEP:  64 TIME =     0.05 SECS, INTEGRAL =      3.01 TIME LEFT:1209596.91
 STEP:  65 TIME =     0.04 SECS, INTEGRAL =      3.05 TIME LEFT:1209596.87
 STEP:  66 TIME =     0.05 SECS, INTEGRAL =      3.10 TIME LEFT:1209596.82
 STEP:  67 TIME =     0.04 SECS, INTEGRAL =      3.14 TIME LEFT:1209596.78
 STEP:  68 TIME =     0.05 SECS, INTEGRAL =      3.19 TIME LEFT:1209596.73
 STEP:  69 TIME =     0.04 SECS, INTEGRAL =      3.23 TIME LEFT:1209596.69
 STEP:  70 TIME =     0.05 SECS, INTEGRAL =      3.28 TIME LEFT:1209596.64
 STEP:  71 TIME =     0.04 SECS, INTEGRAL =      3.32 TIME LEFT:1209596.60
 STEP:  72 TIME =     0.05 SECS, INTEGRAL =      3.37 TIME LEFT:1209596.55
 STEP:  73 TIME =     0.04 SECS, INTEGRAL =      3.41 TIME LEFT:1209596.51
 STEP:  74 TIME =     0.05 SECS, INTEGRAL =      3.46 TIME LEFT:1209596.46
 STEP:  75 TIME =     0.04 SECS, INTEGRAL =      3.50 TIME LEFT:1209596.42
 STEP:  76 TIME =     0.05 SECS, INTEGRAL =      3.55 TIME LEFT:1209596.37
 STEP:  77 TIME =     0.04 SECS, INTEGRAL =      3.59 TIME LEFT:1209596.33
 STEP:  78 TIME =     0.04 SECS, INTEGRAL =      3.63 TIME LEFT:1209596.29
 STEP:  79 TIME =     0.05 SECS, INTEGRAL =      3.68 TIME LEFT:1209596.24
 STEP:  80 TIME =     0.04 SECS, INTEGRAL =      3.72 TIME LEFT:1209596.20
 STEP:  81 TIME =     0.04 SECS, INTEGRAL =      3.77 TIME LEFT:1209596.15
 STEP:  82 TIME =     0.04 SECS, INTEGRAL =      3.81 TIME LEFT:1209596.11
 STEP:  83 TIME =     0.04 SECS, INTEGRAL =      3.85 TIME LEFT:1209596.07
 STEP:  84 TIME =     0.04 SECS, INTEGRAL =      3.89 TIME LEFT:1209596.02

(To convert to Hartree/Bohr^2, multiply by (10^(-21) x N x a0^2)/(4.184 x 627.51) =  0.0642)


           FORCE MATRIX IN MILLIDYNES/ANGSTROM


                  C  1       H  2       N  3       O  4       O  5       H  6
 ------------------------------------------------------------------------------
     C    1  16.663235
     H    2   3.388436   4.274871
     N    3   0.952732   0.063374  18.807582
     O    4   0.062740   0.015568   9.637595  12.348236
     O    5   0.085537   0.013236   9.289284   2.713016  11.981373
     H    6   0.795272   0.135156   0.027354   0.011523   0.011777   4.219472
     C    7   3.474288   0.675358   2.930876   1.141857   1.143157   0.074845
     H    8   0.700299   0.018712   0.898634   0.091866   0.080349   0.011904
     H    9   0.674568   0.040557   0.861714   0.082582   0.050647   0.022513
     C   10  10.466774   0.805664   0.085427   0.027842   0.029571   3.491448
     H   11   0.801071   0.063975   0.034901   0.010741   0.014229   0.461434
     C   12   0.001834   0.000553   0.005927   0.002536   0.004970   0.001256
     C   13   0.000868   0.000339   0.001583   0.000650   0.001120   0.000811
     C   14   0.000628   0.000516   0.003389   0.001729   0.001728   0.000646
     C   15   0.001029   0.000444   0.003160   0.001207   0.001919   0.001086
     C   16   0.000897   0.000491   0.003257   0.001128   0.002146   0.001819
     N   17   0.001204   0.001079   0.017758   0.007447   0.008181   0.001363
     H   18   0.000619   0.000256   0.002571   0.001104   0.001701   0.000438
     H   19   0.000590   0.000348   0.002882   0.001229   0.001713   0.000349
     H   20   0.001209   0.000580   0.001975   0.000945   0.001252   0.003778
     C   21   0.000706   0.000354   0.002620   0.001214   0.001310   0.000314
     H   22   0.000399   0.000311   0.002426   0.001174   0.001441   0.000322
     H   23   0.000314   0.000180   0.002040   0.000973   0.001121   0.000262
     H   24   0.000256   0.000166   0.001888   0.000876   0.001168   0.000297
     H   25   0.000755   0.000587   0.002583   0.001358   0.001515   0.000647
     H   26   0.002860   0.001928   0.199476   0.078108   0.121394   0.003059
     O   27   0.005752   0.002330   0.125456   0.051779   0.095666   0.004582
     H   28   0.002057   0.000894   0.029635   0.012734   0.022365   0.002210


                  C  7       H  8       H  9       C 10       H 11       C 12
 ------------------------------------------------------------------------------
     C    7  11.621542
     H    8   3.033334   4.024452
     H    9   3.064959   0.413850   4.038501
     C   10   0.956393   0.028734   0.031927  15.909625
     H   11   0.131245   0.017685   0.007633   3.506583   4.239089
     C   12   0.002955   0.000870   0.004325   0.001715   0.001931  15.026368
     C   13   0.000961   0.000558   0.002442   0.000739   0.000546   5.462877
     C   14   0.000914   0.000450   0.000965   0.000687   0.000547   2.139323
     C   15   0.001199   0.000523   0.002562   0.001258   0.000883   1.516007
     C   16   0.001696   0.000441   0.002459   0.002949   0.000870   2.699201
     N   17   0.007756   0.001736   0.015859   0.001526   0.000911   6.644935
     H   18   0.000953   0.000395   0.002018   0.000320   0.000506   3.309160
     H   19   0.000770   0.000411   0.000814   0.000522   0.000531   0.011047
     H   20   0.000558   0.000489   0.001128   0.003833   0.001178   0.147828
     C   21   0.000879   0.000502   0.000891   0.000460   0.000533   0.780452
     H   22   0.000666   0.000248   0.000659   0.000453   0.000279   0.036714
     H   23   0.000517   0.000365   0.000292   0.000216   0.000106   0.022380
     H   24   0.000401   0.000172   0.000368   0.000240   0.000107   0.035333
     H   25   0.000933   0.000513   0.001165   0.000682   0.000335   0.102552
     H   26   0.025772   0.010411   0.072396   0.004264   0.001673   0.019531
     O   27   0.098770   0.046153   0.034143   0.008454   0.002272   0.032868
     H   28   0.021233   0.005415   0.062767   0.002633   0.001041   0.069266


                  C 13       C 14       C 15       C 16       N 17       H 18
 ------------------------------------------------------------------------------
     C   13  16.179396
     C   14   5.975835  15.273948
     C   15   2.073923   6.278347  15.114560
     C   16   1.525858   2.190293   5.726128  15.177359
     N   17   2.465267   1.498607   2.482994   6.658299  14.524988
     H   18   0.686642   0.087602   0.025106   0.151148   0.903856   4.237049
     H   19   0.100076   0.740979   3.411368   0.728288   0.097407   0.015243
     H   20   0.018472   0.084119   0.685852   3.329003   0.888952   0.015170
     C   21   3.949004   0.791341   0.096270   0.017134   0.099515   0.022460
     H   22   0.733944   0.028056   0.008097   0.003273   0.011018   0.003045
     H   23   0.759089   0.021557   0.012479   0.004218   0.012689   0.006041
     H   24   0.733382   0.036383   0.010007   0.003786   0.009402   0.014466
     H   25   0.729965   3.410841   0.736517   0.103171   0.040281   0.011124
     H   26   0.007098   0.004780   0.004171   0.007942   0.021820   0.006453
     O   27   0.015944   0.007528   0.010289   0.017279   0.158601   0.030449
     H   28   0.022345   0.009221   0.020459   0.037693   0.097935   0.036156


                  H 19       H 20       C 21       H 22       H 23       H 24
 ------------------------------------------------------------------------------
     H   19   4.306197
     H   20   0.025949   4.251114
     C   21   0.011553   0.017584  11.410928
     H   22   0.002313   0.002212   3.335483   4.155036
     H   23   0.002306   0.002914   3.285491   0.451124   4.123590
     H   24   0.001716   0.001902   3.338198   0.445648   0.453346   4.160626
     H   25   0.036370   0.010290   0.030981   0.016638   0.006749   0.003895
     H   26   0.001038   0.001216   0.001924   0.000449   0.000744   0.000895
     O   27   0.001901   0.006369   0.006110   0.001164   0.002326   0.002148
     H   28   0.004757   0.010527   0.009487   0.000989   0.003029   0.002538


                  H 25       H 26       O 27       H 28
 ------------------------------------------------------
     H   25   4.282123
     H   26   0.000841   4.285534
     O   27   0.001747   3.851087   6.272948
     H   28   0.004236   0.805732   3.792565   4.182846


          HEAT OF FORMATION =     -60.172127 KCALS/MOLE


          TRIVIAL VIBRATIONS, SHOULD BE ZERO

   9.6911=TX  14.0149=TY  15.7860=TZ -31.9368=RX  17.6258=RY -25.1872=RZ


      MOLECULAR POINT GROUP   :   C1  


           EIGENVECTORS  


   Root No.       1         2         3         4         5         6         7         8

                 1 A       2 A       3 A       4 A       5 A       6 A       7 A       8 A   

                  -0.0      -0.0      -0.0      -0.0      -0.0      -0.0       0.0       0.0
  
           1   -0.0008   -0.0078    0.0037   -0.0108    0.1758    0.0460    0.1153   -0.0004
           2    0.0916   -0.0300    0.0137   -0.0669    0.0306   -0.0600   -0.0004   -0.0056
           3    0.1975    0.0115    0.0677   -0.0942   -0.0819    0.0656   -0.0023    0.0134
           4   -0.0000   -0.0076    0.0033   -0.0105    0.1762    0.0462    0.1151   -0.0002
           5    0.2240    0.0290    0.1221   -0.0609    0.1454   -0.0255   -0.0524    0.0173
           6    0.5676    0.1338    0.0129   -0.1355   -0.1254    0.1127   -0.0243    0.0238
           7    0.0318   -0.0499   -0.0179    0.0640   -0.0764    0.0023    0.2389   -0.0575
           8    0.1124   -0.0427    0.0393   -0.0677    0.0030   -0.0625    0.0209   -0.0137
           9   -0.1913    0.2454   -0.0753    0.0093    0.0602   -0.0565   -0.0343   -0.0044
          10    0.0210   -0.0085    0.0302    0.0416   -0.1388   -0.0088    0.3044   -0.0831
          11    0.1126   -0.0852   -0.1424   -0.0677    0.1798   -0.0339   -0.1475    0.0534
          12   -0.2640    0.4358   -0.0856   -0.1354   -0.0338   -0.0793    0.0910   -0.0515
          13    0.0924   -0.1770    0.0486    0.1509   -0.1041   -0.0112    0.2449   -0.0616
          14    0.0660    0.0732    0.2443   -0.0687   -0.1535   -0.0590    0.1679   -0.0714
          15   -0.0788   -0.0126   -0.1987    0.1111    0.1819   -0.0750   -0.1733    0.0479
          16   -0.0449   -0.0186    0.1306    0.0139    0.3061    0.0572    0.0755    0.0180
          17   -0.1885   -0.1796   -0.2081   -0.1145   -0.1901   -0.1027    0.0852   -0.0391
          18   -0.5052   -0.3319    0.0852   -0.1000   -0.0502    0.0213    0.0234    0.0144
          19    0.0448   -0.0020   -0.1579   -0.0401    0.0308    0.0344    0.1552   -0.0178
          20    0.0098    0.0183   -0.0240   -0.0266   -0.0070   -0.1033    0.0305   -0.0275
          21   -0.0036    0.1014    0.1619    0.0121   -0.0051   -0.0036    0.0155   -0.0107
          22    0.0854    0.0421   -0.4361   -0.1445   -0.0066    0.0496    0.1131    0.0031
          23   -0.1845    0.1399   -0.1081    0.0074    0.0845   -0.1558    0.0001   -0.0293
          24   -0.0025    0.1124    0.0959   -0.0099   -0.0090   -0.0015    0.0043   -0.0051
          25    0.0408   -0.0039   -0.1417   -0.0360    0.0350    0.0342    0.1559   -0.0182
          26    0.0279   -0.0046   -0.0280    0.0044   -0.1286   -0.1194    0.0904   -0.0529
          27   -0.0374    0.0453    0.4539    0.1176    0.0227   -0.0177    0.0669   -0.0338
          28   -0.0426   -0.0169    0.1281    0.0132    0.3031    0.0571    0.0760    0.0176
          29   -0.0399   -0.1248   -0.0934   -0.1030   -0.0650   -0.0667    0.0293   -0.0135
          30   -0.1234   -0.1924    0.0356   -0.1321   -0.0878    0.0681    0.0003    0.0237
          31   -0.0813   -0.0259    0.2392    0.0353    0.4226    0.0684    0.0391    0.0352
          32   -0.0118   -0.1460   -0.0797   -0.1249   -0.0300   -0.0391    0.0016    0.0034
          33   -0.0266   -0.2296   -0.0478   -0.1997   -0.1348    0.1132   -0.0197    0.0410
          34   -0.0079    0.0154    0.0408   -0.0800   -0.0571   -0.0792   -0.1383   -0.0081
          35   -0.0238    0.0486   -0.0399    0.0761    0.0278    0.1569   -0.0139    0.0155
          36    0.0285   -0.0452    0.0100   -0.0791    0.0257    0.0895   -0.1422   -0.0718
          37   -0.0120    0.0235    0.0348   -0.0686   -0.0611   -0.0650   -0.1256   -0.0009
          38   -0.0019    0.0156   -0.0081    0.0005    0.0584    0.0390   -0.0140   -0.0038
          39    0.0134    0.0041   -0.0095   -0.0617    0.0087    0.0611    0.0230    0.0008
          40   -0.0318    0.0581    0.0017    0.0074   -0.0872    0.0346   -0.1296    0.0171
          41    0.0068   -0.0029    0.0081   -0.0346    0.0679    0.0026   -0.0167   -0.0128
          42    0.0039    0.0894   -0.0549    0.0140    0.0113   -0.0554    0.1284    0.0660
          43   -0.0468    0.0837   -0.0239    0.0705   -0.1086    0.1176   -0.1456    0.0264
          44   -0.0069    0.0119   -0.0089    0.0070    0.0485    0.0865   -0.0191   -0.0033
          45    0.0120    0.1236   -0.0793    0.0745    0.0289   -0.1370    0.0582    0.0453
          46   -0.0418    0.0739   -0.0169    0.0577   -0.1018    0.1018   -0.1570    0.0165
          47   -0.0287    0.0455   -0.0409    0.0813    0.0189    0.2018   -0.0193    0.0156
          48    0.0294    0.0717   -0.0573    0.0706    0.0406   -0.0991   -0.0901   -0.0315
          49   -0.0223    0.0403    0.0162   -0.0164   -0.0778    0.0036   -0.1501   -0.0001
          50   -0.0367    0.0631   -0.0557    0.1135    0.0083    0.2335   -0.0162    0.0257
          51    0.0368   -0.0134   -0.0126   -0.0019    0.0377    0.0138   -0.1776   -0.0836
          52    0.0070   -0.0113    0.0646   -0.1406   -0.0342   -0.1526   -0.1428   -0.0256
          53   -0.0309    0.0634   -0.0523    0.1073    0.0169    0.1880   -0.0079    0.0257
          54    0.0352   -0.1141    0.0442   -0.1545    0.0309    0.1754   -0.2443   -0.1228
          55   -0.0622    0.1097   -0.0498    0.1303   -0.1278    0.1985   -0.1511    0.0385
          56   -0.0006   -0.0018    0.0029   -0.0186    0.0555    0.0619   -0.0212   -0.0106
          57    0.0052    0.1843   -0.1113    0.1233    0.0326   -0.2264    0.1226    0.0872
          58   -0.0531    0.0922   -0.0367    0.1050   -0.1169    0.1667   -0.1699    0.0233
          59   -0.0400    0.0583   -0.0558    0.1148    0.0034    0.2682   -0.0235    0.0248
          60    0.0369    0.0936   -0.0729    0.1228    0.0516   -0.1546   -0.1339   -0.0506
          61    0.0043   -0.0038    0.0610   -0.1281   -0.0398   -0.1588   -0.1043    0.0079
          62    0.0115    0.0002    0.0077   -0.0385    0.0781   -0.0434   -0.0080    0.0014
          63    0.0053   -0.0305    0.0185   -0.1006   -0.0176    0.1423    0.0917    0.0092
          64   -0.0048    0.0085    0.0542   -0.1195   -0.0398   -0.1194   -0.0917   -0.2263
          65    0.0252   -0.0024    0.0145   -0.0693    0.1086   -0.1446   -0.0104   -0.0856
          66   -0.0048   -0.0097    0.0100   -0.1005   -0.0038    0.1659    0.1130   -0.4558
          67    0.0208   -0.0252    0.0722   -0.1390   -0.0413   -0.2298   -0.1271    0.4558
          68    0.0163   -0.0425    0.0379   -0.0732    0.0524   -0.0264    0.0346    0.3412
          69    0.0026   -0.0428    0.0286   -0.1122   -0.0286    0.1700    0.1174    0.0279
          70    0.0104   -0.0163    0.0771   -0.1685   -0.0226   -0.2062   -0.0715   -0.1565
          71    0.0037    0.0330   -0.0176   -0.0025    0.0870   -0.0249   -0.0380   -0.2212
          72    0.0112   -0.0663    0.0404   -0.1161   -0.0451    0.1562    0.1075    0.4663
          73   -0.0354    0.0648   -0.0033    0.0173   -0.0916    0.0459   -0.1184    0.0253
          74    0.0233   -0.0282    0.0328   -0.0921    0.0909   -0.0835   -0.0201   -0.0327
          75   -0.0084    0.1244   -0.0693    0.0245    0.0020   -0.0839    0.2661    0.1320
          76    0.0474   -0.1179   -0.0961    0.1756   -0.0031    0.0094    0.0423    0.0033
          77   -0.0525    0.0939    0.2463    0.1084   -0.2686   -0.0650    0.0238    0.0117
          78    0.0905   -0.2624   -0.1050    0.2134    0.1041   -0.1190   -0.0520   -0.0200
          79    0.0442   -0.0731   -0.0509    0.0743    0.0033    0.0159    0.0993   -0.0123
          80   -0.0427   -0.0208    0.1120    0.2118   -0.1892   -0.0658   -0.0638    0.0461
          81    0.0874   -0.2326   -0.0586    0.2991    0.0171   -0.1302   -0.0701   -0.0253
          82    0.0372   -0.0467    0.0248    0.1453   -0.1164   -0.0584    0.0478   -0.0197
          83   -0.0417    0.0175    0.0811    0.1974   -0.1338    0.0431    0.0081    0.0410
          84    0.0825   -0.1931   -0.0268    0.3413   -0.0328   -0.1160   -0.0654   -0.0321


   Root No.       9        10        11        12        13        14        15        16

                 9 A      10 A      11 A      12 A      13 A      14 A      15 A      16 A   

                   0.0       0.0       0.0       0.1       0.1       0.1       0.1       0.2
  
           1    0.0200    0.0883    0.0614   -0.0083    0.0153   -0.0424   -0.0303   -0.1786
           2    0.0109   -0.0368   -0.0493    0.0082   -0.0104    0.0184   -0.0165    0.0556
           3   -0.0797   -0.0298    0.0044    0.0194   -0.0089   -0.0063   -0.0261   -0.0976
           4    0.0192    0.0902    0.0613   -0.0095    0.0167   -0.0431   -0.0282   -0.1701
           5   -0.0447    0.0007   -0.0962   -0.0094   -0.0002    0.0544   -0.0010    0.1890
           6   -0.1315    0.0105    0.0034    0.0025    0.0093    0.0024   -0.0182   -0.0070
           7    0.1372   -0.0711    0.1564   -0.0080    0.0373   -0.0838   -0.0384    0.0982
           8    0.0376   -0.0611   -0.0395    0.0196   -0.0214    0.0015   -0.0374   -0.1122
           9   -0.0613   -0.0487    0.0257    0.0435   -0.0377   -0.0131    0.0012    0.0689
          10    0.2145   -0.0288    0.0772   -0.0690    0.0776   -0.0419   -0.0496    0.1555
          11   -0.1560   -0.0732    0.0986    0.1410   -0.1071   -0.0793   -0.0026   -0.3128
          12    0.1014    0.2335   -0.2619   -0.1320    0.0549    0.1287   -0.0384    0.0737
          13    0.1365   -0.2373    0.2612    0.0353    0.0272   -0.1185   -0.0060    0.2410
          14    0.1953   -0.0149   -0.1964   -0.0967    0.0491    0.0881   -0.0852   -0.0900
          15   -0.2174   -0.2775    0.2924    0.2095   -0.1250   -0.1316    0.0793    0.1997
          16   -0.0132    0.1134    0.0169   -0.0228    0.0243   -0.0189    0.0094   -0.0024
          17    0.0964   -0.0823    0.0231    0.0379   -0.0305   -0.0273   -0.0909   -0.3488
          18   -0.0313   -0.0236   -0.0173    0.0253   -0.0162   -0.0082   -0.0002   -0.1247
          19    0.0454    0.0848    0.1039   -0.0076    0.0225   -0.0677   -0.0161   -0.1258
          20    0.0553   -0.0879   -0.0169    0.0209   -0.0193   -0.0018   -0.0220    0.0607
          21   -0.0207   -0.1224    0.0180    0.0417   -0.0336   -0.0145   -0.0520   -0.1279
          22   -0.0239    0.2389    0.0947   -0.0298    0.0446   -0.0903    0.0502   -0.0777
          23    0.0496   -0.0664   -0.0287    0.0263   -0.0326    0.0096   -0.0049    0.1617
          24   -0.0384   -0.0893    0.0190    0.0391   -0.0311   -0.0150   -0.0333   -0.1114
          25    0.0479    0.0793    0.1083   -0.0061    0.0222   -0.0697   -0.0218   -0.1206
          26    0.1071   -0.1531    0.0420    0.0160    0.0023   -0.0404   -0.0042    0.2112
          27    0.0563   -0.2914    0.0577    0.0710   -0.0515   -0.0325   -0.1173   -0.1772
          28   -0.0124    0.1125    0.0178   -0.0219    0.0233   -0.0188    0.0063   -0.0148
          29    0.0336   -0.0306   -0.0272    0.0115   -0.0097    0.0082   -0.0265    0.0115
          30   -0.0803    0.0162   -0.0148    0.0075    0.0029    0.0072    0.0061    0.0408
          31   -0.0457    0.1424   -0.0252   -0.0391    0.0354    0.0057    0.0578    0.2314
          32   -0.0058    0.0216   -0.0555   -0.0105    0.0102    0.0353    0.0162    0.2879
          33   -0.1290    0.0957   -0.0300   -0.0215    0.0327    0.0369    0.0480    0.3801
          34   -0.0290   -0.0239   -0.0116   -0.0257    0.0081   -0.0122    0.0063    0.0073
          35    0.0102   -0.0423   -0.0503   -0.0032    0.0276   -0.0357    0.0068    0.0000
          36    0.2177    0.0621    0.1174   -0.1370   -0.1734    0.0250    0.0309    0.0019
          37   -0.0447   -0.0327   -0.0203   -0.0265    0.0150   -0.0171    0.0007    0.0074
          38    0.0070   -0.0129   -0.0314    0.0054    0.0137   -0.0230    0.0226    0.0025
          39    0.0260    0.0094    0.0488   -0.1149   -0.1286   -0.0026    0.0077    0.0043
          40   -0.0372   -0.0628   -0.0333   -0.0428    0.0287   -0.0277   -0.0153    0.0046
          41    0.0092    0.0026   -0.0241    0.0159    0.0094   -0.0160    0.0292    0.0032
          42   -0.0872   -0.0458    0.0202   -0.1659   -0.1438   -0.0322   -0.0042    0.0043
          43   -0.0125   -0.0796   -0.0380   -0.0361    0.0512   -0.0238   -0.0269    0.0002
          44    0.0127   -0.0153   -0.0336   -0.0040    0.0032   -0.0263    0.0158    0.0017
          45    0.0198   -0.0196    0.0507   -0.0172   -0.0097    0.0422    0.0370   -0.0035
          46    0.0024   -0.0675   -0.0336   -0.0193    0.0561   -0.0218   -0.0260    0.0013
          47    0.0157   -0.0473   -0.0475   -0.0283    0.0051   -0.0339    0.0042   -0.0020
          48    0.2186    0.0649    0.0769    0.1554    0.0731    0.0484    0.0226    0.0019
          49   -0.0057   -0.0376   -0.0202   -0.0149    0.0220   -0.0153   -0.0052    0.0047
          50    0.0143   -0.0599   -0.0526   -0.0223    0.0242   -0.0315   -0.0014   -0.0035
          51    0.2975    0.0972    0.0957    0.0262   -0.0736   -0.0041    0.0028    0.0051
          52   -0.0331   -0.0070    0.0024   -0.0361   -0.0074   -0.0057    0.0276    0.0110
          53    0.0082   -0.0511   -0.0602    0.0066    0.0392   -0.0409   -0.0068   -0.0015
          54    0.3119    0.0807    0.1910   -0.2833   -0.2880    0.0777    0.0863   -0.0054
          55   -0.0026   -0.1020   -0.0478   -0.0434    0.0680   -0.0267   -0.0408   -0.0044
          56    0.0138   -0.0043   -0.0299   -0.0014   -0.0064   -0.0293    0.0183    0.0042
          57   -0.0525   -0.0594    0.0476   -0.0143    0.0441    0.0979    0.0857   -0.0153
          58    0.0195   -0.0822   -0.0417   -0.0095    0.0863   -0.0261   -0.0415   -0.0011
          59    0.0165   -0.0668   -0.0550   -0.0582    0.0015   -0.0452   -0.0104   -0.0044
          60    0.3066    0.1057    0.0807    0.3964    0.2590    0.0983    0.0334    0.0042
          61   -0.0695   -0.0120   -0.0157   -0.0039    0.0390   -0.0072   -0.0496   -0.0020
          62    0.0014    0.0010   -0.0173   -0.0077    0.0046   -0.0177   -0.0127   -0.0042
          63   -0.0619    0.0229   -0.0264    0.1004    0.0567    0.0117    0.0014    0.0020
          64   -0.1595   -0.0161   -0.0358    0.0530    0.0915   -0.0053   -0.0466   -0.0021
          65   -0.0215    0.0086    0.0152   -0.0804   -0.0489   -0.0160   -0.0721   -0.0156
          66   -0.2349    0.0199   -0.0485    0.1745    0.1280    0.0165   -0.0136   -0.0022
          67    0.0998   -0.0053    0.0204   -0.1089   -0.0511   -0.0128   -0.0725   -0.0044
          68    0.0531    0.0195   -0.0629    0.1402    0.1348   -0.0043   -0.0312   -0.0086
          69   -0.0886    0.0298   -0.0582    0.2017    0.1445    0.0195    0.0001    0.0007
          70   -0.1627    0.0013   -0.0291    0.0621    0.1081    0.0028   -0.1107   -0.0145
          71   -0.0304   -0.0167    0.0078   -0.1002   -0.0755   -0.0281    0.0120    0.0010
          72    0.0612    0.0366   -0.0519    0.1799    0.1185    0.0184    0.0113    0.0038
          73   -0.0506   -0.0714   -0.0391   -0.0570    0.0215   -0.0360   -0.0225    0.0045
          74    0.0097    0.0277   -0.0115    0.0369    0.0069   -0.0040    0.0520    0.0071
          75   -0.2548   -0.1045   -0.0272   -0.3024   -0.2459   -0.1096   -0.0429    0.0107
          76   -0.0542    0.0156   -0.1369    0.1544   -0.3097    0.4635   -0.1616    0.0295
          77   -0.0991    0.2810    0.1485    0.0155    0.0014   -0.2396    0.5935   -0.0985
          78   -0.0418   -0.1609   -0.1009   -0.3932    0.4490    0.2307    0.2820   -0.1255
          79    0.0085   -0.1475   -0.1674    0.0699   -0.1635    0.4369    0.3572   -0.0925
          80   -0.2377    0.3015    0.3212   -0.0753    0.0675    0.1410   -0.0184    0.0294
          81   -0.0220    0.1167   -0.2148   -0.1433    0.1097   -0.1314   -0.0843   -0.0247
          82    0.0059    0.1180   -0.2863    0.2713   -0.4100   -0.0763    0.2945    0.0146
          83   -0.1622    0.2589    0.3295   -0.0044   -0.0388    0.3838   -0.3264   -0.0247
          84    0.0164    0.2710   -0.2976    0.0311   -0.1157   -0.3603   -0.3053    0.0201


   Root No.      17        18        19        20        21        22        23        24

                17 A      18 A      19 A      20 A      21 A      22 A      23 A      24 A   

                   0.2       0.2       0.2       0.3       0.4       0.4       0.6       0.6
  
           1    0.0081   -0.0121   -0.2187    0.0530    0.0650   -0.0008   -0.0082    0.0383
           2    0.0019    0.0015    0.0412    0.0312    0.1132    0.0030    0.0043   -0.0158
           3    0.0063   -0.0059    0.1141    0.0225    0.0270   -0.0002   -0.0111    0.0574
           4    0.0080   -0.0116   -0.2090    0.0530    0.0633   -0.0009   -0.0075    0.0352
           5   -0.0013    0.0063    0.0200    0.1079    0.4177    0.0110   -0.0227    0.1377
           6    0.0056   -0.0029    0.0986    0.0821    0.2701    0.0073    0.0283   -0.1568
           7    0.0147   -0.0028    0.0007    0.0044   -0.0225   -0.0011    0.0233   -0.1182
           8    0.0052   -0.0055    0.1012   -0.0337   -0.1483   -0.0040    0.0074   -0.0407
           9    0.0016    0.0051   -0.0264   -0.0106   -0.0066    0.0002   -0.0343    0.1451
          10    0.0143   -0.0048    0.0152    0.0255    0.0486    0.0007    0.0195   -0.0984
          11    0.0028   -0.0024    0.0401   -0.0876   -0.3475   -0.0090    0.0583   -0.2771
          12   -0.0006   -0.0069   -0.0721    0.0587    0.0903    0.0014    0.0768   -0.3332
          13    0.0121    0.0078    0.0604   -0.0025    0.0914    0.0032   -0.0407    0.1619
          14    0.0087   -0.0160    0.1519   -0.0370   -0.2072   -0.0067   -0.0835    0.3599
          15   -0.0042    0.0264   -0.0149   -0.0114    0.1698    0.0073   -0.0088    0.0330
          16    0.0034   -0.0004   -0.0416    0.0290    0.0553   -0.0002   -0.0087    0.0479
          17    0.0116   -0.0245   -0.2789    0.1547    0.3805    0.0065   -0.0160    0.0824
          18    0.0058   -0.0024    0.4767    0.0402    0.1819    0.0044    0.0208   -0.1032
          19    0.0080   -0.0062   -0.0377   -0.0170   -0.0976   -0.0028    0.0272   -0.1319
          20    0.0038    0.0023    0.0819   -0.0200   -0.0454   -0.0005    0.0056   -0.0333
          21    0.0096   -0.0096    0.0278   -0.0087   -0.1092   -0.0044   -0.0380    0.1678
          22    0.0030    0.0071    0.2890   -0.0842   -0.1512   -0.0010   -0.0605    0.2796
          23   -0.0010    0.0095   -0.0514   -0.0663   -0.1165   -0.0007   -0.0820    0.3021
          24    0.0073   -0.0063    0.0733   -0.0209   -0.1193   -0.0042   -0.0570    0.2561
          25    0.0086   -0.0068   -0.0433   -0.0162   -0.0964   -0.0025    0.0257   -0.1222
          26    0.0057    0.0090    0.2412   -0.0339   -0.1342   -0.0035    0.0865   -0.3529
          27    0.0165   -0.0200   -0.2847    0.0066   -0.1640   -0.0071    0.0369   -0.1814
          28    0.0036   -0.0013   -0.0629    0.0331    0.0631   -0.0001   -0.0111    0.0599
          29    0.0018   -0.0015   -0.1051    0.0352    0.1017    0.0023    0.0086   -0.0401
          30   -0.0006    0.0035    0.0474   -0.0040   -0.0177   -0.0010   -0.0060    0.0332
          31   -0.0023    0.0157    0.2285   -0.0302   -0.0204    0.0001    0.0240   -0.1109
          32   -0.0075    0.0143   -0.2106   -0.0330   -0.0602   -0.0004    0.0197   -0.0945
          33   -0.0140    0.0206   -0.4115   -0.0932   -0.2992   -0.0074   -0.0153    0.0773
          34    0.0618   -0.1951   -0.0007   -0.0317    0.0073   -0.0082    0.0080    0.0003
          35    0.0130   -0.0327    0.0006    0.0077    0.0014    0.0043   -0.0435   -0.0165
          36    0.0020    0.0342   -0.0001   -0.0042    0.0017   -0.1128    0.1638    0.0416
          37    0.0483   -0.2002   -0.0004   -0.0361    0.0099   -0.0367   -0.0249   -0.0093
          38    0.0537   -0.1307   -0.0008   -0.0046    0.0001    0.0373    0.0268    0.0070
          39   -0.1140   -0.0217    0.0021   -0.0024    0.0116   -0.4079   -0.0808   -0.0137
          40    0.0200   -0.1052    0.0011   -0.0188    0.0073   -0.0042    0.0262    0.0039
          41    0.0658   -0.1574   -0.0015   -0.0106    0.0012    0.0060   -0.0120   -0.0025
          42   -0.1386   -0.0521    0.0037    0.0050    0.0065   -0.1265    0.0559    0.0101
          43    0.0077    0.0323    0.0024    0.0009    0.0050   -0.0061    0.0333    0.0042
          44    0.0113   -0.0826   -0.0003    0.0031   -0.0003    0.0046   -0.0210   -0.0061
          45    0.1507    0.0358    0.0024   -0.0032    0.0100   -0.1172    0.1336    0.0253
          46   -0.0109    0.0027    0.0024   -0.0035    0.0053    0.0011    0.0478    0.0081
          47    0.0021    0.0347    0.0007    0.0177   -0.0006   -0.0017   -0.0539   -0.0191
          48   -0.1124   -0.0291    0.0054    0.0049    0.0047   -0.0612    0.2389    0.0515
          49    0.0126   -0.0934    0.0009   -0.0148    0.0057    0.0034    0.0575    0.0106
          50   -0.0060    0.0780    0.0016    0.0248   -0.0006   -0.0083   -0.0778   -0.0244
          51   -0.1464   -0.0166    0.0015   -0.0234    0.0046   -0.0009    0.5504    0.1215
          52    0.1349   -0.3423   -0.0021   -0.0449    0.0053    0.0554    0.0187    0.0112
          53   -0.0281    0.0313    0.0013    0.0083    0.0044   -0.0431   -0.0367   -0.0195
          54    0.2363    0.1522   -0.0033    0.0495   -0.0277    0.4014   -0.3219   -0.0624
          55    0.0109    0.1713    0.0034    0.0223    0.0011    0.0074    0.0212   -0.0010
          56   -0.0221   -0.1472   -0.0004   -0.0038    0.0009   -0.0093   -0.0051   -0.0013
          57    0.6611    0.1765   -0.0027   -0.0124    0.0102    0.0134   -0.0611   -0.0270
          58   -0.0526    0.0838    0.0036    0.0165    0.0008    0.0197   -0.0213   -0.0095
          59    0.0008    0.1200    0.0010    0.0256   -0.0017   -0.0253   -0.0127   -0.0130
          60   -0.3335   -0.1046    0.0117    0.0754   -0.0164    0.1826   -0.4490   -0.1003
          61   -0.0237    0.0605   -0.0001   -0.0212    0.0038   -0.0195   -0.0329   -0.0099
          62   -0.0139    0.0644   -0.0000    0.0102   -0.0044    0.0221    0.0434    0.0140
          63   -0.0136   -0.0061   -0.0012    0.0020    0.0008   -0.1766   -0.0945   -0.0168
          64    0.0214    0.0318   -0.0006   -0.0272    0.0035    0.0910    0.0009   -0.0073
          65   -0.1752    0.4282    0.0030    0.0484   -0.0089   -0.1629   -0.0430    0.0016
          66    0.0075    0.0746   -0.0010    0.0073   -0.0016   -0.0590   -0.0659   -0.0155
          67   -0.1321    0.1811    0.0012   -0.0185    0.0091   -0.2931   -0.2397   -0.0569
          68    0.0514    0.1656   -0.0029    0.0234   -0.0222    0.3876    0.3129    0.0823
          69    0.0509    0.0032   -0.0029    0.0065   -0.0086    0.0689    0.0885    0.0276
          70   -0.0870    0.4004    0.0004    0.0065   -0.0082    0.1552    0.0576    0.0076
          71   -0.0297   -0.0705    0.0015   -0.0007    0.0063   -0.1581   -0.0249   -0.0005
          72    0.0548   -0.0661   -0.0036   -0.0033   -0.0050   -0.0622   -0.0654   -0.0088
          73   -0.0095   -0.0911    0.0015   -0.0118    0.0044    0.0514    0.0298    0.0052
          74    0.1308   -0.3055   -0.0033   -0.0443    0.0095   -0.0575   -0.0694   -0.0220
          75   -0.3857   -0.1597    0.0058    0.0384   -0.0158    0.4564   -0.0328   -0.0164
          76    0.0064   -0.0308    0.0329    0.1625   -0.0622   -0.0105    0.0095    0.0136
          77   -0.0716    0.1006   -0.0598   -0.2404    0.0988    0.0154   -0.0081   -0.0116
          78   -0.0868   -0.0176   -0.0207    0.0279   -0.0405   -0.0113    0.0370   -0.0018
          79   -0.1040    0.0580   -0.0238   -0.2850    0.0721    0.0175    0.0089   -0.0145
          80    0.0191   -0.0674    0.0311    0.5981   -0.1701   -0.0436    0.0393    0.0286
          81    0.0383   -0.0144   -0.0099    0.0162   -0.0218   -0.0035   -0.0257    0.0042
          82    0.0142    0.0515   -0.0027    0.2572   -0.0688   -0.0186    0.0166    0.0024
          83   -0.0330   -0.0219   -0.0031   -0.4807    0.1324    0.0347   -0.0007   -0.0245
          84    0.0960    0.0100   -0.0154   -0.2456    0.0642    0.0199   -0.0633   -0.0142


   Root No.      25        26        27        28        29        30        31        32

                25 A      26 A      27 A      28 A      29 A      30 A      31 A      32 A   

                   0.7       0.7       0.8       0.9       1.0       1.0       1.0       1.0
  
           1   -0.0016   -0.0007    0.0004   -0.0001    0.0211   -0.0982    0.0108   -0.0022
           2   -0.0043   -0.0781    0.0001    0.0003   -0.1242    0.0089   -0.0011    0.0005
           3   -0.0095   -0.1172    0.0002    0.0002   -0.0702   -0.1220    0.0132   -0.0032
           4   -0.0017   -0.0006    0.0004    0.0000    0.0297   -0.1224    0.0134   -0.0027
           5   -0.0178   -0.2139   -0.0004   -0.0005    0.4958    0.2584   -0.0291    0.0123
           6    0.0339    0.4602    0.0001   -0.0002   -0.0972   -0.0292    0.0040   -0.0041
           7    0.0075    0.0636   -0.0001    0.0001    0.0911   -0.0159    0.0011    0.0025
           8   -0.0011   -0.0371    0.0003    0.0006   -0.0575   -0.0518    0.0048    0.0016
           9   -0.0051   -0.0239    0.0001   -0.0003   -0.0108   -0.0955    0.0115   -0.0048
          10    0.0048    0.0305   -0.0001    0.0003    0.0321    0.0039   -0.0014    0.0030
          11    0.0108    0.0513    0.0005    0.0008    0.1371   -0.0936    0.0092    0.0039
          12    0.0017   -0.1022    0.0003    0.0008   -0.0133   -0.0182    0.0009    0.0034
          13   -0.0022    0.0100   -0.0002    0.0002   -0.0667   -0.0659    0.0066   -0.0005
          14   -0.0104   -0.0116    0.0003    0.0001   -0.1095   -0.1576    0.0171   -0.0053
          15   -0.0066   -0.1185   -0.0001    0.0002   -0.1349   -0.0606    0.0070   -0.0015
          16   -0.0051   -0.0466    0.0005    0.0002    0.1320   -0.1548    0.0171   -0.0027
          17   -0.0076   -0.0758   -0.0001   -0.0006   -0.1752   -0.0571    0.0084   -0.0074
          18    0.0178    0.2268   -0.0001    0.0001    0.1671    0.0949   -0.0112    0.0059
          19    0.0100    0.1026    0.0001    0.0001    0.0516   -0.0266    0.0024    0.0014
          20    0.0002   -0.0178    0.0001    0.0003   -0.0413   -0.0142    0.0013    0.0011
          21   -0.0117   -0.1075    0.0003   -0.0000   -0.0535   -0.1544    0.0173   -0.0053
          22   -0.0212   -0.2245   -0.0007   -0.0012   -0.0172    0.5329   -0.0578    0.0115
          23    0.0358    0.6564   -0.0000   -0.0014    0.1995    0.0527   -0.0046   -0.0001
          24   -0.0169   -0.1533    0.0002   -0.0003   -0.0679   -0.0620    0.0074   -0.0039
          25    0.0100    0.1091    0.0000    0.0001    0.0631    0.0063   -0.0011    0.0018
          26   -0.0106   -0.2740    0.0002    0.0004    0.2443   -0.1979    0.0231   -0.0061
          27    0.0054   -0.0010   -0.0003   -0.0003    0.0308    0.6029   -0.0666    0.0182
          28   -0.0060   -0.0581    0.0004   -0.0000    0.1292   -0.1363    0.0152   -0.0024
          29    0.0004   -0.0162   -0.0000    0.0001   -0.1697    0.0612   -0.0067    0.0013
          30   -0.0038   -0.0415    0.0001    0.0000    0.0221   -0.0841    0.0093   -0.0015
          31    0.0064    0.0426    0.0000   -0.0009   -0.4698    0.0536   -0.0037   -0.0053
          32    0.0047    0.0219   -0.0002   -0.0000   -0.3896    0.1800   -0.0191    0.0012
          33   -0.0057   -0.0413    0.0003    0.0005    0.2122   -0.0799    0.0083    0.0001
          34   -0.0204    0.0008   -0.0278    0.0084   -0.0005   -0.0097   -0.0823    0.0121
          35   -0.1029    0.0041   -0.0221    0.0016   -0.0010   -0.0071   -0.0748    0.0054
          36   -0.0384    0.0081   -0.0003   -0.0061    0.0001   -0.0002    0.0041    0.0117
          37   -0.0678    0.0029   -0.0133    0.0099   -0.0007   -0.0072   -0.0559    0.0317
          38    0.0885   -0.0061   -0.0064    0.0047    0.0001   -0.0059   -0.0617   -0.0237
          39    0.0743   -0.0050    0.0051   -0.0024   -0.0019   -0.0035    0.0271    0.2676
          40    0.1046   -0.0088   -0.0311   -0.0497   -0.0018   -0.0063   -0.0491    0.0271
          41   -0.0025   -0.0000   -0.0199   -0.0022    0.0005   -0.0100   -0.0961   -0.0164
          42   -0.0000   -0.0002   -0.0023    0.0006   -0.0050   -0.0040    0.0233    0.2931
          43    0.0947   -0.0087   -0.0105   -0.0151   -0.0031   -0.0104   -0.0908    0.0290
          44   -0.0377    0.0017    0.0015    0.0471   -0.0006   -0.0191   -0.1805   -0.0027
          45   -0.0317    0.0026   -0.0059    0.0021   -0.0060   -0.0035    0.0157    0.2341
          46    0.0916   -0.0080   -0.0156   -0.0122   -0.0027   -0.0083   -0.0752    0.0031
          47   -0.1443    0.0069    0.0030    0.0648   -0.0013   -0.0095   -0.0975    0.0117
          48   -0.0801    0.0095   -0.0062    0.0011   -0.0030    0.0004    0.0026    0.0044
          49   -0.0254    0.0013    0.0025    0.0557   -0.0019   -0.0153   -0.1405   -0.0170
          50   -0.1013    0.0030   -0.0024    0.0097   -0.0022   -0.0089   -0.0841    0.0396
          51   -0.1586    0.0216   -0.0079   -0.0124    0.0018    0.0056   -0.0225   -0.3127
          52    0.2932   -0.0191   -0.2360   -0.0073    0.0030    0.0113    0.1004   -0.0219
          53   -0.2600    0.0141    0.0658    0.0091   -0.0026   -0.0200   -0.1875    0.0245
          54    0.0099   -0.0020    0.0294    0.0063    0.0026   -0.0055   -0.0179    0.0721
          55    0.0638   -0.0073    0.0783    0.7292   -0.0023    0.0184    0.1371   -0.0179
          56   -0.0320    0.0020   -0.0353   -0.2178   -0.0013   -0.0350   -0.3055    0.0465
          57   -0.0090   -0.0059   -0.0029   -0.0797    0.0001    0.0001   -0.0598   -0.1771
          58    0.1256   -0.0127   -0.1606   -0.4383   -0.0012    0.0489    0.4359   -0.0441
          59   -0.1702    0.0084   -0.1233   -0.3000   -0.0002    0.0391    0.3348   -0.0357
          60    0.0795   -0.0140    0.0113    0.0151   -0.0000   -0.0014   -0.0053    0.0662
          61   -0.1074    0.0064    0.0669   -0.0118    0.0003   -0.0049   -0.0354    0.0211
          62    0.1406   -0.0084    0.0585    0.0086    0.0006   -0.0020   -0.0225   -0.0170
          63    0.0599   -0.0041    0.0028    0.0033    0.0011   -0.0015    0.0105    0.0996
          64   -0.2117    0.0127    0.2946   -0.0575    0.0014    0.0049    0.0011   -0.1788
          65    0.4013   -0.0265   -0.4122    0.1158    0.0037   -0.0009   -0.0623   -0.2641
          66    0.0119   -0.0021    0.1868   -0.0268    0.0042    0.0175    0.0697   -0.3565
          67   -0.1815    0.0088    0.3479   -0.0810    0.0049    0.0156    0.0997   -0.1876
          68    0.2252   -0.0071    0.2994   -0.0123   -0.0013    0.0148    0.1845    0.1738
          69    0.1118   -0.0038    0.0269    0.0144   -0.0012   -0.0002    0.0658    0.2671
          70   -0.3197    0.0228   -0.2947   -0.0243   -0.0032   -0.0204   -0.0964    0.3569
          71    0.3046   -0.0218    0.4317   -0.0128   -0.0003    0.0120    0.1213    0.0759
          72    0.0199    0.0005   -0.2158    0.0429    0.0051   -0.0098   -0.1510   -0.2922
          73    0.1608   -0.0128   -0.0029   -0.0967   -0.0014   -0.0178   -0.1641   -0.0116
          74   -0.3107    0.0200   -0.2368    0.2850    0.0014    0.0571    0.5235   -0.0107
          75   -0.0632   -0.0001   -0.0204    0.0368    0.0004    0.0113    0.0440   -0.1985
          76   -0.0015   -0.0031    0.0002   -0.0031   -0.0013    0.0121    0.0058    0.0011
          77    0.0124    0.0053   -0.0014   -0.0016   -0.0039   -0.0012    0.0075    0.0057
          78   -0.0160    0.0106    0.0006    0.0011    0.0135    0.0079   -0.0078   -0.0158
          79    0.0083   -0.0061   -0.0018   -0.0012    0.0087    0.0047    0.0042   -0.0003
          80   -0.0240    0.0150    0.0038   -0.0029   -0.0079    0.0145   -0.0010   -0.0093
          81    0.0079    0.0077   -0.0007    0.0002    0.0004    0.0074    0.0016    0.0131
          82   -0.0080    0.0031    0.0032   -0.0037    0.0058    0.0079    0.0031   -0.0076
          83    0.0128   -0.0157   -0.0047    0.0029    0.0067   -0.0068   -0.0011   -0.0065
          84    0.0223   -0.0040   -0.0017    0.0032    0.0035   -0.0123   -0.0011    0.0203


   Root No.      33        34        35        36        37        38        39        40

                33 A      34 A      35 A      36 A      37 A      38 A      39 A      40 A   

                   1.1       1.2       1.3       1.6       1.6       1.6       1.8       1.8
  
           1    0.0001    0.0053    0.0004   -0.0004    0.0008   -0.1467   -0.0443    0.2057
           2   -0.0039   -0.1370   -0.0013   -0.0005    0.0008   -0.1655    0.2132    0.0652
           3   -0.0031   -0.1065   -0.0009    0.0000   -0.0001    0.0500    0.4552    0.0715
           4    0.0003    0.0102    0.0004   -0.0005    0.0011   -0.2115   -0.0630    0.3227
           5   -0.0050   -0.1297   -0.0005    0.0007   -0.0019    0.3406   -0.0871    0.0735
           6    0.0068    0.2171    0.0021   -0.0002    0.0007   -0.1418   -0.1899   -0.0619
           7   -0.0017   -0.0431    0.0008    0.0010   -0.0014    0.2706    0.0422    0.0585
           8   -0.0073   -0.2393   -0.0014   -0.0008    0.0004   -0.1779   -0.0166   -0.2605
           9    0.0043    0.1253   -0.0004    0.0009   -0.0008    0.1843   -0.2041    0.2398
          10   -0.0044   -0.1337   -0.0002    0.0004   -0.0006    0.1197    0.0846   -0.0521
          11   -0.0051   -0.1411    0.0009    0.0004   -0.0014    0.2988   -0.1018   -0.1181
          12   -0.0074   -0.2309   -0.0022   -0.0001    0.0001   -0.0247   -0.0170   -0.2151
          13   -0.0048   -0.1776   -0.0011    0.0004   -0.0003    0.0059   -0.1024   -0.1501
          14   -0.0020   -0.0887   -0.0010   -0.0001   -0.0001   -0.0851   -0.3112   -0.1018
          15   -0.0046   -0.1798   -0.0029   -0.0001    0.0006   -0.2147   -0.1041   -0.1685
          16    0.0025    0.0768    0.0020   -0.0008    0.0013   -0.2712    0.0194   -0.1508
          17    0.0123    0.3745    0.0030    0.0005   -0.0014    0.2278   -0.0249   -0.3433
          18   -0.0035   -0.0979    0.0010   -0.0001    0.0002   -0.0989   -0.2577    0.1267
          19   -0.0030   -0.0918   -0.0005    0.0002   -0.0005    0.1125   -0.0072    0.0796
          20   -0.0037   -0.1252   -0.0011   -0.0002    0.0002   -0.0906   -0.0194   -0.0762
          21    0.0012    0.0309   -0.0002    0.0006   -0.0010    0.1556   -0.0349    0.1511
          22    0.0039    0.1543    0.0015   -0.0004    0.0008   -0.1535    0.0037   -0.0901
          23    0.0038    0.1351   -0.0005   -0.0002    0.0003   -0.0130    0.3085   -0.0218
          24    0.0027    0.0828    0.0002    0.0006   -0.0010    0.1612   -0.0119    0.1761
          25   -0.0040   -0.1333   -0.0015    0.0004   -0.0008    0.1327   -0.0241    0.0875
          26    0.0170    0.5636    0.0055   -0.0008    0.0020   -0.1909    0.0361    0.1553
          27    0.0014    0.1041    0.0030   -0.0008    0.0010   -0.1391    0.0451   -0.0797
          28    0.0023    0.0769    0.0018   -0.0007    0.0009   -0.1729    0.0276   -0.1384
          29   -0.0040   -0.1366   -0.0014   -0.0004    0.0010   -0.1507    0.1774    0.2830
          30   -0.0011   -0.0299    0.0009   -0.0002    0.0004    0.0466    0.5004   -0.0462
          31    0.0081    0.2409    0.0020    0.0004   -0.0018    0.3340    0.0474   -0.1659
          32   -0.0007   -0.0406   -0.0007    0.0002   -0.0004    0.0236   -0.1860    0.3670
          33    0.0017    0.0595    0.0031   -0.0001   -0.0003   -0.0008   -0.1736   -0.2154
          34   -0.0494    0.0021   -0.0194    0.0427   -0.0824   -0.0008   -0.0002   -0.0004
          35    0.1533   -0.0076    0.0156    0.0212   -0.2579   -0.0039    0.0018   -0.0025
          36    0.0205    0.0030   -0.1935    0.0000   -0.0214    0.0024   -0.0027   -0.0003
          37   -0.0529    0.0018   -0.0159    0.0678   -0.1060   -0.0014    0.0003   -0.0006
          38    0.0050   -0.0009    0.0087    0.0072   -0.0126   -0.0006    0.0003   -0.0007
          39    0.0057    0.0044   -0.1280   -0.0017    0.0016    0.0008   -0.0009    0.0001
          40   -0.1801    0.0031    0.0202   -0.0195   -0.2758   -0.0041    0.0017   -0.0023
          41    0.0062    0.0006   -0.0234   -0.0171    0.0786    0.0009   -0.0005    0.0000
          42    0.0141   -0.0034    0.2977    0.0116    0.0192   -0.0025    0.0016   -0.0015
          43   -0.1377   -0.0006    0.0484   -0.1352    0.0643   -0.0036    0.0021   -0.0041
          44    0.0609   -0.0021   -0.0361   -0.1399    0.3342    0.0015   -0.0003   -0.0011
          45    0.0161   -0.0074    0.4911    0.0121    0.0208   -0.0035    0.0026   -0.0026
          46   -0.1718    0.0007    0.0225   -0.1568    0.1452   -0.0026    0.0018   -0.0037
          47    0.1836   -0.0082   -0.0186   -0.0152   -0.0351   -0.0031    0.0012   -0.0026
          48    0.0371   -0.0065    0.2221    0.0176   -0.0191   -0.0015    0.0010   -0.0019
          49   -0.1155    0.0016   -0.0219   -0.0747    0.1372   -0.0012    0.0003   -0.0018
          50    0.1136   -0.0074    0.0214   -0.0448   -0.0651   -0.0041    0.0018   -0.0036
          51    0.0289   -0.0026   -0.2274   -0.0067   -0.0204    0.0018   -0.0012    0.0001
          52    0.6462   -0.0183    0.0274   -0.0761   -0.1035    0.0009    0.0000    0.0018
          53   -0.1218    0.0006   -0.0180    0.0891   -0.3749   -0.0054    0.0019   -0.0037
          54   -0.0784    0.0097    0.1862    0.0156   -0.0179    0.0056   -0.0021    0.0074
          55    0.1666   -0.0116   -0.0262    0.0264    0.1990   -0.0044    0.0030   -0.0058
          56   -0.0461    0.0020    0.0488   -0.2779    0.4317    0.0032   -0.0006   -0.0002
          57   -0.0173   -0.0059   -0.3266   -0.0375    0.0276   -0.0062    0.0028   -0.0075
          58   -0.1538   -0.0036   -0.0092    0.0246    0.2355   -0.0041    0.0019   -0.0050
          59    0.2940   -0.0156    0.0042    0.1907   -0.0257   -0.0049    0.0012   -0.0036
          60    0.0333   -0.0005   -0.1004    0.0137   -0.0234   -0.0025    0.0006   -0.0024
          61   -0.0365    0.0032   -0.0305    0.3376    0.0798    0.0006   -0.0002    0.0010
          62   -0.0173    0.0009    0.0159    0.2244    0.1086    0.0005   -0.0003    0.0000
          63    0.0066    0.0050   -0.2264   -0.0199    0.0084    0.0024   -0.0002    0.0027
          64    0.0185   -0.0044    0.2220    0.3355    0.0988   -0.0003   -0.0001   -0.0009
          65   -0.1523    0.0032    0.0912   -0.0044   -0.1248   -0.0000   -0.0009    0.0008
          66    0.0567   -0.0077    0.2252   -0.3573   -0.0929    0.0008   -0.0003   -0.0000
          67    0.1291   -0.0019   -0.0227   -0.3287   -0.0629    0.0037   -0.0011    0.0035
          68   -0.0382    0.0046    0.0898   -0.1794   -0.1090    0.0027   -0.0025    0.0024
          69   -0.0531    0.0087   -0.2405   -0.0051   -0.0559    0.0023   -0.0007    0.0032
          70    0.1042    0.0036   -0.1768   -0.0356    0.0455    0.0023   -0.0004    0.0016
          71   -0.0639    0.0026   -0.2047    0.2878    0.0843   -0.0018    0.0012   -0.0012
          72   -0.0507    0.0030    0.1641    0.3753    0.1301    0.0043   -0.0019    0.0039
          73   -0.1707    0.0029   -0.0217   -0.0123   -0.3677   -0.0049    0.0022   -0.0027
          74   -0.3824    0.0121    0.0099   -0.1433   -0.0285    0.0021   -0.0012    0.0018
          75   -0.0178   -0.0064   -0.1544   -0.0151    0.0384   -0.0041    0.0022   -0.0056
          76    0.0025    0.0069    0.0046    0.0032   -0.0049   -0.0005   -0.0031   -0.0169
          77    0.0022   -0.0195    0.0052    0.0029   -0.0015    0.0100    0.0042   -0.0127
          78    0.0006    0.0213   -0.0129   -0.0021   -0.0007    0.0090    0.0012    0.0265
          79    0.0024    0.0151    0.0019    0.0016   -0.0011    0.0061    0.0038    0.0040
          80   -0.0012   -0.0140   -0.0049    0.0008   -0.0043   -0.0032   -0.0016   -0.0070
          81    0.0011   -0.0004    0.0088    0.0012    0.0002    0.0135   -0.0056   -0.0115
          82   -0.0005    0.0150   -0.0083   -0.0005   -0.0006   -0.0054    0.0041    0.0256
          83    0.0032    0.0137   -0.0064   -0.0006    0.0025   -0.0111    0.0061    0.0118
          84   -0.0019    0.0109    0.0115   -0.0023    0.0057   -0.0003   -0.0041    0.0108


   Root No.      41        42        43        44        45        46        47        48

                41 A      42 A      43 A      44 A      45 A      46 A      47 A      48 A   

                   1.9       2.1       2.2       2.5       2.8       3.0       3.1       3.2
  
           1    0.0007   -0.0108    0.0015   -0.0137   -0.0614    0.0007   -0.0018    0.0019
           2    0.0007   -0.0088    0.0018   -0.0852    0.0883   -0.0008    0.0024   -0.0028
           3    0.0005    0.0050   -0.0009    0.0412   -0.1348   -0.0007   -0.0012   -0.0003
           4    0.0011   -0.0208    0.0031   -0.0294   -0.1254    0.0014   -0.0042    0.0052
           5   -0.0004    0.0136   -0.0025    0.0936   -0.0983   -0.0000   -0.0012    0.0016
           6   -0.0011   -0.0067    0.0011   -0.0368    0.0964    0.0004    0.0006   -0.0001
           7    0.0012   -0.0264    0.0057   -0.1991    0.2044    0.0002    0.0014   -0.0012
           8   -0.0013    0.0264   -0.0041   -0.0528   -0.3244   -0.0006   -0.0012    0.0009
           9    0.0009   -0.0112    0.0007    0.2641    0.3969    0.0001    0.0023   -0.0022
          10    0.0006   -0.0073    0.0028   -0.2391   -0.0033   -0.0003    0.0001   -0.0007
          11    0.0006   -0.0232    0.0054   -0.1729    0.3255    0.0013   -0.0000    0.0013
          12   -0.0000    0.0027    0.0001   -0.0987    0.0141    0.0007   -0.0013    0.0015
          13   -0.0002    0.0043   -0.0003   -0.0105    0.1427    0.0012   -0.0011    0.0017
          14   -0.0015    0.0224   -0.0052    0.3300    0.1547    0.0011   -0.0003    0.0016
          15   -0.0008    0.0194   -0.0046    0.1485   -0.1359    0.0000   -0.0005    0.0007
          16   -0.0002   -0.0129    0.0031   -0.1452    0.2432   -0.0013    0.0043   -0.0045
          17   -0.0012    0.0163   -0.0025   -0.0050   -0.0603   -0.0003    0.0003   -0.0002
          18   -0.0009   -0.0045    0.0007   -0.0852   -0.0812   -0.0001   -0.0004   -0.0000
          19    0.0001    0.0167   -0.0035    0.2035   -0.1315   -0.0008   -0.0009   -0.0003
          20   -0.0001    0.0030   -0.0004   -0.0328   -0.0205   -0.0008    0.0019   -0.0020
          21    0.0001   -0.0056    0.0012   -0.1527   -0.1321   -0.0006    0.0003   -0.0006
          22   -0.0003   -0.0056    0.0015   -0.0736    0.0918    0.0005    0.0001    0.0003
          23    0.0008    0.0010   -0.0000   -0.0704   -0.1315   -0.0000   -0.0008    0.0009
          24    0.0004   -0.0134    0.0036   -0.4167   -0.2294   -0.0008   -0.0001   -0.0007
          25   -0.0008    0.0457   -0.0099    0.4806   -0.3164   -0.0020    0.0003   -0.0019
          26    0.0012   -0.0235    0.0031    0.1037   -0.1110   -0.0001   -0.0013    0.0014
          27   -0.0003    0.0003    0.0002    0.1075    0.0556    0.0000   -0.0010    0.0005
          28   -0.0001   -0.0056    0.0012   -0.0648    0.1065    0.0002    0.0016   -0.0015
          29    0.0013   -0.0173    0.0026    0.0337    0.2125    0.0005    0.0008   -0.0001
          30    0.0002    0.0029   -0.0012    0.2666    0.2627    0.0014   -0.0013    0.0020
          31   -0.0007    0.0194   -0.0033    0.0987   -0.1356    0.0001   -0.0020    0.0020
          32    0.0003   -0.0139    0.0024   -0.1285   -0.0056   -0.0004    0.0008   -0.0007
          33   -0.0023    0.0108   -0.0018   -0.0466   -0.1295   -0.0002   -0.0005    0.0006
          34    0.0407    0.0330    0.2277    0.0013   -0.0008    0.0299   -0.1175   -0.3280
          35   -0.0403   -0.0094   -0.0323   -0.0008   -0.0043    0.2201    0.0688    0.1122
          36    0.4031   -0.0236   -0.0303    0.0008    0.0047    0.0329   -0.4177    0.1328
          37    0.0357    0.0303    0.2009    0.0010   -0.0012   -0.0098   -0.0552   -0.2283
          38   -0.0372   -0.0376   -0.2467   -0.0014   -0.0007   -0.0007   -0.0237   -0.2025
          39    0.3399   -0.0015   -0.0506   -0.0002    0.0010    0.0108   -0.1715    0.0416
          40    0.0139   -0.0209   -0.1645   -0.0019   -0.0026   -0.1458    0.0599    0.0351
          41   -0.0223   -0.0217   -0.1150   -0.0001    0.0002   -0.0293   -0.1338   -0.3152
          42    0.2364    0.0280   -0.0108   -0.0011   -0.0052    0.0006    0.5723   -0.1608
          43   -0.0178   -0.0040   -0.0116   -0.0018   -0.0047   -0.0031    0.0342    0.2875
          44    0.0278   -0.0009    0.0248    0.0002   -0.0018   -0.0045   -0.0083   -0.1276
          45   -0.2014    0.0046    0.0091   -0.0013   -0.0037   -0.0015   -0.1825    0.0075
          46   -0.0323   -0.0041    0.0024   -0.0016   -0.0041    0.0993    0.0380    0.2810
          47    0.0393    0.0231    0.1136   -0.0010   -0.0027   -0.2003    0.0772    0.2062
          48   -0.3717   -0.0201    0.0244   -0.0005    0.0003   -0.0242   -0.3401    0.0605
          49    0.0058    0.0493    0.2814   -0.0002   -0.0008   -0.1750    0.0333   -0.0675
          50    0.0077    0.0034    0.0165   -0.0018   -0.0039   -0.0248    0.0260    0.3349
          51   -0.0510   -0.0146   -0.0278    0.0003    0.0017    0.0090    0.4121   -0.0537
          52   -0.0163    0.0073    0.0185   -0.0002    0.0017    0.2170    0.0568    0.1864
          53    0.0019    0.0085    0.1166    0.0003   -0.0062    0.5367   -0.0314   -0.1476
          54   -0.1662    0.0151    0.0070    0.0017    0.0062    0.0189    0.1001   -0.0531
          55    0.0121   -0.0160   -0.0810   -0.0020   -0.0078    0.0107   -0.0461   -0.2224
          56    0.0015    0.0017    0.0627    0.0012   -0.0015   -0.0305   -0.0069    0.0248
          57    0.1017    0.0001    0.0108   -0.0023   -0.0074   -0.0029    0.0681    0.0074
          58    0.0118   -0.0107   -0.0624   -0.0021   -0.0067    0.3612   -0.0168   -0.1507
          59   -0.0069    0.0286    0.1397   -0.0011   -0.0033   -0.4569   -0.0520   -0.1774
          60    0.1922    0.0119    0.0114   -0.0006   -0.0023   -0.0695    0.0795   -0.0172
          61   -0.0216    0.0267    0.1897    0.0013    0.0008   -0.0177    0.0233    0.0930
          62    0.0115   -0.0447   -0.3184   -0.0019    0.0013    0.0351   -0.0013    0.0017
          63   -0.2852   -0.0073   -0.0298    0.0001    0.0021    0.0011    0.0370   -0.0149
          64    0.2413    0.0138    0.0937    0.0006   -0.0006   -0.0049   -0.0012    0.2083
          65   -0.0001    0.0473    0.3080    0.0019    0.0004   -0.0208    0.0052   -0.0023
          66    0.0814   -0.0146   -0.1051   -0.0011    0.0004    0.0065   -0.0265   -0.1195
          67   -0.1841   -0.0096   -0.0393    0.0009    0.0037   -0.0064    0.0337   -0.0365
          68    0.2791    0.0174    0.0777    0.0012    0.0035    0.0048   -0.0643   -0.0142
          69   -0.2291    0.0483    0.3502    0.0026    0.0016   -0.0360    0.0603    0.0391
          70   -0.0696   -0.0508   -0.3321   -0.0015    0.0027    0.0278    0.0011   -0.0304
          71   -0.2695   -0.0113   -0.0852   -0.0016   -0.0012    0.0251    0.0765    0.1001
          72    0.0392   -0.0275   -0.1939    0.0000    0.0052    0.0259    0.0227    0.0612
          73   -0.0214   -0.0447   -0.3079   -0.0025   -0.0024   -0.3930   -0.0424   -0.0304
          74    0.0080   -0.0061   -0.0567    0.0001    0.0027   -0.0576    0.0622    0.2078
          75   -0.0894   -0.0102    0.0281   -0.0019   -0.0045    0.0350   -0.2010    0.0673
          76    0.0044   -0.3961    0.0540    0.0232   -0.0147   -0.0012    0.0180   -0.0032
          77    0.0050   -0.2897    0.0390    0.0080   -0.0165   -0.0016    0.0095   -0.0018
          78   -0.0063    0.3379   -0.0485   -0.0188    0.0264    0.0047   -0.0051    0.0008
          79    0.0021   -0.1240    0.0161    0.0055   -0.0037    0.0003    0.0019   -0.0010
          80   -0.0013   -0.0033   -0.0035    0.0042   -0.0061    0.0038    0.0030    0.0037
          81    0.0095   -0.4627    0.0718    0.0357   -0.0191   -0.0104    0.0122   -0.0040
          82   -0.0063    0.5237   -0.0875   -0.0274    0.0262    0.0107   -0.0188    0.0063
          83   -0.0044    0.2985   -0.0411   -0.0207    0.0107    0.0014   -0.0082   -0.0049
          84    0.0005    0.1366   -0.0148   -0.0048    0.0100   -0.0010   -0.0166    0.0037


   Root No.      49        50        51        52        53        54        55        56

                49 A      50 A      51 A      52 A      53 A      54 A      55 A      56 A   

                   3.2       3.7       3.8       3.9       5.0       5.1       5.5       6.6
  
           1    0.1705   -0.0001    0.0207   -0.0002   -0.0291   -0.0002   -0.0001   -0.0291
           2   -0.2579   -0.0002    0.2688   -0.0020    0.1268   -0.0004    0.0001    0.3671
           3   -0.0629    0.0005    0.5890   -0.0039   -0.1653    0.0003   -0.0003   -0.1261
           4    0.4912    0.0007    0.1316   -0.0019    0.2457   -0.0008    0.0005    0.0265
           5    0.0888    0.0000   -0.0650    0.0007   -0.0361   -0.0000   -0.0001   -0.0671
           6    0.0048   -0.0001   -0.1320    0.0006    0.0414   -0.0002    0.0001    0.0264
           7   -0.0619   -0.0002    0.0396   -0.0009    0.1725   -0.0005    0.0003   -0.0850
           8    0.0216   -0.0000   -0.1680    0.0017    0.1844   -0.0007   -0.0001   -0.3228
           9   -0.1815    0.0001    0.1396   -0.0012    0.2627   -0.0008    0.0000   -0.0875
          10   -0.0420   -0.0003   -0.0395    0.0005    0.2258   -0.0010    0.0000   -0.2178
          11    0.1883    0.0004    0.0843   -0.0014   -0.1362    0.0005   -0.0001    0.0817
          12    0.1881    0.0004    0.0115   -0.0006   -0.2107    0.0010   -0.0001    0.1040
          13    0.2232    0.0002    0.0683   -0.0013   -0.3276    0.0012   -0.0001    0.2467
          14    0.1200    0.0003    0.0559   -0.0011   -0.0893    0.0003    0.0000   -0.0185
          15    0.0659    0.0005   -0.0420   -0.0001   -0.0079    0.0006    0.0002   -0.1116
          16   -0.4075   -0.0009   -0.0985    0.0009   -0.2952    0.0006    0.0003   -0.2373
          17   -0.0485   -0.0000    0.0573   -0.0004   -0.0186    0.0000   -0.0001   -0.0243
          18   -0.0390    0.0002    0.1240   -0.0009   -0.0033   -0.0002   -0.0000    0.0197
          19   -0.1109   -0.0008   -0.0273    0.0016    0.0073   -0.0008   -0.0006   -0.1551
          20   -0.2081   -0.0003   -0.0402    0.0005    0.4631   -0.0014    0.0004    0.1081
          21   -0.0755    0.0000   -0.0856    0.0005    0.0158    0.0001    0.0003   -0.2498
          22    0.0617   -0.0003    0.0356   -0.0007    0.0210   -0.0002    0.0002   -0.0410
          23    0.0818    0.0002    0.0606   -0.0005   -0.1094    0.0006   -0.0001   -0.0250
          24   -0.0785   -0.0002   -0.3567    0.0031   -0.1188    0.0001   -0.0002    0.3738
          25   -0.3432   -0.0010   -0.1476    0.0029   -0.1742   -0.0001   -0.0002    0.2807
          26    0.0866    0.0001    0.0022    0.0011   -0.1110    0.0003   -0.0005    0.0063
          27   -0.0083    0.0004    0.0476    0.0005   -0.0033   -0.0002   -0.0004    0.0206
          28   -0.1301   -0.0005   -0.0200   -0.0000    0.0308   -0.0003   -0.0001    0.1233
          29    0.0211   -0.0001   -0.2465    0.0016    0.0645   -0.0003    0.0003    0.2147
          30    0.2236    0.0003   -0.4422    0.0029    0.0222   -0.0003    0.0001   -0.1254
          31    0.1478    0.0001    0.0415   -0.0002    0.1218   -0.0007    0.0001    0.0903
          32   -0.0956   -0.0003   -0.0028    0.0001   -0.3359    0.0009   -0.0002   -0.3150
          33   -0.0257    0.0003    0.1447   -0.0012    0.1594   -0.0009    0.0000    0.1542
          34    0.0027   -0.0622    0.0013    0.2013   -0.0002   -0.0407    0.0460   -0.0000
          35   -0.0011    0.0431   -0.0018   -0.0975   -0.0004    0.0335   -0.0967   -0.0006
          36   -0.0047   -0.4204    0.0006   -0.0601   -0.0003   -0.3946   -0.0249    0.0002
          37    0.0022    0.0326    0.0002    0.0777   -0.0001    0.0451   -0.0023   -0.0000
          38    0.0022   -0.0377   -0.0006   -0.0368   -0.0002   -0.0248   -0.3234   -0.0001
          39   -0.0032    0.4669   -0.0002    0.0396    0.0016    0.4635   -0.0110   -0.0000
          40    0.0016    0.0073   -0.0011   -0.0383   -0.0011   -0.0394    0.0142   -0.0002
          41    0.0019    0.0085   -0.0008   -0.0973    0.0003    0.0484   -0.3200    0.0001
          42    0.0069    0.0309   -0.0008   -0.0026   -0.0021   -0.4167   -0.0422   -0.0005
          43   -0.0011   -0.0461   -0.0006    0.0826   -0.0012    0.0294    0.0706   -0.0004
          44    0.0009    0.0537   -0.0011   -0.0889   -0.0003   -0.0337   -0.1585   -0.0001
          45    0.0004   -0.4688   -0.0021   -0.0619    0.0006    0.4122   -0.0124   -0.0006
          46   -0.0017    0.0318   -0.0001    0.1426   -0.0012   -0.0278   -0.0947   -0.0003
          47    0.0004   -0.0561    0.0002    0.1497   -0.0002    0.0360   -0.1796   -0.0003
          48   -0.0027    0.5040   -0.0009    0.0570   -0.0013   -0.3722   -0.0192   -0.0003
          49    0.0033   -0.0476    0.0033    0.4745   -0.0002    0.0417   -0.1239    0.0001
          50   -0.0019   -0.0006   -0.0007    0.0693   -0.0007   -0.0235   -0.2043   -0.0005
          51    0.0037   -0.0347    0.0005   -0.0559    0.0015    0.3052    0.0080    0.0001
          52   -0.0020    0.0146    0.0004   -0.0078   -0.0001    0.0041    0.1058    0.0004
          53    0.0001   -0.0112   -0.0011    0.0043   -0.0014   -0.0079    0.2648   -0.0001
          54   -0.0009    0.1276    0.0021    0.0106    0.0017    0.0568    0.0124    0.0006
          55    0.0032    0.0290   -0.0034   -0.2022   -0.0017   -0.0115    0.1522   -0.0006
          56   -0.0013    0.0182   -0.0024   -0.3137   -0.0006   -0.0139    0.4850    0.0001
          57    0.0026    0.1270   -0.0029   -0.0014   -0.0018   -0.0651    0.0329   -0.0009
          58    0.0012   -0.0042   -0.0020   -0.0797   -0.0010    0.0081   -0.1669   -0.0006
          59    0.0043    0.0027   -0.0005    0.0613   -0.0012   -0.0075    0.2275   -0.0002
          60    0.0020   -0.1401   -0.0011   -0.0020   -0.0003    0.0511    0.0351   -0.0004
          61   -0.0009    0.0094   -0.0007   -0.1195   -0.0000   -0.0003    0.0658    0.0002
          62    0.0002   -0.0135    0.0013    0.1525    0.0001    0.0006   -0.1153    0.0002
          63   -0.0001   -0.0552    0.0009    0.0145    0.0005    0.0109   -0.0127    0.0002
          64   -0.0024    0.1145   -0.0026   -0.3026   -0.0003    0.0543   -0.1714    0.0002
          65   -0.0002   -0.0025   -0.0008   -0.1001    0.0000   -0.0057   -0.0272    0.0002
          66    0.0012   -0.0274    0.0015    0.1776    0.0000   -0.0161    0.0905   -0.0001
          67    0.0001   -0.0765    0.0005   -0.0753    0.0004   -0.0518   -0.0859    0.0006
          68   -0.0014    0.1065    0.0018    0.1220    0.0008    0.0743    0.1205    0.0004
          69   -0.0012   -0.0733   -0.0013   -0.3134    0.0003   -0.0757   -0.2057    0.0004
          70    0.0005   -0.0285    0.0017    0.1643    0.0001   -0.0108    0.0872    0.0003
          71    0.0008   -0.1151    0.0011    0.2052   -0.0007   -0.0674    0.2456   -0.0002
          72   -0.0015   -0.0353    0.0031    0.1627    0.0010   -0.0261    0.1516    0.0004
          73    0.0021    0.0288   -0.0034   -0.3038   -0.0010    0.0025    0.1009   -0.0001
          74   -0.0019    0.0039    0.0004   -0.0249    0.0002   -0.0110    0.0804    0.0004
          75   -0.0006   -0.0042   -0.0019    0.0263   -0.0008    0.0708   -0.0002   -0.0007
          76   -0.0025    0.0012    0.0004   -0.0015   -0.0010    0.0083   -0.0000   -0.0022
          77   -0.0044    0.0003   -0.0014   -0.0008    0.0007    0.0041    0.0001   -0.0029
          78   -0.0018    0.0014    0.0051   -0.0032    0.0072    0.0027   -0.0000   -0.0013
          79   -0.0074   -0.0004   -0.0011    0.0013    0.0030   -0.0028   -0.0022    0.0021
          80   -0.0009    0.0012   -0.0015   -0.0018   -0.0029    0.0000   -0.0027    0.0004
[...]
 TRAVEL (Ang.)       0.3248         C 16 -- H 20         +11.8% ( 46.3%)     26.3%
 REDUCED MASS        0.5426         C 12 -- H 18         +11.4% ( 45.3%)      7.0%
 EFFECTIVE MASS      5.8926
 FORCE CONSTANT      0.4438

 VIBRATION         45   45A           ATOM PAIR      ENERGY CONTRIBUTION    RADIAL
 FREQUENCY          1182.81         C  7 -- H  8         +27.6% ( 68.6%)      0.4%
 TRANSITION DIPOLE   0.4840         C  1 -- C  7         +26.0% ( 66.6%)     69.8%
 TRAVEL (Ang.)       0.2076         C  1 -- C 10         +13.1% ( 47.3%)      0.7%
 REDUCED MASS        1.3230         C  1 -- H  2          +9.1% ( 39.4%)     84.9%
 EFFECTIVE MASS      6.4789
 FORCE CONSTANT      1.0905

 VIBRATION         46   46A           ATOM PAIR      ENERGY CONTRIBUTION    RADIAL
 FREQUENCY          1199.64         C 14 -- H 25         +34.7% ( 73.6%)      1.9%
 TRANSITION DIPOLE   0.2591         C 16 -- H 20         +14.2% ( 47.1%)     14.4%
 TRAVEL (Ang.)       0.3597         C 15 -- C 16         +12.0% ( 43.2%)     90.5%
 REDUCED MASS        0.4344         C 12 -- C 13          +7.7% ( 34.7%)     75.9%
 EFFECTIVE MASS      4.0799
 FORCE CONSTANT      0.3683

 VIBRATION         47   47A           ATOM PAIR      ENERGY CONTRIBUTION    RADIAL
 FREQUENCY          1228.96         C  7 -- H  8         +39.4% ( 85.7%)      0.7%
 TRANSITION DIPOLE   0.7215         C  1 -- C  7         +21.1% ( 62.8%)     92.3%
 TRAVEL (Ang.)       0.1718         C  7 -- H  9         +14.8% ( 52.5%)      0.9%
 REDUCED MASS        1.8589         N  3 -- C  7         +14.1% ( 51.3%)     31.3%
 EFFECTIVE MASS      6.1661
 FORCE CONSTANT      1.6542

 VIBRATION         48   48A           ATOM PAIR      ENERGY CONTRIBUTION    RADIAL
 FREQUENCY          1231.20         C 16 -- H 20         +29.2% ( 69.4%)      7.3%
 TRANSITION DIPOLE   0.3603         C 12 -- H 18         +13.4% ( 47.0%)     99.5%
 TRAVEL (Ang.)       0.3259         C 12 -- N 17         +12.8% ( 46.0%)     99.2%
 REDUCED MASS        0.5156         C 12 -- C 13         +10.2% ( 41.0%)     41.0%
 EFFECTIVE MASS      4.6959
 FORCE CONSTANT      0.4605

 VIBRATION         49   49A           ATOM PAIR      ENERGY CONTRIBUTION    RADIAL
 FREQUENCY          1236.74         C 21 -- H 23         +41.7% ( 56.9%)      0.2%
 TRANSITION DIPOLE   0.7645         C 21 -- H 24         +26.2% ( 45.1%)      4.2%
 TRAVEL (Ang.)       0.4040         C 21 -- H 22         +15.5% ( 34.7%)     15.5%
 REDUCED MASS        0.3341         C 16 -- H 20          +5.1% ( 19.8%)      3.6%
 EFFECTIVE MASS      1.5643
 FORCE CONSTANT      0.3011

 VIBRATION         50   50A           ATOM PAIR      ENERGY CONTRIBUTION    RADIAL
 FREQUENCY          1246.39         C 21 -- H 22         +34.8% ( 52.8%)      0.2%
 TRANSITION DIPOLE   0.6768         C 21 -- H 24         +28.5% ( 47.8%)      1.0%
 TRAVEL (Ang.)       0.4151         C 21 -- H 23         +18.1% ( 38.1%)     13.7%
 REDUCED MASS        0.3140         C 16 -- H 20          +3.5% ( 16.8%)     12.9%
 EFFECTIVE MASS      1.6964
 FORCE CONSTANT      0.2874

 VIBRATION         51   51A           ATOM PAIR      ENERGY CONTRIBUTION    RADIAL
 FREQUENCY          1286.23         C 12 -- H 18         +29.4% ( 69.6%)      0.1%
 TRANSITION DIPOLE   0.3873         C 15 -- H 19         +16.1% ( 51.4%)      1.8%
 TRAVEL (Ang.)       0.3092         C 15 -- C 16         +10.6% ( 41.7%)     91.4%
 REDUCED MASS        0.5484         C 12 -- N 17          +7.4% ( 35.0%)     73.3%
 EFFECTIVE MASS      4.3285
 FORCE CONSTANT      0.5346

 VIBRATION         52   52A           ATOM PAIR      ENERGY CONTRIBUTION    RADIAL
 FREQUENCY          1298.63         C  1 -- H  2         +75.4% ( 88.8%)      0.8%
 TRANSITION DIPOLE   0.1848         H  6 -- C 10          +7.7% ( 28.4%)     29.5%
 TRAVEL (Ang.)       0.2730         C  1 -- C 10          +5.5% ( 23.9%)      1.4%
 REDUCED MASS        0.6965         C 10 -- H 11          +3.2% ( 18.2%)     17.7%
 EFFECTIVE MASS      1.9071
 FORCE CONSTANT      0.6920

 VIBRATION         53   53A           ATOM PAIR      ENERGY CONTRIBUTION    RADIAL
 FREQUENCY          1356.18         C 13 -- C 21         +21.5% ( 63.3%)     99.9%
 TRANSITION DIPOLE   1.2270         C 21 -- H 24         +15.7% ( 54.0%)      3.9%
 TRAVEL (Ang.)       0.2000         C 21 -- H 22         +15.1% ( 53.1%)      3.9%
 REDUCED MASS        1.2432         C 21 -- H 23         +12.8% ( 48.9%)      3.2%
 EFFECTIVE MASS      7.4306
 FORCE CONSTANT      1.3471

 VIBRATION         54   54A           ATOM PAIR      ENERGY CONTRIBUTION    RADIAL
 FREQUENCY          1366.29         C 10 -- H 11         +41.9% ( 61.6%)      0.5%
 TRANSITION DIPOLE   0.4687         H  6 -- C 10         +39.2% ( 59.6%)      1.5%
 TRAVEL (Ang.)       0.3341         C  1 -- H  2          +7.5% ( 26.1%)      0.0%
 REDUCED MASS        0.4422         C  1 -- C  7          +6.0% ( 23.4%)     81.8%
 EFFECTIVE MASS      1.7854
 FORCE CONSTANT      0.4863

 VIBRATION         55   55A           ATOM PAIR      ENERGY CONTRIBUTION    RADIAL
 FREQUENCY          1370.16         C 15 -- C 16         +10.6% ( 38.2%)     97.8%
 TRANSITION DIPOLE   0.8596         C 14 -- H 25         +10.2% ( 37.4%)      1.7%
 TRAVEL (Ang.)       0.3071         C 12 -- C 13          +9.5% ( 36.0%)      0.2%
 REDUCED MASS        0.5219         C 13 -- C 14          +9.3% ( 35.7%)     89.7%
 EFFECTIVE MASS      5.3610
 FORCE CONSTANT      0.5773

 VIBRATION         56   56A           ATOM PAIR      ENERGY CONTRIBUTION    RADIAL
 FREQUENCY          1372.94         C 16 -- N 17         +11.7% ( 43.8%)     95.0%
 TRANSITION DIPOLE   0.2966         C 14 -- C 15         +11.7% ( 43.6%)     98.5%
 TRAVEL (Ang.)       0.2497         C 12 -- C 13          +9.6% ( 39.6%)    100.0%
 REDUCED MASS        0.7879         C 12 -- N 17          +9.6% ( 39.5%)     87.9%
 EFFECTIVE MASS      6.1935
 FORCE CONSTANT      0.8750

 VIBRATION         57   57A           ATOM PAIR      ENERGY CONTRIBUTION    RADIAL
 FREQUENCY          1443.11         O 27 -- H 28         +58.2% ( 61.7%)      7.6%
 TRANSITION DIPOLE   1.1337         H 26 -- O 27         +40.7% ( 51.7%)     10.0%
 TRAVEL (Ang.)       0.2949         N  3 -- O  4          +0.3% (  4.4%)     99.9%
 REDUCED MASS        0.5372         N  3 -- C  7          +0.1% (  2.6%)     37.6%
 EFFECTIVE MASS      1.6815
 FORCE CONSTANT      0.6591

 VIBRATION         58   58A           ATOM PAIR      ENERGY CONTRIBUTION    RADIAL
 FREQUENCY          1507.20         N  3 -- O  5         +34.6% ( 79.8%)     72.3%
 TRANSITION DIPOLE   4.0599         N  3 -- O  4         +29.3% ( 73.4%)     58.5%
 TRAVEL (Ang.)       0.0941         O  4 -- O  5         +18.6% ( 58.4%)     99.9%
 REDUCED MASS        5.0545         N  3 -- C  7         +15.6% ( 53.6%)     98.7%
 EFFECTIVE MASS     14.7449
 FORCE CONSTANT      6.7650

 VIBRATION         59   59A           ATOM PAIR      ENERGY CONTRIBUTION    RADIAL
 FREQUENCY          1510.50         C 12 -- N 17         +16.3% ( 54.5%)     92.9%
 TRANSITION DIPOLE   0.8478         C 12 -- C 13         +14.7% ( 51.9%)     66.5%
 TRAVEL (Ang.)       0.1654         C 13 -- C 14         +12.7% ( 48.2%)      0.9%
 REDUCED MASS        1.6309         C 16 -- N 17          +9.5% ( 41.6%)      0.1%
 EFFECTIVE MASS     10.2748
 FORCE CONSTANT      2.1924

 VIBRATION         60   60A           ATOM PAIR      ENERGY CONTRIBUTION    RADIAL
 FREQUENCY          1556.30         C 13 -- C 14         +17.0% ( 56.5%)     94.8%
 TRANSITION DIPOLE   1.1152         C 12 -- C 13         +13.2% ( 49.8%)     24.2%
 TRAVEL (Ang.)       0.1599         C 13 -- C 21         +11.6% ( 46.7%)     90.5%
 REDUCED MASS        1.6952         C 15 -- C 16         +10.4% ( 44.3%)     15.8%
 EFFECTIVE MASS     10.0963         C 16 -- N 17         +10.3% ( 44.1%)     98.2%
 FORCE CONSTANT      2.4191         C 14 -- C 15         +10.3% ( 44.1%)     39.4%

 VIBRATION         61   61A           ATOM PAIR      ENERGY CONTRIBUTION    RADIAL
 FREQUENCY          1665.04         C 15 -- C 16         +17.4% ( 58.0%)     99.5%
 TRANSITION DIPOLE   3.4146         C 12 -- C 13         +16.7% ( 56.9%)     99.9%
 TRAVEL (Ang.)       0.1316         C 16 -- N 17         +10.5% ( 45.1%)     58.2%
 REDUCED MASS        2.3373         C 13 -- C 14          +9.7% ( 43.4%)     49.5%
 EFFECTIVE MASS     12.0176
 FORCE CONSTANT      3.8178

 VIBRATION         62   62A           ATOM PAIR      ENERGY CONTRIBUTION    RADIAL
 FREQUENCY          1665.64         N  3 -- O  4         +37.3% ( 86.2%)     92.1%
 TRANSITION DIPOLE  10.8307         N  3 -- O  5         +32.2% ( 80.1%)     85.0%
 TRAVEL (Ang.)       0.0796         N  3 -- C  7         +21.0% ( 64.7%)      0.6%
 REDUCED MASS        6.3919         O  4 -- O  5          +6.3% ( 35.3%)      3.4%
 EFFECTIVE MASS     14.3674
 FORCE CONSTANT     10.4482

 VIBRATION         63   63A           ATOM PAIR      ENERGY CONTRIBUTION    RADIAL
 FREQUENCY          1687.42         C 13 -- C 14         +18.7% ( 59.4%)     79.7%
 TRANSITION DIPOLE   0.2435         C 14 -- C 15         +18.6% ( 59.1%)     90.3%
 TRAVEL (Ang.)       0.1260         C 12 -- N 17         +12.7% ( 49.0%)     92.4%
 REDUCED MASS        2.5186         C 16 -- N 17         +11.4% ( 46.3%)     86.1%
 EFFECTIVE MASS     12.3246         C 14 -- H 25         +10.1% ( 43.7%)      0.0%
 FORCE CONSTANT      4.2254

 VIBRATION         64   64A           ATOM PAIR      ENERGY CONTRIBUTION    RADIAL
 FREQUENCY          1840.71         C  1 -- C 10         +46.5% ( 99.7%)     99.8%
 TRANSITION DIPOLE   0.4910         C  1 -- C  7         +15.6% ( 57.8%)     40.2%
 TRAVEL (Ang.)       0.0810         C  1 -- H  2         +14.9% ( 56.5%)     11.5%
 REDUCED MASS        5.5875         H  6 -- C 10         +11.3% ( 49.2%)     18.3%
 EFFECTIVE MASS     11.8240         C 10 -- H 11         +11.3% ( 49.1%)     18.5%
 FORCE CONSTANT     11.1542

 VIBRATION         65   65A           ATOM PAIR      ENERGY CONTRIBUTION    RADIAL
 FREQUENCY          1911.96         C  7 -- H  9         +89.2% ( 99.3%)    100.0%
 TRANSITION DIPOLE   1.1356         C  7 -- H  8          +3.5% ( 19.7%)     17.5%
 TRAVEL (Ang.)       0.1445         C  1 -- C  7          +3.2% ( 18.9%)      7.6%
 REDUCED MASS        1.6899         N  3 -- C  7          +3.2% ( 18.7%)      2.2%
 EFFECTIVE MASS      2.9710
 FORCE CONSTANT      3.6398

 VIBRATION         66   66A           ATOM PAIR      ENERGY CONTRIBUTION    RADIAL
 FREQUENCY          2632.50         C  7 -- H  8         +97.5% ( 99.2%)     99.9%
 TRANSITION DIPOLE   1.3551         C  7 -- H  9          +0.7% (  8.1%)      0.0%
 TRAVEL (Ang.)       0.1671         N  3 -- C  7          +0.6% (  8.0%)      1.8%
 REDUCED MASS        0.9179         C  1 -- C  7          +0.6% (  7.9%)      5.7%
 EFFECTIVE MASS      1.3210
 FORCE CONSTANT      3.7477

 VIBRATION         67   67A           ATOM PAIR      ENERGY CONTRIBUTION    RADIAL
 FREQUENCY          2643.03         C 21 -- H 23         +67.9% ( 85.0%)     99.7%
 TRANSITION DIPOLE   0.9586         C 21 -- H 24         +17.5% ( 43.2%)     87.6%
 TRAVEL (Ang.)       0.2208         C 21 -- H 22         +13.7% ( 38.2%)     83.6%
 REDUCED MASS        0.5234         C 13 -- C 21          +0.8% (  9.3%)      0.1%
 EFFECTIVE MASS      1.4297
 FORCE CONSTANT      2.1544

 VIBRATION         68   68A           ATOM PAIR      ENERGY CONTRIBUTION    RADIAL
 FREQUENCY          2651.75         C 21 -- H 22         +51.2% ( 73.9%)     98.2%
 TRANSITION DIPOLE   0.8694         C 21 -- H 24         +46.9% ( 70.7%)     97.7%
 TRAVEL (Ang.)       0.2261         C 21 -- H 23          +0.9% (  9.9%)      2.3%
 REDUCED MASS        0.4972         C 13 -- C 21          +0.9% (  9.7%)      0.0%
 EFFECTIVE MASS      1.4442
 FORCE CONSTANT      2.0599

 VIBRATION         69   69A           ATOM PAIR      ENERGY CONTRIBUTION    RADIAL
 FREQUENCY          2670.17         O 27 -- H 28         +51.9% ( 74.1%)     96.8%
 TRANSITION DIPOLE   2.6336         H 26 -- O 27         +47.5% ( 70.8%)     96.1%
 TRAVEL (Ang.)       0.2214         C  7 -- H  8          +0.2% (  4.8%)    100.0%
 REDUCED MASS        0.5154         C 16 -- H 20          +0.1% (  3.8%)    100.0%
 EFFECTIVE MASS      1.5108
 FORCE CONSTANT      2.1650

 VIBRATION         70   70A           ATOM PAIR      ENERGY CONTRIBUTION    RADIAL
 FREQUENCY          2687.92         H  6 -- C 10         +45.3% ( 69.4%)     98.6%
 TRANSITION DIPOLE   0.6393         C 10 -- H 11         +44.1% ( 68.4%)     98.5%
 TRAVEL (Ang.)       0.2448         C  1 -- H  2          +9.4% ( 31.6%)     99.7%
 REDUCED MASS        0.4186         C  1 -- C 10          +1.0% ( 10.4%)      3.4%
 EFFECTIVE MASS      1.4596
 FORCE CONSTANT      1.7819

 VIBRATION         71   71A           ATOM PAIR      ENERGY CONTRIBUTION    RADIAL
 FREQUENCY          2708.78         C 12 -- H 18         +94.0% ( 97.9%)    100.0%
 TRANSITION DIPOLE   1.3637         C 16 -- H 20          +2.6% ( 16.4%)     99.9%
 TRAVEL (Ang.)       0.1701         C 12 -- C 13          +1.1% ( 10.4%)     26.3%
 REDUCED MASS        0.8599         C 12 -- N 17          +1.0% ( 10.3%)     11.0%
 EFFECTIVE MASS      1.3802
 FORCE CONSTANT      3.7175

 VIBRATION         72   72A           ATOM PAIR      ENERGY CONTRIBUTION    RADIAL
 FREQUENCY          2716.35         C 16 -- H 20         +88.4% ( 95.1%)    100.0%
 TRANSITION DIPOLE   1.2325         C 15 -- H 19          +6.3% ( 25.3%)     99.7%
 TRAVEL (Ang.)       0.1800         C 12 -- H 18          +1.9% ( 14.1%)     99.7%
 REDUCED MASS        0.7664         C 15 -- C 16          +1.0% ( 10.2%)     11.3%
 EFFECTIVE MASS      1.3907
 FORCE CONSTANT      3.3319

 VIBRATION         73   73A           ATOM PAIR      ENERGY CONTRIBUTION    RADIAL
 FREQUENCY          2724.17         C 14 -- H 25         +78.6% ( 89.6%)    100.0%
 TRANSITION DIPOLE   1.0159         C 15 -- H 19         +18.9% ( 44.0%)     99.9%
 TRAVEL (Ang.)       0.1974         C 14 -- C 15          +1.0% (  9.9%)      3.5%
 REDUCED MASS        0.6351         C 13 -- C 14          +0.9% (  9.5%)     16.9%
 EFFECTIVE MASS      1.3788
 FORCE CONSTANT      2.7770

 VIBRATION         74   74A           ATOM PAIR      ENERGY CONTRIBUTION    RADIAL
 FREQUENCY          2729.66         C  1 -- H  2         +87.6% ( 94.6%)    100.0%
 TRANSITION DIPOLE   1.2431         C 10 -- H 11          +5.5% ( 23.6%)     98.3%
 TRAVEL (Ang.)       0.1807         H  6 -- C 10          +4.4% ( 21.1%)     98.4%
 REDUCED MASS        0.7564         C  1 -- C 10          +1.1% ( 10.7%)     69.3%
 EFFECTIVE MASS      1.4274
 FORCE CONSTANT      3.3205

 VIBRATION         75   75A           ATOM PAIR      ENERGY CONTRIBUTION    RADIAL
 FREQUENCY          2740.83         C 15 -- H 19         +71.8% ( 85.5%)    100.0%
 TRANSITION DIPOLE   1.4201         C 14 -- H 25         +17.4% ( 42.1%)     99.9%
 TRAVEL (Ang.)       0.2141         C 16 -- H 20          +6.0% ( 24.7%)     99.4%
 REDUCED MASS        0.5365         C 12 -- H 18          +1.4% ( 11.7%)     99.9%
 EFFECTIVE MASS      1.4281
 FORCE CONSTANT      2.3747

 VIBRATION         76   76A           ATOM PAIR      ENERGY CONTRIBUTION    RADIAL
 FREQUENCY          2766.92         C 10 -- H 11         +49.3% ( 69.6%)     94.9%
 TRANSITION DIPOLE   1.1186         H  6 -- C 10         +49.1% ( 69.4%)     94.7%
 TRAVEL (Ang.)       0.2246         C  1 -- C 10          +1.3% ( 11.5%)     99.9%
 REDUCED MASS        0.4830
 EFFECTIVE MASS      1.3405
 FORCE CONSTANT      2.1788

 VIBRATION         77   77A           ATOM PAIR      ENERGY CONTRIBUTION    RADIAL
 FREQUENCY          2771.07         C 21 -- H 24         +34.7% ( 56.4%)     95.7%
 TRANSITION DIPOLE   0.7582         C 21 -- H 22         +34.1% ( 55.9%)     95.6%
 TRAVEL (Ang.)       0.2757         C 21 -- H 23         +29.8% ( 52.3%)     94.6%
 REDUCED MASS        0.3202         C 14 -- H 25          +0.4% (  6.1%)     98.6%
 EFFECTIVE MASS      1.1508
 FORCE CONSTANT      1.4488

 VIBRATION         78   78A           ATOM PAIR      ENERGY CONTRIBUTION    RADIAL
 FREQUENCY          2794.89         H 26 -- O 27         +51.9% ( 69.2%)    100.0%
 TRANSITION DIPOLE   1.1284         O 27 -- H 28         +47.8% ( 66.4%)    100.0%
 TRAVEL (Ang.)       0.2226
 REDUCED MASS        0.4870
 EFFECTIVE MASS      1.1677
 FORCE CONSTANT      2.2415

      SYMMETRY NUMBER FOR POINT-GROUP C1  =  1


          SYSTEM IS A GROUND STATE



 Title: ASE calculation


          MOLECULE IS NOT LINEAR

          THERE ARE 78 GENUINE VIBRATIONS IN THIS SYSTEM
          THIS THERMODYNAMICS CALCULATION IS LIMITED TO
          MOLECULES WHICH HAVE NO INTERNAL ROTATIONS




                    CALCULATED THERMODYNAMIC PROPERTIES
                                          *
   TEMP. (K)   PARTITION FUNCTION   H.O.F.    ENTHALPY  HEAT CAPACITY ENTROPY
                                   KCAL/MOL   CAL/MOLE    CAL/K/MOL  CAL/K/MOL


 298.00  VIB.     0.5464D+08                  9277.3955    53.9332    66.5366
         ROT.     0.4426D+07                   888.2803     2.9808    33.3909
         INT.     0.2418D+15                 10165.6758    56.9140    99.9275
         TRA.     0.2719D+28                  1480.4672     4.9680    41.7704
         TOT.                      -60.172   11646.1430    61.8820   141.6979

   *: NOTE: HEATS OF FORMATION ARE RELATIVE TO THE
            ELEMENTS IN THEIR STANDARD STATE AT 298K
              (=  Standard Enthalpy of Formation).

            Hvib:  Zero-point energy is not included.
                   frequencies of less than zero cm-1 are not included.
            Hrot = (3/2)RT
            Htra = (3/2)RT + pV = (5/2)RT

            Heat capacity is Cp, not Cv

          For more information, see: HTTP://OpenMOPAC.net/Manual/thermochemistry.html


           FORCE CONSTANT IN CARTESIAN COORDINATES (Millidynes/A)

    ATOM   CHEMICAL       X               Y               Z
   NUMBER   SYMBOL  FORCE CONSTANT  FORCE CONSTANT  FORCE CONSTANT

      1       C        9.331778       10.658796        4.490098
      2       H        4.158344        0.794961        0.468134
      3       N       13.896512        8.307370        5.529681
      4       O       11.333787        1.833715        0.980676
      5       O        5.841976        4.080176        3.910473
      6       H        4.139456        0.682695        0.428275
      7       C        7.166344        6.909403        6.129008
      8       H        0.670230        0.766858        3.796427
      9       H        3.852277        0.907162        0.583693
     10       C        8.751231       10.060498        4.060214
     11       H        1.176415        3.050676        1.013637
     12       C       10.442411       10.288476        2.683510
     13       C       11.087447       11.527084        2.747837
     14       C        9.848739       11.198530        2.513882
     15       C       10.808408       10.092619        2.485865
     16       C       10.469038       10.722604        2.583834
     17       N        7.725975       11.888827        1.524992
     18       H        1.457523        3.577317        0.384386
     19       H        1.269024        3.770353        0.389486
     20       H        2.247231        2.740487        0.429385
     21       C        6.700255        7.067371        5.837815
     22       H        3.153199        0.850545        1.311752
     23       H        0.828103        1.196375        3.199082
     24       H        1.265161        2.592365        1.463350
     25       H        4.059246        0.994930        0.398718
     26       H        2.858669        0.962610        0.984465
     27       O        3.733268        1.649770        3.485556
     28       H        1.747464        1.092213        2.290700

 **********************
 *                    *
 * JOB ENDED NORMALLY *
 *                    *
 **********************



 TOTAL JOB TIME:             4.06 SECONDS

 == MOPAC DONE ==
