 *******************************************************************************
 **                                                                           **
 **                              MOPAC v22.0.6                                **
 **                                                                           **
 *******************************************************************************
 **          Digital Object Identifier (DOI): 10.5281/zenodo.6511958          **
 **    Visit the DOI location for information on how to cite this program.    **
 *******************************************************************************

                              PM7 CALCULATION RESULTS

 *******************************************************************************
 *  CALCULATION DONE:                                Tue Mar 26 11:44:57 2024  *
 *  PM7        - The PM7 Hamiltonian to be used
 *  SINGLET    - SPIN STATE DEFINED AS A SINGLET
 *
 *
 *
 *                 CHARGE ON SYSTEM = 0
 *
 *
 *
 *  EPS=78.4   - USE ANDREAS KLAMT'S COSMO IMPLICIT SOLVATION MODEL
 *  LET        - OVERRIDE SOME SAFETY CHECKS
 *  THREADS    - USE A MAXIMUM OF 30 THREADS
 *  T=         - A TIME OF 14.0 DAYS REQUESTED
 *  DUMP=N     - RESTART FILE WRITTEN EVERY 30.0 MINUTES REQUESTED
 *  RELSCF     - DEFAULT SCF CRITERION MULTIPLIED BY 1.0000
 *              (DEFAULT SCF CRITERION = 0.00010)
 *  ITRY=      - DO A MAXIMUM OF 15000 ITERATIONS FOR SCF
 *  AUX        - OUTPUT AUXILIARY INFORMATION
 *  ISOTOPE    - SAVE THE FORCE MATRIX FOR USE LATER
 *  BONDS      - FINAL BOND-ORDER MATRIX TO BE PRINTED
 *  LARGE      - EXPANDED OUTPUT TO BE PRINTED
 *  THERMO     - THERMODYNAMIC QUANTITIES TO BE CALCULATED
 *******************************************************************************
PM7 AUX LARGE THERMO(298,298) LET ISOTOPE BONDS DUMP=30M ITRY=15000 T=14D THREADS=30 CHARGE=0 SINGLET eps=78.4 RELSCF=1
 Title: ASE calculation

   ATOM   CHEMICAL          X               Y               Z
  NUMBER   SYMBOL      (ANGSTROMS)     (ANGSTROMS)     (ANGSTROMS)

     1       C          0.49784201  *   0.23498898  *   0.17476346  *
     2       H         -0.17999072  *  -0.18823064  *   0.92350959  *
     3       N          1.15833045  *  -2.07079513  *  -0.25211838  *
     4       O          0.62239400  *  -2.41453321  *   0.80659916  *
     5       O          1.58110473  *  -2.94487625  *  -1.01803472  *
     6       H          1.21212114  *   2.02027818  *  -0.74791808  *
     7       C          1.31832172  *  -0.71570214  *  -0.57617415  *
     8       H          1.46015709  *  -0.51575902  *  -1.65144137  *
     9       D          2.68380083  *  -0.29285476  *  -0.36270842  *
    10       C          0.56648193  *   1.55396349  *  -0.02225684  *
    11       H         -0.01931000  *   2.26683250  *   0.53416107  *
    12       C          6.86762353  *   1.40256321  *  -0.09710643  *
    13       C          7.90996361  *   2.33877801  *  -0.01369409  *
    14       C          7.58127459  *   3.69747031  *  -0.01615793  *
    15       C          6.24525819  *   4.07994810  *  -0.10598336  *
    16       C          5.26063173  *   3.09449465  *  -0.19137354  *
    17       N          5.57541055  *   1.78187960  *  -0.18383312  *
    18       H          7.07130377  *   0.32163281  *  -0.09758654  *
    19       H          5.96684891  *   5.13571074  *  -0.10892485  *
    20       H          4.19453735  *   3.35077987  *  -0.27290472  *
    21       C          9.32163150  *   1.89126132  *   0.06688504  *
    22       H         10.01131919  *   2.69791878  *   0.36030906  *
    23       H          9.68005813  *   1.51284655  *  -0.90575872  *
    24       H          9.46567597  *   1.07634149  *   0.79439475  *
    25       H          8.36833031  *   4.45410075  *   0.05308085  *
    26       H          4.33293806  *  -0.84068314  *  -0.14192796  *
    27       O          3.89963207  *  -0.11458247  *  -0.61177014  *
    28       H          4.50099127  *   0.78799496  *  -0.31893200  *


                                Isotopes Used

              Atom:    9  H  Default mass  1.0079,  mass used:  2.0140 amu


          CARTESIAN COORDINATES 

    NO.       ATOM           X           Y           Z

     1         C          0.4978      0.2350      0.1748
     2         H         -0.1800     -0.1882      0.9235
     3         N          1.1583     -2.0708     -0.2521
     4         O          0.6224     -2.4145      0.8066
     5         O          1.5811     -2.9449     -1.0180
     6         H          1.2121      2.0203     -0.7479
     7         C          1.3183     -0.7157     -0.5762
     8         H          1.4602     -0.5158     -1.6514
     9         H          2.6838     -0.2929     -0.3627
    10         C          0.5665      1.5540     -0.0223
    11         H         -0.0193      2.2668      0.5342
    12         C          6.8676      1.4026     -0.0971
    13         C          7.9100      2.3388     -0.0137
    14         C          7.5813      3.6975     -0.0162
    15         C          6.2453      4.0799     -0.1060
    16         C          5.2606      3.0945     -0.1914
    17         N          5.5754      1.7819     -0.1838
    18         H          7.0713      0.3216     -0.0976
    19         H          5.9668      5.1357     -0.1089
    20         H          4.1945      3.3508     -0.2729
    21         C          9.3216      1.8913      0.0669
    22         H         10.0113      2.6979      0.3603
    23         H          9.6801      1.5128     -0.9058
    24         H          9.4657      1.0763      0.7944
    25         H          8.3683      4.4541      0.0531
    26         H          4.3329     -0.8407     -0.1419
    27         O          3.8996     -0.1146     -0.6118
    28         H          4.5010      0.7880     -0.3189

 General Reference for PM7:
 "Optimization of Parameters for Semiempirical Methods VI: More Modifications to the 
 NDDO Approximations and Re-optimization of Parameters", J. J. P. Stewart, J. Mol. Mod., 1:32, 19 (2013)
 https://link.springer.com/article/10.1007/s00894-012-1667-x

           Empirical Formula: C9 H14 N2 O3  =    28 atoms



      MOLECULAR POINT GROUP   :   C1  


 SINGLET STATE CALCULATION


      RHF CALCULATION, NO. OF DOUBLY OCCUPIED LEVELS = 39

  SCF CRITERION =    0.1000E-03


          HEAT OF FORMATION =     -43.895991 KCALS/MOLE


          CARTESIAN COORDINATE DERIVATIVES

   NUMBER  ATOM         X            Y            Z

     1       C      1.570224     2.260241    -1.456458
     2       H     -0.083024    -0.441032    -0.722952
     3       N      0.060649    -0.937621    -2.786544
     4       O      2.302696     0.067094    -0.386273
     5       O      2.009259     1.417400    -0.099037
     6       H      0.704678     0.756178    -0.291141
     7       C      6.051332     0.351135    -8.665330
     8       H      0.038194     0.387464     1.117686
     9       H     -8.121961     0.951713     8.675917
    10       C      0.011424    -0.658258     0.454885
    11       H      0.258536     0.523359     0.458077
    12       C     -0.323604     0.897928     1.068939
    13       C     -0.070238     0.695920    -0.574144
    14       C     -0.280502     0.279476     0.257817
    15       C      1.486103     1.259064    -1.530783
    16       C     -0.593499    -0.814636     0.971204
    17       N     -0.721684     0.669514    -0.434813
    18       H     -0.501238     0.226481     0.400561
    19       H      0.102759     0.039609     0.011372
    20       H     -0.457940    -0.281922    -0.121447
    21       C     -0.536751    -0.011198     0.639820
    22       H      0.071511     0.023542    -0.096760
    23       H      0.113819    -0.414352     0.135983
    24       H     -0.353888    -0.231624     0.213741
    25       H     -0.072538     0.126671     0.348710
    26       H     -0.004780    -1.365745    -2.122090
    27       O      2.667015    -0.718009    -1.290332
    28       H     -5.327305    -5.058354     5.823038

 DIPOLE           X         Y         Z       TOTAL
 POINT-CHG.   -11.956    -6.904    10.333    17.244
 HYBRID         0.149     0.329     0.144     0.389
 SUM          -11.807    -6.575    10.477    17.099


          GRADIENT NORM =  20.15557



 ** GRADIENT IS VERY LARGE, BUT SINCE "LET" IS USED, CALCULATION WILL CONTINUE


                              **** WARNING ****

           GRADIENT IS VERY LARGE FOR A THERMO CALCULATION
           RESULTS ARE LIKELY TO BE INACCURATE IF THERE ARE
           ANY LOW-LYING VIBRATIONS (LESS THAN ABOUT 400CM-1)
           GRADIENT NORM SHOULD BE LESS THAN ABOUT 1.1 FOR THERMO
           TO GIVE ACCURATE RESULTS


          TIME FOR SCF CALCULATION =    0.05

          TIME FOR DERIVATIVES     =    0.03

          MOLECULAR WEIGHT =  199.23



          ROTATIONAL CONSTANTS IN CM(-1)

          A =    0.04262056   B =    0.00677720   C =    0.00601158



           PRINCIPAL MOMENTS OF INERTIA IN UNITS OF 10**(-40)*GRAM-CM**2

          A =      656.7899   B =     4130.4298   C =     4656.4739


          ORIENTATION OF MOLECULE IN FORCE CALCULATION

    NO.       ATOM         X         Y         Z

     1          C       2.6213   -0.7860   -2.3707
     2          H       3.7164   -0.7860   -2.3707
     3          N       2.8117    1.6428   -2.3707
     4          O       4.0002    1.5441   -2.0481
     5          O       2.3641    2.7573   -2.6656
     6          H       0.8583   -1.9863   -2.3600
     7          C       1.9674    0.5229   -2.3759
     8          H       1.0671    0.6313   -3.0037
     9          H       1.1047    0.5230   -1.2163
    10          C       1.9343   -1.9310   -2.3562
    11          H       2.4019   -2.9016   -2.3358
    12          C      -1.9586    0.2446    2.0985
    13          C      -2.9086   -0.3009    2.9759
    14          C      -3.2319   -1.6544    2.8433
    15          C      -2.6142   -2.4135    1.8526
    16          C      -1.6823   -1.8037    1.0114
    17          N      -1.3647   -0.4982    1.1411
    18          H      -1.6673    1.3035    2.1608
    19          H      -2.8519   -3.4723    1.7324
    20          H      -1.1772   -2.3622    0.2103
    21          C      -3.5544    0.5443    4.0094
    22          H      -4.0924   -0.0433    4.7695
    23          H      -4.2950    1.2301    3.5634
    24          H      -2.8311    1.1726    4.5538
    25          H      -3.9642   -2.1134    3.5140
    26          H       0.4466    1.5043    0.0769
    27          O       0.1130    0.8059   -0.5033
    28          H      -0.4079    0.1019    0.2004


    FIRST DERIVATIVES WILL BE USED IN THE CALCULATION OF SECOND DERIVATIVES

          ESTIMATED TIME TO COMPLETE CALCULATION =       13.12 SECONDS

    FOR POINT-GROUP C1   THERE ARE   1 UNIQUE SYMMETRY FUNCTIONS.

 STEP:   1 TIME =     0.06 SECS, INTEGRAL =      0.06 TIME LEFT:1209599.86
 STEP:   2 TIME =     0.06 SECS, INTEGRAL =      0.12 TIME LEFT:1209599.80
 STEP:   3 TIME =     0.05 SECS, INTEGRAL =      0.18 TIME LEFT:1209599.75
 STEP:   4 TIME =     0.05 SECS, INTEGRAL =      0.22 TIME LEFT:1209599.70
 STEP:   5 TIME =     0.05 SECS, INTEGRAL =      0.27 TIME LEFT:1209599.65
 STEP:   6 TIME =     0.05 SECS, INTEGRAL =      0.32 TIME LEFT:1209599.61
 STEP:   7 TIME =     0.04 SECS, INTEGRAL =      0.36 TIME LEFT:1209599.56
 STEP:   8 TIME =     0.05 SECS, INTEGRAL =      0.41 TIME LEFT:1209599.52
 STEP:   9 TIME =     0.05 SECS, INTEGRAL =      0.45 TIME LEFT:1209599.47
 STEP:  10 TIME =     0.05 SECS, INTEGRAL =      0.50 TIME LEFT:1209599.42
 STEP:  11 TIME =     0.05 SECS, INTEGRAL =      0.55 TIME LEFT:1209599.38
 STEP:  12 TIME =     0.05 SECS, INTEGRAL =      0.59 TIME LEFT:1209599.33
 STEP:  13 TIME =     0.05 SECS, INTEGRAL =      0.64 TIME LEFT:1209599.28
 STEP:  14 TIME =     0.05 SECS, INTEGRAL =      0.69 TIME LEFT:1209599.23
 STEP:  15 TIME =     0.05 SECS, INTEGRAL =      0.73 TIME LEFT:1209599.19
 STEP:  16 TIME =     0.04 SECS, INTEGRAL =      0.78 TIME LEFT:1209599.14
 STEP:  17 TIME =     0.05 SECS, INTEGRAL =      0.82 TIME LEFT:1209599.10
 STEP:  18 TIME =     0.04 SECS, INTEGRAL =      0.87 TIME LEFT:1209599.05
 STEP:  19 TIME =     0.05 SECS, INTEGRAL =      0.91 TIME LEFT:1209599.01
 STEP:  20 TIME =     0.05 SECS, INTEGRAL =      0.96 TIME LEFT:1209598.96
 STEP:  21 TIME =     0.04 SECS, INTEGRAL =      1.00 TIME LEFT:1209598.92
 STEP:  22 TIME =     0.05 SECS, INTEGRAL =      1.05 TIME LEFT:1209598.87
 STEP:  23 TIME =     0.05 SECS, INTEGRAL =      1.10 TIME LEFT:1209598.82
 STEP:  24 TIME =     0.04 SECS, INTEGRAL =      1.14 TIME LEFT:1209598.78
 STEP:  25 TIME =     0.04 SECS, INTEGRAL =      1.18 TIME LEFT:1209598.74
 STEP:  26 TIME =     0.05 SECS, INTEGRAL =      1.23 TIME LEFT:1209598.69
 STEP:  27 TIME =     0.04 SECS, INTEGRAL =      1.27 TIME LEFT:1209598.65
 STEP:  28 TIME =     0.04 SECS, INTEGRAL =      1.32 TIME LEFT:1209598.61
 STEP:  29 TIME =     0.05 SECS, INTEGRAL =      1.36 TIME LEFT:1209598.56
 STEP:  30 TIME =     0.04 SECS, INTEGRAL =      1.41 TIME LEFT:1209598.52
 STEP:  31 TIME =     0.04 SECS, INTEGRAL =      1.45 TIME LEFT:1209598.47
 STEP:  32 TIME =     0.04 SECS, INTEGRAL =      1.49 TIME LEFT:1209598.43
 STEP:  33 TIME =     0.05 SECS, INTEGRAL =      1.54 TIME LEFT:1209598.38
 STEP:  34 TIME =     0.04 SECS, INTEGRAL =      1.58 TIME LEFT:1209598.34
 STEP:  35 TIME =     0.04 SECS, INTEGRAL =      1.62 TIME LEFT:1209598.30
 STEP:  36 TIME =     0.04 SECS, INTEGRAL =      1.67 TIME LEFT:1209598.25
 STEP:  37 TIME =     0.05 SECS, INTEGRAL =      1.71 TIME LEFT:1209598.21
 STEP:  38 TIME =     0.04 SECS, INTEGRAL =      1.76 TIME LEFT:1209598.16
 STEP:  39 TIME =     0.04 SECS, INTEGRAL =      1.80 TIME LEFT:1209598.12
 STEP:  40 TIME =     0.04 SECS, INTEGRAL =      1.84 TIME LEFT:1209598.08
 STEP:  41 TIME =     0.05 SECS, INTEGRAL =      1.89 TIME LEFT:1209598.03
 STEP:  42 TIME =     0.04 SECS, INTEGRAL =      1.93 TIME LEFT:1209597.99
 STEP:  43 TIME =     0.04 SECS, INTEGRAL =      1.98 TIME LEFT:1209597.95
 STEP:  44 TIME =     0.05 SECS, INTEGRAL =      2.02 TIME LEFT:1209597.90
 STEP:  45 TIME =     0.04 SECS, INTEGRAL =      2.07 TIME LEFT:1209597.86
 STEP:  46 TIME =     0.04 SECS, INTEGRAL =      2.11 TIME LEFT:1209597.81
 STEP:  47 TIME =     0.04 SECS, INTEGRAL =      2.15 TIME LEFT:1209597.77
 STEP:  48 TIME =     0.05 SECS, INTEGRAL =      2.20 TIME LEFT:1209597.72
 STEP:  49 TIME =     0.04 SECS, INTEGRAL =      2.24 TIME LEFT:1209597.68
 STEP:  50 TIME =     0.04 SECS, INTEGRAL =      2.29 TIME LEFT:1209597.64
 STEP:  51 TIME =     0.04 SECS, INTEGRAL =      2.33 TIME LEFT:1209597.59
 STEP:  52 TIME =     0.04 SECS, INTEGRAL =      2.37 TIME LEFT:1209597.55
 STEP:  53 TIME =     0.04 SECS, INTEGRAL =      2.41 TIME LEFT:1209597.51
 STEP:  54 TIME =     0.04 SECS, INTEGRAL =      2.45 TIME LEFT:1209597.47
 STEP:  55 TIME =     0.04 SECS, INTEGRAL =      2.49 TIME LEFT:1209597.43
 STEP:  56 TIME =     0.04 SECS, INTEGRAL =      2.53 TIME LEFT:1209597.39
 STEP:  57 TIME =     0.04 SECS, INTEGRAL =      2.57 TIME LEFT:1209597.36
 STEP:  58 TIME =     0.04 SECS, INTEGRAL =      2.61 TIME LEFT:1209597.32
 STEP:  59 TIME =     0.04 SECS, INTEGRAL =      2.64 TIME LEFT:1209597.28
 STEP:  60 TIME =     0.04 SECS, INTEGRAL =      2.68 TIME LEFT:1209597.24
 STEP:  61 TIME =     0.04 SECS, INTEGRAL =      2.72 TIME LEFT:1209597.20
 STEP:  62 TIME =     0.04 SECS, INTEGRAL =      2.77 TIME LEFT:1209597.16
 STEP:  63 TIME =     0.04 SECS, INTEGRAL =      2.80 TIME LEFT:1209597.12
 STEP:  64 TIME =     0.04 SECS, INTEGRAL =      2.84 TIME LEFT:1209597.08
 STEP:  65 TIME =     0.04 SECS, INTEGRAL =      2.88 TIME LEFT:1209597.04
 STEP:  66 TIME =     0.04 SECS, INTEGRAL =      2.93 TIME LEFT:1209597.00
 STEP:  67 TIME =     0.04 SECS, INTEGRAL =      2.96 TIME LEFT:1209596.96
 STEP:  68 TIME =     0.04 SECS, INTEGRAL =      3.01 TIME LEFT:1209596.91
 STEP:  69 TIME =     0.04 SECS, INTEGRAL =      3.05 TIME LEFT:1209596.88
 STEP:  70 TIME =     0.04 SECS, INTEGRAL =      3.09 TIME LEFT:1209596.83
 STEP:  71 TIME =     0.04 SECS, INTEGRAL =      3.13 TIME LEFT:1209596.79
 STEP:  72 TIME =     0.04 SECS, INTEGRAL =      3.17 TIME LEFT:1209596.75
 STEP:  73 TIME =     0.04 SECS, INTEGRAL =      3.21 TIME LEFT:1209596.71
 STEP:  74 TIME =     0.04 SECS, INTEGRAL =      3.25 TIME LEFT:1209596.67
 STEP:  75 TIME =     0.04 SECS, INTEGRAL =      3.30 TIME LEFT:1209596.62
 STEP:  76 TIME =     0.04 SECS, INTEGRAL =      3.34 TIME LEFT:1209596.59
 STEP:  77 TIME =     0.04 SECS, INTEGRAL =      3.38 TIME LEFT:1209596.54
 STEP:  78 TIME =     0.04 SECS, INTEGRAL =      3.42 TIME LEFT:1209596.50
 STEP:  79 TIME =     0.04 SECS, INTEGRAL =      3.46 TIME LEFT:1209596.46
 STEP:  80 TIME =     0.04 SECS, INTEGRAL =      3.50 TIME LEFT:1209596.42
 STEP:  81 TIME =     0.04 SECS, INTEGRAL =      3.55 TIME LEFT:1209596.38
 STEP:  82 TIME =     0.04 SECS, INTEGRAL =      3.59 TIME LEFT:1209596.34
 STEP:  83 TIME =     0.04 SECS, INTEGRAL =      3.63 TIME LEFT:1209596.29
 STEP:  84 TIME =     0.04 SECS, INTEGRAL =      3.67 TIME LEFT:1209596.25

(To convert to Hartree/Bohr^2, multiply by (10^(-21) x N x a0^2)/(4.184 x 627.51) =  0.0642)


           FORCE MATRIX IN MILLIDYNES/ANGSTROM


                  C  1       H  2       N  3       O  4       O  5       H  6
 ------------------------------------------------------------------------------
     C    1  17.061472
     H    2   3.375603   4.292284
     N    3   1.154619   0.104265  18.706666
     O    4   0.089811   0.054551   8.581989  11.427449
     O    5   0.115489   0.021053   8.521427   2.588814  11.367232
     H    6   0.823200   0.126313   0.046454   0.015492   0.024869   4.285880
     C    7   4.241953   0.685836   4.093978   1.667218   1.660900   0.074735
     H    8   0.676287   0.032419   0.967332   0.098806   0.076011   0.013771
     H    9   0.624229   0.030914   1.320943   0.336685   0.351027   0.036516
     C   10  10.158960   0.822406   0.150056   0.047288   0.066842   3.523322
     H   11   0.844586   0.061198   0.042402   0.013005   0.014307   0.467373
     C   12   0.004403   0.000861   0.005618   0.003149   0.001272   0.001329
     C   13   0.001383   0.000484   0.005736   0.001628   0.002553   0.000689
     C   14   0.000922   0.000360   0.002277   0.001234   0.001264   0.000468
     C   15   0.002000   0.000844   0.007004   0.003007   0.002219   0.000834
     C   16   0.003121   0.000535   0.009186   0.003216   0.003642   0.002528
     N   17   0.026484   0.002011   0.095344   0.033933   0.026673   0.005117
     H   18   0.000688   0.000384   0.006745   0.001699   0.002950   0.000465
     H   19   0.001211   0.000277   0.001943   0.001081   0.000812   0.000484
     H   20   0.001447   0.000777   0.003361   0.001311   0.001137   0.001564
     C   21   0.000770   0.000344   0.001503   0.000609   0.000557   0.000569
     H   22   0.000385   0.000289   0.001650   0.000943   0.000637   0.000234
     H   23   0.000294   0.000131   0.001750   0.000588   0.000950   0.000176
     H   24   0.000361   0.000259   0.002096   0.000934   0.000899   0.000362
     H   25   0.000563   0.000525   0.002663   0.001383   0.001177   0.000322
     H   26   0.021331   0.002131   0.080768   0.025458   0.022120   0.003377
     O   27   0.185592   0.014297   0.616356   0.201291   0.195272   0.021084
     H   28   0.065608   0.004672   0.244448   0.085267   0.070991   0.010672


                  C  7       H  8       H  9       C 10       H 11       C 12
 ------------------------------------------------------------------------------
     C    7  12.418949
     H    8   3.188210   4.159273
     H    9   1.495611   0.433850   1.943106
     C   10   1.080438   0.033809   0.118816  15.709037
     H   11   0.124125   0.009463   0.026691   3.521193   4.291018
     C   12   0.018314   0.003124   0.027801   0.005349   0.008208  14.995746
     C   13   0.009098   0.001401   0.015982   0.001192   0.000669   5.490665
     C   14   0.001478   0.000493   0.004145   0.000967   0.000730   2.011530
     C   15   0.014472   0.001726   0.023758   0.001431   0.001010   1.332094
     C   16   0.018211   0.003150   0.027052   0.003274   0.000747   2.497214
     N   17   0.187466   0.027482   0.274981   0.012303   0.002020   6.621193
     H   18   0.008408   0.001072   0.011607   0.000686   0.000604   3.285422
     H   19   0.003454   0.000472   0.005202   0.001059   0.000676   0.011117
     H   20   0.007765   0.001149   0.014172   0.001994   0.000783   0.144703
     C   21   0.002674   0.000871   0.007783   0.001765   0.000603   0.775391
     H   22   0.001884   0.000214   0.003158   0.000578   0.000289   0.040259
     H   23   0.001748   0.000544   0.001910   0.000407   0.000133   0.028638
     H   24   0.001736   0.000393   0.001573   0.000491   0.000132   0.031811
     H   25   0.003138   0.000260   0.004472   0.000607   0.000360   0.102035
     H   26   0.162189   0.023708   0.443832   0.009391   0.000985   0.014800
     O   27   1.713404   0.155419   1.906067   0.072157   0.013602   0.086936
     H   28   0.485100   0.071443   0.768448   0.029080   0.004509   0.251198


                  C 13       C 14       C 15       C 16       N 17       H 18
 ------------------------------------------------------------------------------
     C   13  16.001546
     C   14   5.930867  15.200877
     C   15   1.931275   6.247320  15.246876
     C   16   1.358383   2.078444   5.962015  15.310497
     N   17   2.332435   1.339417   2.321012   6.641066  15.119822
     H   18   0.700776   0.092482   0.036700   0.142838   0.893028   4.202629
     H   19   0.098758   0.740674   3.390376   0.745740   0.102832   0.016167
     H   20   0.023480   0.084166   0.689683   3.290838   0.887332   0.015473
     C   21   3.873925   0.817660   0.098328   0.022298   0.110805   0.023983
     H   22   0.740045   0.031532   0.006242   0.002606   0.009238   0.003630
     H   23   0.760773   0.022434   0.012115   0.003853   0.013760   0.006955
     H   24   0.746912   0.030410   0.011005   0.004313   0.013189   0.011877
     H   25   0.731942   3.409241   0.740086   0.100873   0.037546   0.011404
     H   26   0.005693   0.002427   0.006235   0.010532   0.104807   0.005620
     O   27   0.027878   0.010316   0.053412   0.087668   1.146405   0.028961
     H   28   0.061931   0.017032   0.104247   0.253223   0.605977   0.059559


                  H 19       H 20       C 21       H 22       H 23       H 24
 ------------------------------------------------------------------------------
     H   19   4.279119
     H   20   0.031198   4.222171
     C   21   0.012361   0.018076  11.328781
     H   22   0.002725   0.002178   3.319432   4.153371
     H   23   0.002138   0.002492   3.280938   0.453274   4.122738
     H   24   0.001889   0.002388   3.311071   0.445192   0.450280   4.143025
     H   25   0.035483   0.010385   0.031290   0.019852   0.005543   0.004513
     H   26   0.001061   0.003357   0.003210   0.000638   0.000849   0.001464
     O   27   0.012364   0.028030   0.022242   0.002112   0.005165   0.005794
     H   28   0.024645   0.058411   0.042399   0.003483   0.009341   0.010012


                  H 25       H 26       O 27       H 28
 ------------------------------------------------------
     H   25   4.283665
     H   26   0.001185   4.227919
     O   27   0.007309   3.820088   5.046207
     H   28   0.015513   0.560629   1.287042   1.344949


          HEAT OF FORMATION =     -43.895991 KCALS/MOLE


          TRIVIAL VIBRATIONS, SHOULD BE ZERO

 -21.4039=TX  23.3583=TY -17.6407=TZ  21.9814=RX -32.6092=RY  26.3034=RZ


      MOLECULAR POINT GROUP   :   C1  


           EIGENVECTORS  


   Root No.       1         2         3         4         5         6         7         8

                 1 A       2 A       3 A       4 A       5 A       6 A       7 A       8 A   

                  -3.7      -0.0      -0.0      -0.0      -0.0      -0.0       0.0       0.0
  
           1    0.0087   -0.0346   -0.0231   -0.0965    0.0489   -0.0260    0.0482   -0.0152
           2   -0.0212    0.0125    0.0260   -0.0494   -0.0017    0.0626    0.0640    0.0051
           3   -0.0130    0.0466   -0.1209   -0.0569    0.0484   -0.0756   -0.1334    0.0044
           4   -0.0003   -0.0347   -0.0228   -0.0964    0.0492   -0.0263    0.0487   -0.0155
           5    0.0174    0.0075    0.0104   -0.0856    0.1147    0.0488    0.1080   -0.0195
           6   -0.0161    0.1202   -0.4205   -0.1271    0.0943   -0.0782   -0.2538    0.0130
           7    0.0163    0.0026    0.0208   -0.0024   -0.1905   -0.0015   -0.0301    0.0345
           8    0.0427    0.0045    0.0187   -0.0637    0.0151    0.0628    0.0646    0.0025
           9    0.0815    0.0348   -0.0591    0.0963   -0.0431   -0.1259    0.2058   -0.0015
          10   -0.0133   -0.1754   -0.0049   -0.0277   -0.1928    0.0005   -0.0533    0.0364
          11   -0.0153    0.0669   -0.0096   -0.1217    0.1447    0.0611    0.0599   -0.0209
          12   -0.0296    0.7091    0.0273    0.1716    0.0047   -0.1346    0.2916   -0.0165
          13   -0.0001    0.1932    0.0688    0.0688   -0.2881    0.0080   -0.0405    0.0535
          14   -0.0312   -0.0727    0.0268   -0.0351   -0.0447    0.0532    0.0879    0.0109
          15   -0.0036   -0.5405   -0.0982    0.0927   -0.1163   -0.1737    0.3106    0.0012
          16   -0.0000   -0.0467   -0.0375   -0.1380    0.1759   -0.0417    0.0984   -0.0443
          17   -0.0009    0.0253    0.0555    0.0168   -0.1917    0.0850   -0.0070    0.0489
          18    0.0001   -0.1095    0.6797    0.0951   -0.0233   -0.0686    0.0751   -0.0183
          19   -0.1886   -0.0243   -0.0054   -0.0534   -0.0862   -0.0120   -0.0003    0.0123
          20   -0.0377    0.0213    0.0379   -0.0263   -0.0695    0.0705    0.0410    0.0193
          21    0.2618   -0.0441   -0.0878   -0.0078   -0.0254   -0.0542    0.0063    0.0093
          22    0.0093    0.0705   -0.0055   -0.0170   -0.0645   -0.0520    0.0356    0.0072
          23    0.0001    0.0116    0.0639    0.0463   -0.1835    0.0701    0.0967    0.0374
          24   -0.0790   -0.1753   -0.0795   -0.0472   -0.0758    0.0052   -0.0351    0.0193
          25    0.5824   -0.0540    0.0147   -0.1040   -0.1032    0.0767   -0.0588    0.0280
          26   -0.1077    0.0328    0.0314   -0.0332   -0.0651    0.0568   -0.0997    0.0232
          27   -0.5382   -0.0596   -0.0594   -0.0831   -0.0773    0.0367   -0.0563    0.0179
          28    0.0090   -0.0448   -0.0359   -0.1358    0.1696   -0.0406    0.0962   -0.0428
          29   -0.0059    0.0180    0.0397   -0.0245   -0.0739    0.0712    0.0368    0.0214
          30   -0.0096   -0.0219    0.3158    0.0059    0.0375   -0.0731   -0.0705   -0.0090
          31    0.0055   -0.0525   -0.0467   -0.1688    0.2746   -0.0534    0.1390   -0.0674
          32   -0.0067    0.0142    0.0339   -0.0410   -0.0224    0.0650    0.0554    0.0097
          33   -0.0080    0.0037    0.3219   -0.0288    0.0853   -0.0791   -0.1626   -0.0092
          34   -0.0182    0.0125    0.0351   -0.0717    0.0583   -0.0453    0.0068    0.0404
          35   -0.0056   -0.0211   -0.0349    0.1025    0.0262   -0.0690   -0.0411   -0.0217
          36    0.0195    0.0102    0.0171   -0.1030    0.0311   -0.0147   -0.1109    0.0150
          37   -0.0135    0.0183    0.0098    0.0041    0.0379   -0.0888    0.0352    0.0148
          38   -0.0038   -0.0146   -0.0301    0.0240    0.0225   -0.0093    0.0343   -0.0008
          39    0.0135    0.0219   -0.0055   -0.0741    0.0015   -0.0181   -0.0327   -0.0013
          40   -0.0025    0.0098   -0.0322    0.1386   -0.0311   -0.0945    0.0030   -0.0208
          41   -0.0045   -0.0124   -0.0157   -0.0132    0.0439   -0.0106    0.0337    0.0081
          42    0.0048    0.0254   -0.0468   -0.0350   -0.0725    0.0419    0.0702   -0.0133
          43   -0.0107   -0.0037   -0.0547    0.2159   -0.0881   -0.0556   -0.0608   -0.0365
          44   -0.0159   -0.0162   -0.0041    0.0189    0.0714   -0.0695   -0.0432   -0.0007
          45    0.0084    0.0195   -0.0696   -0.0116   -0.1271    0.1090    0.0866   -0.0154
          46   -0.0137   -0.0108   -0.0341    0.1506   -0.0766    0.0012   -0.0884   -0.0165
          47   -0.0146   -0.0178   -0.0045    0.0776    0.0727   -0.1238   -0.1252   -0.0180
          48    0.0133    0.0102   -0.0473   -0.0395   -0.1143    0.1329    0.0016   -0.0067
          49   -0.0429   -0.0023    0.0117    0.0019   -0.0085    0.0107   -0.0512    0.0211
          50   -0.0338   -0.0202   -0.0200    0.1207    0.0481   -0.1196   -0.1204   -0.0290
          51    0.0558    0.0031   -0.0074   -0.0787   -0.0328    0.0666   -0.0854    0.0080
          52   -0.0032    0.0174    0.0666   -0.1776    0.1176   -0.0456    0.0317    0.0728
          53   -0.0069   -0.0229   -0.0464    0.1366    0.0075   -0.0679   -0.0412   -0.0317
          54   -0.0042    0.0050    0.0519   -0.1360    0.0908   -0.0617   -0.1915    0.0266
          55   -0.0006   -0.0087   -0.0813    0.3088   -0.1311   -0.0671   -0.0961   -0.0614
          56   -0.0073   -0.0146    0.0057   -0.0081    0.0857   -0.0700   -0.0456    0.0058
          57    0.0043    0.0226   -0.0987    0.0163   -0.1765    0.1498    0.1640   -0.0234
          58    0.0017   -0.0200   -0.0498    0.1993   -0.1260    0.0501   -0.1413   -0.0302
          59    0.0073   -0.0190    0.0038    0.1009    0.0930   -0.1730   -0.1822   -0.0249
          60    0.0061    0.0061   -0.0628   -0.0275   -0.1629    0.2021    0.0079   -0.0106
          61   -0.0057    0.0289    0.0191   -0.0390    0.0605   -0.0862    0.0937   -0.0046
          62    0.0017   -0.0092   -0.0401   -0.0150    0.0004    0.0462    0.1123    0.0050
          63    0.0060    0.0244    0.0094   -0.0705    0.0334   -0.0613   -0.0610   -0.0177
          64   -0.0010    0.0339    0.0134   -0.0253    0.0795   -0.1656    0.0946    0.4421
          65    0.0006   -0.0055   -0.0471   -0.0433   -0.0153    0.0899    0.1699   -0.0231
          66    0.0033    0.0305   -0.0000   -0.0824    0.0346   -0.0835   -0.0152    0.2768
          67   -0.0016    0.0272    0.0239   -0.0562    0.0430   -0.0108    0.1030   -0.4062
          68   -0.0002   -0.0097   -0.0286   -0.0285    0.0002    0.0990    0.1132   -0.4034
          69   -0.0002    0.0268    0.0188   -0.0620    0.0587   -0.1010   -0.0754    0.0160
          70   -0.0006    0.0348    0.0235   -0.0626    0.0646   -0.0638    0.1290   -0.1058
          71    0.0013   -0.0085   -0.0537   -0.0019    0.0001   -0.0071    0.1162    0.4285
          72   -0.0012    0.0151    0.0180   -0.0502    0.0270   -0.0286   -0.1122   -0.3780
          73    0.0015    0.0132   -0.0451    0.1774   -0.0407   -0.1213    0.0251   -0.0363
          74   -0.0028   -0.0082   -0.0136   -0.0640    0.0419    0.0284    0.0886    0.0240
          75    0.0028    0.0312   -0.0596   -0.0255   -0.0834    0.0385    0.1331   -0.0193
          76   -0.0366    0.0112    0.0451    0.2762    0.3246    0.4042   -0.0921    0.0536
          77    0.0087    0.0066   -0.0090   -0.1102   -0.1642   -0.2018   -0.1943   -0.0304
          78    0.0470   -0.0374   -0.0203    0.2225    0.2479    0.3668    0.0154    0.0754
          79   -0.3428   -0.0294    0.0375    0.0365    0.0681    0.2331   -0.0796    0.0426
          80    0.1202    0.0309    0.0017    0.0703    0.0359    0.0138   -0.1686   -0.0008
          81    0.2562   -0.0686   -0.0422    0.1990    0.1824    0.1646    0.0035    0.0454
          82    0.0616    0.0682    0.0890   -0.3059   -0.1447    0.3135   -0.1958    0.0442
          83    0.1222    0.0206    0.0019    0.0500    0.0080   -0.0628   -0.2142   -0.0252
          84   -0.0814   -0.1094   -0.0743    0.2474    0.1534   -0.0821    0.0244    0.0122


   Root No.       9        10        11        12        13        14        15        16

                 9 A      10 A      11 A      12 A      13 A      14 A      15 A      16 A   

                   0.0       0.0       0.0       0.1       0.1       0.1       0.2       0.2
  
           1   -0.0472   -0.0986   -0.0246   -0.0089   -0.0633    0.1574   -0.1100    0.0444
           2    0.0312    0.0124   -0.0040    0.0001   -0.0708   -0.0567    0.0229    0.0067
           3    0.2398    0.0583    0.0319    0.0001    0.0150    0.0155   -0.0610   -0.0064
           4   -0.0488   -0.1003   -0.0254   -0.0089   -0.0636    0.1429   -0.1075    0.0439
           5   -0.0145    0.0038    0.0095   -0.0127   -0.0545   -0.1289    0.0567   -0.0002
           6    0.3881    0.1055    0.0368    0.1449   -0.0614    0.0304    0.0041   -0.0071
           7    0.0290   -0.0858   -0.0631   -0.0147   -0.1475   -0.0961   -0.0268    0.0208
           8    0.0350    0.0199    0.0060    0.0071   -0.0410    0.0773   -0.0045    0.0051
           9   -0.0487    0.0401    0.0314    0.0829    0.1491    0.0371    0.0036   -0.0159
          10    0.0617   -0.0851   -0.0651   -0.0010   -0.1523   -0.0910   -0.0459    0.0259
          11    0.0143    0.0153    0.0311   -0.0566    0.0256    0.3324   -0.1099    0.0157
          12   -0.1806    0.0305    0.0443    0.0237    0.1925    0.0781    0.0429   -0.0277
          13    0.0256   -0.0908   -0.0884   -0.0466   -0.2299   -0.3525    0.0526    0.0148
          14    0.0351    0.0210   -0.0040    0.0863   -0.0517   -0.0192    0.0496    0.0022
          15   -0.0418    0.0555    0.0336    0.4233    0.2255    0.0473    0.1009   -0.0216
          16   -0.1106   -0.1205   -0.0146   -0.0201   -0.0305   -0.0916   -0.0171    0.0147
          17    0.1273    0.0473   -0.0193    0.0153   -0.1372    0.3944   -0.1558    0.0720
          18    0.0004   -0.0234    0.0245   -0.1398    0.0961    0.0114   -0.1558   -0.0013
          19   -0.0014   -0.0923   -0.0417    0.0051   -0.0749    0.1193   -0.0962    0.0333
          20    0.0555    0.0187   -0.0120    0.0040   -0.0832   -0.0729    0.0334    0.0007
          21    0.0639    0.0233    0.0230   -0.1826    0.1055    0.0062   -0.0961   -0.0223
          22    0.0204   -0.0591   -0.0350    0.1541   -0.1490    0.1137   -0.0342    0.0528
          23    0.0113    0.0169   -0.0295    0.0168   -0.0933   -0.1980    0.1018   -0.0136
          24    0.0208   -0.0282    0.0090   -0.3857    0.2129   -0.0197   -0.1652   -0.0515
          25   -0.0254   -0.0711   -0.0178   -0.2790    0.0113    0.2143    0.0666   -0.0590
          26    0.1620    0.0394   -0.0011   -0.0367   -0.0080   -0.2189    0.0102   -0.0540
          27   -0.0016   -0.0346    0.0146   -0.3109    0.2305    0.0266   -0.0097   -0.0383
          28   -0.1074   -0.1186   -0.0147   -0.0211   -0.0331   -0.0626   -0.0278    0.0184
          29    0.0662    0.0243   -0.0102    0.0074   -0.0912    0.0704   -0.0240    0.0223
          30    0.1752    0.0326    0.0291    0.0375   -0.0014    0.0127    0.0047   -0.0034
          31   -0.1649   -0.1394   -0.0082   -0.0319   -0.0035   -0.3627    0.0899   -0.0210
          32    0.0418    0.0157   -0.0069    0.0065   -0.0812   -0.0603    0.0319    0.0059
          33    0.3034    0.0754    0.0315    0.2517   -0.1219    0.0258    0.2407   -0.0049
          34   -0.0193    0.2970   -0.0755    0.0110    0.0149   -0.0171   -0.0609   -0.1351
          35   -0.0542   -0.0873    0.0239   -0.0058   -0.0352    0.0401   -0.0095   -0.1034
          36   -0.1749    0.1211   -0.1199    0.0501   -0.0553   -0.0210   -0.0241    0.1059
          37    0.0633    0.1364   -0.0907   -0.0037    0.0308    0.0038    0.0055   -0.1828
          38   -0.0327   -0.0167    0.0331   -0.0012   -0.0297    0.0243   -0.0440   -0.1663
          39   -0.0701   -0.0135   -0.1283    0.0410   -0.0330   -0.0088    0.0271    0.0322
          40    0.0698    0.0279   -0.1643   -0.0168    0.0560    0.0337    0.0702   -0.1265
          41   -0.0388    0.0146    0.0596    0.0033   -0.0359    0.0147   -0.0619   -0.1659
          42    0.0081   -0.0769   -0.1886    0.0279   -0.0041    0.0035    0.0670   -0.0135
          43   -0.0116    0.0631   -0.0296    0.0052    0.0318    0.0005   -0.0803    0.0308
          44   -0.0663   -0.0215    0.0101   -0.0006   -0.0299    0.0299    0.0081   -0.0929
          45   -0.0261   -0.0270   -0.0705    0.0458   -0.0274   -0.0276   -0.0837    0.0096
          46   -0.0862    0.1514    0.1673    0.0181    0.0020   -0.0056    0.0019   -0.0538
          47   -0.0934   -0.0758   -0.0620    0.0055   -0.0128    0.0393   -0.0060    0.0090
          48   -0.1242    0.0328    0.0988    0.0621   -0.0518   -0.0259   -0.0042   -0.0101
          49   -0.0789    0.2413    0.0743    0.0118    0.0120    0.0048    0.0550   -0.0959
          50   -0.0857   -0.1023   -0.0291    0.0065   -0.0202    0.0332   -0.0250    0.0183
          51   -0.1828    0.0956    0.0192    0.0432   -0.0552   -0.0026    0.0631    0.0529
          52   -0.0329    0.4277   -0.1558    0.0194    0.0083   -0.0519   -0.2209   -0.1522
          53   -0.0453   -0.1270    0.0519   -0.0112   -0.0356    0.0518    0.0410   -0.1121
          54   -0.2450    0.2081   -0.1961    0.0627   -0.0716   -0.0470   -0.1319    0.3006
          55   -0.0209    0.0039   -0.0559    0.0096    0.0365   -0.0131   -0.2667    0.2456
          56   -0.0715   -0.0066    0.0177    0.0003   -0.0289    0.0366    0.0708   -0.1509
          57    0.0295   -0.0551   -0.0860    0.0459   -0.0229   -0.0519   -0.2744    0.0524
          58   -0.1502    0.1339    0.4089    0.0403   -0.0232   -0.0167    0.0361   -0.0886
          59   -0.1122   -0.0871   -0.1397   -0.0011   -0.0004    0.0555   -0.0062    0.0989
          60   -0.1508    0.0276    0.3077    0.0835   -0.0729   -0.0452    0.0161   -0.0938
          61    0.1534    0.0134    0.1145   -0.0237    0.0412   -0.0098    0.0090    0.0275
          62    0.0094    0.0542   -0.0058   -0.0177    0.0225    0.0008    0.0139    0.0658
          63   -0.0489   -0.1503    0.0325    0.0440   -0.0700    0.0022   -0.0199   -0.0270
          64    0.1465   -0.1120    0.2415   -0.0149    0.0375   -0.0071   -0.0192    0.0220
          65    0.0460    0.1127   -0.0415   -0.0358    0.0718   -0.0224    0.0838    0.3629
          66   -0.0266   -0.1945    0.0942    0.0377   -0.0394   -0.0127    0.0088    0.1741
          67    0.1822    0.0850    0.0753   -0.0387    0.0579   -0.0171    0.0416    0.1428
          68    0.0575    0.0308    0.0798   -0.0337    0.0120    0.0001    0.0106    0.1662
          69   -0.0221   -0.3122    0.2420    0.0459   -0.1140    0.0139   -0.0843   -0.0732
          70    0.2173   -0.0631    0.2646   -0.0411    0.0569   -0.0214    0.0190    0.2556
          71   -0.0362    0.0862   -0.0996   -0.0071    0.0444   -0.0024    0.0367    0.0492
          72   -0.0796   -0.0879   -0.0506    0.0523   -0.1150    0.0207   -0.0555   -0.2834
          73    0.1347   -0.0882   -0.2962   -0.0432    0.0951    0.0805    0.2456   -0.1643
          74   -0.0262    0.0698    0.1049    0.0110   -0.0476   -0.0051   -0.1358   -0.2574
          75    0.0877   -0.1653   -0.3016    0.0038    0.0269    0.0404    0.2077   -0.1157
          76   -0.0352   -0.1326   -0.0747    0.2896    0.1142    0.0607   -0.0469    0.0966
          77   -0.0544    0.0394    0.0554   -0.1224    0.2394   -0.0748    0.1982    0.0958
          78    0.1881   -0.0094   -0.0370   -0.1102    0.0466   -0.1715   -0.1336   -0.1302
          79   -0.0454   -0.0811   -0.0322   -0.0738    0.0224    0.1545    0.1585    0.0126
          80    0.0842   -0.0255   -0.0000    0.0876    0.3168   -0.2308   -0.1219   -0.0040
          81    0.0369    0.0744    0.0123   -0.2080   -0.0766   -0.0235    0.1575    0.0410
          82   -0.1176   -0.0423    0.0272    0.1241    0.3421    0.1300    0.3090   -0.0237
          83   -0.0454   -0.0924   -0.0185    0.0850    0.2558   -0.1104   -0.0650    0.1241
          84   -0.1183    0.1974    0.0621   -0.2728   -0.3068    0.0856    0.3552    0.1786


   Root No.      17        18        19        20        21        22        23        24

                17 A      18 A      19 A      20 A      21 A      22 A      23 A      24 A   

                   0.2       0.2       0.3       0.3       0.4       0.4       0.5       0.7
  
           1   -0.0936    0.0458    0.0836    0.1227    0.0320    0.1306   -0.0729   -0.0227
           2    0.0080   -0.0223    0.0088   -0.0780    0.0004    0.0159   -0.0874    0.0148
           3   -0.0856    0.0897   -0.1080   -0.1364   -0.0005   -0.0011    0.0077    0.0288
           4   -0.0932    0.0459    0.0840    0.1241    0.0327    0.1333   -0.0676   -0.0259
           5    0.0312   -0.0360    0.0116   -0.1228    0.0134    0.1014   -0.3729    0.0453
           6   -0.0439    0.0908   -0.1907   -0.3263   -0.0375   -0.1239   -0.1286   -0.0769
           7   -0.0438    0.0137    0.0342    0.0130    0.0021   -0.0048    0.1277   -0.0099
           8    0.0069   -0.0143   -0.0165   -0.0408   -0.0198   -0.0884    0.1191    0.0040
           9    0.0116   -0.0137    0.0028   -0.0246    0.0103    0.0261    0.0398    0.0233
          10   -0.0667    0.0273    0.0364    0.0015    0.0028   -0.0042    0.1526    0.0194
          11   -0.0476    0.0072    0.0070    0.0549   -0.0276   -0.1673    0.4586    0.0104
          12    0.0765   -0.0582    0.0117    0.0525    0.0092    0.0180    0.0008   -0.0822
          13   -0.0093   -0.0174    0.0442   -0.0889    0.0140    0.0763   -0.1590    0.0047
          14    0.0390   -0.0198   -0.0333   -0.0528   -0.0209   -0.0750   -0.0063   -0.0111
          15    0.0915    0.0088   -0.0840    0.0651   -0.0097   -0.0259   -0.0755   -0.0606
          16   -0.0275    0.0156    0.0319    0.0493    0.0175    0.0806   -0.0742   -0.0144
          17   -0.1308    0.0442    0.1457    0.0927    0.0598    0.2682   -0.3685   -0.0050
          18   -0.1994    0.2348   -0.2589   -0.2527   -0.0337   -0.0946   -0.0763   -0.0365
          19   -0.0760    0.0287    0.0530    0.0909    0.0026   -0.0188    0.2201   -0.0317
          20    0.0190   -0.0257   -0.0136   -0.0858   -0.0144   -0.0565    0.0455    0.0099
          21   -0.0687   -0.0118    0.0183   -0.0926    0.0204    0.0628    0.0899    0.0769
          22   -0.0836    0.1951   -0.1323    0.1808   -0.0412   -0.1800    0.1492    0.1808
          23    0.0899   -0.1285    0.0427   -0.2003   -0.0332   -0.1609    0.2559    0.0364
          24   -0.0386   -0.2741    0.2991   -0.2295    0.0792    0.2738    0.2141   -0.2115
          25    0.2152   -0.1899   -0.0418    0.0264   -0.0961   -0.3731   -0.1497    0.0300
          26   -0.0251    0.1663   -0.2068    0.2941    0.0159    0.0682    0.1789   -0.2201
          27    0.0926   -0.1351   -0.0038    0.0749   -0.0580   -0.2363   -0.2127    0.2981
          28   -0.0354    0.0196    0.0388    0.0572    0.0207    0.0954   -0.0972   -0.0137
          29   -0.0255   -0.0077    0.0374   -0.0402    0.0083    0.0433   -0.0885    0.0103
          30    0.0011   -0.0005   -0.0189   -0.0491    0.0005   -0.0049    0.0040    0.0111
          31    0.0529   -0.0266   -0.0379   -0.0668   -0.0138   -0.0464    0.0317    0.0079
          32    0.0185   -0.0356    0.0139   -0.0923   -0.0048   -0.0102   -0.0490    0.0229
          33    0.3076   -0.3552    0.3369    0.2322    0.0345    0.0743    0.0663    0.0217
          34    0.0115    0.0166    0.0327   -0.0088   -0.0769    0.0303    0.0085    0.0868
          35    0.0429   -0.0308   -0.0554   -0.0194    0.0326    0.0183   -0.0035   -0.0927
          36   -0.0647   -0.0715   -0.0360    0.0222   -0.0813    0.0254    0.0127    0.0666
          37   -0.0564   -0.0089    0.0467    0.0071   -0.2816    0.0235   -0.0172   -0.0648
          38    0.0868    0.0403   -0.0068   -0.0288    0.1059    0.0124    0.0043    0.0462
          39   -0.1145   -0.0646   -0.0007    0.0380   -0.2581    0.0146   -0.0087    0.0086
          40   -0.0531   -0.0329   -0.0154   -0.0117   -0.0664    0.0307   -0.0014    0.0776
          41    0.0808    0.0383    0.0061   -0.0215    0.0344    0.0108   -0.0009   -0.0033
          42   -0.0868    0.0060    0.0299    0.0234   -0.0812   -0.0097    0.0009   -0.0031
          43    0.0842   -0.0384   -0.0526   -0.0122   -0.0769    0.0474    0.0080    0.1232
          44    0.0001   -0.0265   -0.0331   -0.0071    0.0301    0.0037   -0.0013   -0.0363
          45    0.0658    0.0603    0.0425    0.0109   -0.0825    0.0044    0.0070    0.0355
          46   -0.0617   -0.0603   -0.0259   -0.0021   -0.0390    0.0403    0.0161    0.1820
          47    0.0261   -0.0795   -0.0940   -0.0079    0.0167    0.0170   -0.0044   -0.1102
          48   -0.0759   -0.0121    0.0165    0.0199   -0.0517    0.0132    0.0144    0.0576
          49   -0.0514    0.0099   -0.0066   -0.0275   -0.0069    0.1080    0.0581    0.2702
          50    0.0228   -0.0887   -0.0848    0.0049    0.0018   -0.0162   -0.0184   -0.1534
          51   -0.0909   -0.0421   -0.0465   -0.0118   -0.0159    0.1069    0.0532    0.2154
          52    0.1435    0.0769    0.0718   -0.0130    0.3337   -0.1368   -0.0456   -0.0147
          53    0.0037   -0.0442   -0.0632   -0.0207   -0.0997    0.0742    0.0139   -0.0520
          54   -0.0116   -0.1329   -0.0948    0.0556    0.2549   -0.1334   -0.0270   -0.2648
          55    0.3526   -0.0206   -0.1359   -0.0376    0.0016    0.0672    0.0064   -0.0341
          56   -0.0905   -0.0486   -0.0226    0.0001    0.0050    0.0047    0.0001    0.0115
          57    0.3462    0.1974    0.0798   -0.0160   -0.0080   -0.0160   -0.0028   -0.1029
          58   -0.2207   -0.1761   -0.0444    0.0402    0.1482   -0.1177   -0.0575   -0.1607
          59    0.0626   -0.1431   -0.1919   -0.0344   -0.0340    0.1244    0.0209   -0.0149
          60   -0.2020   -0.0411    0.0736    0.0664    0.1028   -0.1643   -0.0511   -0.2476
          61   -0.0205   -0.0170    0.0157    0.0025   -0.1280    0.0054   -0.0120   -0.0935
          62   -0.0114   -0.0316   -0.0296   -0.0042    0.0451    0.0089    0.0046    0.0757
          63   -0.0104   -0.0124   -0.0055    0.0163   -0.1090    0.0082   -0.0040    0.0111
          64    0.0535    0.0172    0.0063   -0.0190    0.0049    0.0106   -0.0029   -0.0955
          65   -0.1349   -0.1415   -0.0774    0.0341   -0.0601    0.0016    0.0011    0.0910
          66   -0.0457   -0.0630   -0.0432    0.0299   -0.0948    0.0056    0.0002    0.0289
          67   -0.0769   -0.0641   -0.0006    0.0155   -0.2047    0.0089   -0.0175   -0.1612
          68    0.0263   -0.0324   -0.0609   -0.0162    0.2262    0.0092    0.0215    0.2253
          69    0.1545    0.0743   -0.0249   -0.0275    0.3083    0.0059    0.0328    0.3548
          70    0.0101   -0.0336   -0.0288   -0.0073    0.1123   -0.0072    0.0082   -0.0594
          71   -0.0808   -0.0707   -0.0255    0.0140   -0.1299    0.0158   -0.0094    0.0778
          72    0.0264    0.0464    0.0404    0.0086   -0.2213    0.0200   -0.0131   -0.0237
          73   -0.1598   -0.0475   -0.0437   -0.0240    0.3575   -0.0440   -0.0047    0.0439
          74    0.1440    0.1090    0.0718   -0.0267   -0.1066    0.0260   -0.0040   -0.1138
          75   -0.1609    0.0421    0.0486    0.0092    0.2842   -0.0863   -0.0048   -0.1270
          76   -0.0822    0.0479    0.2942   -0.3396   -0.0271   -0.1006    0.0272    0.0087
          77    0.0709    0.3567    0.1965    0.1730   -0.0268   -0.0841   -0.0578   -0.0572
          78   -0.0264   -0.0979   -0.2571    0.3886    0.0300    0.1133   -0.0164    0.0572
          79    0.1860    0.0456   -0.0525    0.0713   -0.0785   -0.2445   -0.1285   -0.1674
          80   -0.1284    0.1444    0.1596    0.1813    0.0234    0.0411    0.0242    0.0916
          81    0.0747    0.1800    0.0001    0.1388   -0.0061    0.0181   -0.0220   -0.0566
          82    0.2024    0.1273   -0.2552   -0.1439    0.0548    0.3898    0.0940   -0.0656
          83   -0.1047    0.1211    0.3140    0.0509   -0.0410   -0.2065   -0.0763    0.0967
          84    0.0776    0.3553    0.1727   -0.0859    0.0151    0.1058    0.0991   -0.0022


   Root No.      25        26        27        28        29        30        31        32

                25 A      26 A      27 A      28 A      29 A      30 A      31 A      32 A   

                   0.7       0.7       0.8       0.8       0.9       0.9       1.0       1.0
  
           1    0.0132    0.0200   -0.0574    0.0005    0.0054    0.0203   -0.0423    0.0279
           2   -0.0085   -0.0143    0.0303    0.0001   -0.0008   -0.0758    0.0253   -0.0184
           3   -0.0201   -0.0672    0.1839   -0.0009   -0.0196   -0.0167    0.2031   -0.1145
           4    0.0152    0.0226   -0.0705    0.0006    0.0066    0.0273   -0.0546    0.0363
           5   -0.0294   -0.0547    0.0837   -0.0048   -0.0328    0.5491    0.2015   -0.0903
           6    0.0482    0.1236   -0.2708    0.0010    0.0228    0.0153   -0.1923    0.1027
           7    0.0061   -0.0067   -0.0197    0.0002    0.0011    0.0304    0.0155   -0.0028
           8   -0.0012    0.0020    0.0267    0.0010    0.0029   -0.0596    0.0578   -0.0274
           9   -0.0171   -0.0838    0.0435   -0.0023   -0.0166    0.0210    0.0783   -0.0537
          10   -0.0116   -0.0683   -0.0104   -0.0011   -0.0063    0.0414    0.0488   -0.0255
          11   -0.0048   -0.0534   -0.0475   -0.0001   -0.0004    0.0487    0.0394   -0.0146
          12    0.0473    0.1383   -0.0137    0.0026    0.0128   -0.0114   -0.0431    0.0308
          13   -0.0025    0.0051    0.0462    0.0009    0.0021   -0.0873    0.0761   -0.0394
          14    0.0089    0.0605    0.0370    0.0026    0.0113   -0.1146    0.0469   -0.0173
          15    0.0359    0.1313    0.0182    0.0026    0.0119   -0.0174   -0.0279    0.0245
          16    0.0083    0.0145   -0.0535   -0.0002    0.0013    0.1570   -0.0449    0.0411
          17    0.0019   -0.0017   -0.0538   -0.0008    0.0030   -0.1167   -0.1446    0.0626
          18    0.0240    0.0627   -0.1420    0.0006    0.0124    0.0088   -0.1055    0.0569
          19    0.0197    0.0247   -0.0652    0.0013    0.0092   -0.0169   -0.0064    0.0092
          20   -0.0050   -0.0066    0.0357    0.0006    0.0006   -0.0507    0.0460   -0.0229
          21   -0.0510   -0.1722    0.2298   -0.0033   -0.0339    0.0233    0.2012   -0.1191
          22   -0.1040   -0.2449    0.1147   -0.0040   -0.0249    0.0573    0.0843   -0.0510
          23   -0.0197   -0.1633   -0.3651   -0.0067   -0.0100    0.3375   -0.2033    0.1114
          24    0.1173    0.1784   -0.0839    0.0031    0.0123   -0.0113    0.0472   -0.0187
          25   -0.0138    0.2169    0.1593    0.0014    0.0090    0.0336   -0.1617    0.0733
          26    0.1236    0.4726    0.4521    0.0103    0.0245    0.1860   -0.0947    0.1184
          27   -0.1688   -0.2100    0.2410   -0.0043   -0.0174    0.0285   -0.1458    0.0755
          28    0.0077    0.0131   -0.0526   -0.0003    0.0005    0.1626   -0.0442    0.0393
          29   -0.0058   -0.0111    0.0287    0.0006    0.0019   -0.1674    0.0233   -0.0249
          30   -0.0070   -0.0262    0.0714   -0.0004   -0.0079   -0.0110    0.1019   -0.0579
          31   -0.0043   -0.0023    0.0189    0.0020    0.0108   -0.4223   -0.0963    0.0177
          32   -0.0130   -0.0214    0.0656    0.0016    0.0066   -0.4665    0.0024   -0.0399
          33   -0.0127   -0.0334    0.0077   -0.0006   -0.0017    0.0161   -0.0238    0.0139
          34   -0.0653    0.0786   -0.0315    0.0180    0.0130    0.0020   -0.0044   -0.0516
          35   -0.0864   -0.0413    0.0105    0.0155   -0.0197   -0.0004   -0.0304   -0.0993
          36   -0.0601    0.0654   -0.0238   -0.0010    0.0208   -0.0040    0.0248    0.0184
          37   -0.0075   -0.0253   -0.0053    0.0044   -0.0035   -0.0005    0.0918   -0.0729
          38    0.0333   -0.0062    0.0020    0.0150   -0.0112    0.0013   -0.0642   -0.0595
          39    0.1249   -0.0157   -0.0017    0.0127    0.0068   -0.0011    0.0953   -0.0202
          40    0.0456    0.0305   -0.0239    0.0333    0.0316    0.0000    0.0987   -0.0649
          41    0.0154   -0.0252    0.0093    0.0300    0.0137    0.0049   -0.0781   -0.0845
          42   -0.0657    0.0605   -0.0273   -0.0129   -0.0279   -0.0018    0.1020   -0.0324
          43    0.0151    0.0889   -0.0405    0.0191    0.0119    0.0027    0.0668   -0.0793
          44    0.0015   -0.0119    0.0090    0.0023   -0.0325    0.0103   -0.1084   -0.1651
          45   -0.1059    0.0932   -0.0392   -0.0091   -0.0248   -0.0029    0.0830   -0.0312
          46   -0.0205    0.1284   -0.0455    0.0227    0.0252    0.0039   -0.0165   -0.0355
          47   -0.0742   -0.0358    0.0077   -0.0119   -0.0619    0.0012   -0.0374   -0.1065
          48   -0.1748    0.1151   -0.0443   -0.0203   -0.0246   -0.0060    0.0255    0.0050
          49   -0.1729    0.2168   -0.0552   -0.0048    0.0043    0.0087   -0.1480   -0.0242
          50   -0.0409   -0.0520    0.0111   -0.0088   -0.0335    0.0043   -0.0010   -0.1225
          51   -0.1794    0.1422   -0.0383    0.0076    0.0554   -0.0070   -0.0679    0.0828
          52    0.2196   -0.1273    0.0205    0.1851   -0.0476   -0.0189    0.0372    0.0485
          53   -0.1694    0.0184   -0.0051   -0.0122   -0.0055    0.0042   -0.0482   -0.1479
          54   -0.1681   -0.0068    0.0108   -0.2212    0.0159    0.0223   -0.0273   -0.1258
          55    0.0663   -0.0548    0.0173   -0.0951   -0.5031   -0.0228   -0.0298    0.0952
          56   -0.0252    0.0403   -0.0155    0.0200    0.0138    0.0133   -0.0783   -0.2326
          57   -0.0207   -0.0893    0.0533    0.1019    0.5694    0.0355   -0.1461   -0.1499
          58    0.1860   -0.2030    0.0554    0.1319    0.2623   -0.0048    0.1402    0.2535
          59   -0.1445   -0.0607    0.0020    0.1784    0.3755   -0.0174    0.1969    0.3778
          60   -0.0185   -0.0806    0.0223   -0.0940   -0.1965    0.0001   -0.0429   -0.1755
          61   -0.0274   -0.0492    0.0107   -0.0534    0.0104   -0.0000    0.0311   -0.0409
          62    0.0812    0.0103   -0.0030   -0.0547   -0.0005    0.0005   -0.0311   -0.0309
          63    0.1512   -0.0384    0.0120    0.0381   -0.0185    0.0003    0.0342   -0.0012
          64   -0.1049   -0.0621    0.0276   -0.2931    0.0645   -0.0026   -0.1856    0.1005
          65    0.2606   -0.0074    0.0104    0.4321   -0.1441    0.0104   -0.0838   -0.0479
          66    0.2458   -0.0582    0.0337    0.2561   -0.0942    0.0063   -0.1515    0.0902
          67   -0.0193   -0.1115    0.0357   -0.2752    0.0700   -0.0072    0.0014    0.1223
          68    0.1260    0.0795   -0.0262   -0.3586    0.0667   -0.0091    0.0487    0.1451
          69    0.1877    0.1782   -0.0685   -0.0603   -0.0139   -0.0031    0.2345   -0.0035
          70   -0.2841    0.0751   -0.0391    0.2999   -0.0104    0.0031    0.0532   -0.1830
          71    0.2507   -0.0465    0.0116   -0.4039    0.0648   -0.0084    0.1577    0.0793
          72    0.3124   -0.1369    0.0611   -0.0334   -0.0646    0.0065   -0.2042    0.0443
          73    0.0892   -0.0409    0.0190    0.0094    0.0697    0.0083   -0.1277   -0.0913
          74   -0.2425   -0.0057   -0.0155    0.1556   -0.2473   -0.0279    0.2001    0.4212
          75   -0.2104    0.0021    0.0021    0.0380   -0.1721   -0.0163    0.0595    0.3168
          76    0.0115    0.0970    0.2641    0.0014   -0.0038    0.0551    0.0149    0.0211
          77    0.0658    0.0000   -0.2120    0.0013    0.0035   -0.0275    0.1701   -0.0617
          78   -0.0521   -0.1341   -0.2375   -0.0048   -0.0014   -0.0509   -0.0778    0.0003
          79    0.1180    0.2062   -0.2523    0.0069    0.0247   -0.0212    0.2574   -0.1002
          80   -0.0509   -0.0777   -0.0252   -0.0079   -0.0171    0.0016   -0.1276    0.0180
          81    0.0483   -0.0536   -0.1581    0.0042    0.0053   -0.0373    0.1670   -0.0467
          82    0.0165   -0.2423    0.0330   -0.0119   -0.0339   -0.0091   -0.0550   -0.0232
          83   -0.0475    0.0135   -0.0646    0.0031    0.0286   -0.0312   -0.0849    0.0803
          84   -0.0107   -0.0848    0.1582    0.0003   -0.0103    0.0143   -0.2013    0.0882


   Root No.      33        34        35        36        37        38        39        40

                33 A      34 A      35 A      36 A      37 A      38 A      39 A      40 A   

                   1.1       1.1       1.2       1.3       1.5       1.6       1.6       1.6
  
           1   -0.0221   -0.0114   -0.0362    0.0104   -0.0821   -0.0135    0.0112    0.0232
           2    0.0238   -0.0068   -0.0339    0.0040   -0.0624   -0.0029    0.0054    0.0159
           3    0.1048    0.0368    0.1484   -0.0361   -0.1826    0.2421   -0.1327   -0.1430
           4   -0.0295   -0.0144   -0.0446    0.0131   -0.1138   -0.0169    0.0146    0.0307
           5    0.1529   -0.0252   -0.0735   -0.0131    0.4558   -0.0329   -0.0022   -0.0425
           6   -0.0913   -0.0257   -0.1049    0.0250    0.0908   -0.1276    0.0689    0.0755
           7    0.0202   -0.0137   -0.0386   -0.0013    0.2129   -0.0346    0.0085   -0.0187
           8    0.0778   -0.0491   -0.1715    0.0169   -0.1953    0.0066    0.0054    0.0262
           9    0.0216    0.0406    0.1166   -0.0173    0.0262   -0.0152    0.0128    0.0281
          10    0.0340   -0.0028   -0.0132   -0.0051    0.2396   -0.0474    0.0159   -0.0071
          11    0.0552   -0.0375   -0.1290    0.0130    0.1370   -0.0511    0.0209    0.0066
          12   -0.0106   -0.0182   -0.0434    0.0020    0.0614    0.0045   -0.0074   -0.0221
          13    0.1054   -0.0657   -0.2408    0.0201   -0.1600   -0.0191    0.0170    0.0365
          14    0.1044   -0.0903   -0.3116    0.0327   -0.3509    0.0187    0.0033    0.0356
          15    0.0035   -0.0260   -0.0680    0.0024    0.0398    0.0075   -0.0081   -0.0224
          16   -0.0337   -0.0146   -0.0222    0.0134   -0.2848    0.0301   -0.0041    0.0185
          17   -0.1737    0.0962    0.3331   -0.0267    0.0054    0.0576   -0.0321   -0.0486
          18   -0.0508   -0.0176   -0.0715    0.0184    0.0879   -0.1176    0.0653    0.0727
          19    0.0271   -0.0339   -0.1102    0.0078    0.1378   -0.0187    0.0017   -0.0171
          20    0.0534   -0.0300   -0.1028    0.0087   -0.0938    0.0047    0.0017    0.0096
          21    0.0702    0.0616    0.1969   -0.0281   -0.0566   -0.0029    0.0138    0.0373
          22    0.0218    0.0308    0.0915   -0.0124    0.0783   -0.0278    0.0164    0.0173
          23   -0.2229    0.0992    0.3634   -0.0244   -0.1902    0.0989   -0.0469   -0.0418
          24    0.0520   -0.0193   -0.0480   -0.0035    0.0636    0.0105   -0.0085   -0.0175
          25   -0.0813   -0.0015   -0.0551    0.0120    0.0222    0.0023   -0.0081    0.0077
          26   -0.1327    0.0031    0.1837   -0.0087    0.0057    0.0022    0.0030   -0.0294
          27   -0.1226    0.0037   -0.0227    0.0273   -0.0728   -0.1144    0.0672    0.0815
          28   -0.0378   -0.0069    0.0033    0.0094   -0.2137    0.0282   -0.0064    0.0080
          29    0.0278   -0.0044   -0.0421    0.0032    0.0275   -0.0282    0.0158    0.0244
          30    0.0575    0.0184    0.0806   -0.0209   -0.1688    0.2344   -0.1343   -0.1505
          31   -0.1215    0.0909    0.2799   -0.0221    0.1820    0.0232   -0.0213   -0.0457
          32   -0.0066    0.0415    0.0789   -0.0106    0.2539   -0.0528    0.0202    0.0131
          33   -0.0191   -0.0030   -0.0184    0.0130    0.0643   -0.1018    0.0583    0.0687
          34    0.0003    0.0353   -0.0140   -0.1851   -0.0136   -0.0410    0.0446   -0.0430
          35   -0.0184   -0.1106    0.0384    0.0547   -0.0278   -0.0446    0.1937   -0.1481
          36   -0.0107   -0.0966    0.0143   -0.1568   -0.0034    0.0093    0.0482   -0.0347
          37   -0.1747    0.0470   -0.0547   -0.0576   -0.0123   -0.0445    0.0399   -0.0710
          38    0.0559    0.0117    0.0109    0.0173   -0.0122   -0.0146    0.0185   -0.0303
          39   -0.1549   -0.0284   -0.0325   -0.0441    0.0089    0.0321   -0.0335    0.0476
          40   -0.1154    0.1309   -0.0311    0.2496   -0.0133    0.0085    0.1480   -0.1384
          41    0.0416    0.0465   -0.0132   -0.0777   -0.0062    0.0199    0.0120    0.0201
          42   -0.1167   -0.1058    0.0359    0.2224    0.0161   -0.0155   -0.1627    0.1287
          43   -0.0393    0.1003    0.0160    0.3787    0.0126    0.0729    0.0047    0.0524
          44    0.0101   -0.0169   -0.0089   -0.1055    0.0351    0.1347   -0.1752    0.3028
          45   -0.0496   -0.0992    0.0667    0.3242    0.0016   -0.0396   -0.0751    0.0352
          46    0.0836    0.1110    0.0140    0.1442    0.0190    0.0984   -0.0359    0.1085
          47   -0.0383   -0.1204    0.0193   -0.0462    0.0064    0.0342    0.0263    0.0332
          48    0.0469   -0.1739    0.0932    0.1077   -0.0205   -0.0926    0.0506   -0.0964
          49    0.2132    0.0575    0.0163   -0.2387    0.0115    0.0381   -0.0418    0.0936
          50   -0.0776   -0.0643    0.0117    0.0768    0.0062    0.0353    0.0509    0.0118
          51    0.1644   -0.1325    0.0561   -0.2044   -0.0165   -0.0203    0.0715   -0.0820
          52   -0.0549   -0.4251    0.1037    0.1553    0.0103    0.0343    0.0675   -0.0146
          53   -0.0110   -0.0521    0.0229   -0.0570   -0.0450   -0.0836    0.2812   -0.2254
          54    0.0172    0.4814   -0.0917    0.1335   -0.0242   -0.0626    0.0179   -0.0544
          55    0.0273   -0.1072   -0.0034   -0.2659   -0.0003   -0.0122   -0.1117    0.0936
          56   -0.0154    0.0041    0.0099    0.1025    0.0508    0.2031   -0.2355    0.4288
          57    0.0360    0.1073   -0.0547   -0.1969    0.0183    0.0975    0.0391    0.0607
          58   -0.0499    0.1023   -0.0468   -0.0419    0.0099   -0.0087   -0.1297    0.0945
          59    0.0300   -0.2269    0.0969    0.0096   -0.0193   -0.1736   -0.0899   -0.0262
          60   -0.0969   -0.1941    0.0250   -0.0579   -0.0180   -0.0602    0.1135   -0.1277
          61   -0.1054    0.0291   -0.0503   -0.1275   -0.0185   -0.1437   -0.1564   -0.0729
          62    0.0413    0.0263    0.0091    0.0378   -0.0285   -0.2022   -0.2471   -0.0971
          63   -0.0881   -0.0132   -0.0343   -0.1062    0.0154    0.1059    0.0675    0.0833
          64    0.3454   -0.0553    0.1139    0.2220   -0.0156   -0.1265   -0.1333   -0.0810
          65    0.0795    0.1637   -0.0215    0.0022   -0.0260   -0.1449   -0.0316   -0.1367
          66    0.2469    0.0261    0.0551    0.1012    0.0349    0.2736    0.3476    0.1298
          67    0.0208   -0.0956    0.0077   -0.0645    0.0364    0.2436    0.2503    0.1355
          68    0.0878   -0.0244    0.0500    0.1529    0.0120    0.0810    0.1220    0.0173
          69   -0.2789    0.1207   -0.0897   -0.0990   -0.0071   -0.0584    0.0157   -0.0615
          70   -0.1810   -0.0433   -0.0325   -0.0689   -0.0133   -0.0860   -0.1627   -0.0160
          71   -0.2080    0.0100   -0.0780   -0.1934    0.0012   -0.0133   -0.0389    0.0011
          72    0.2697    0.1093    0.0279    0.0419   -0.0385   -0.2812   -0.2873   -0.1521
          73    0.0964    0.0974   -0.0244   -0.1444   -0.0240    0.0109    0.1888   -0.1552
          74    0.0132    0.3822   -0.1149    0.0436    0.0138    0.1234    0.1426   -0.0467
          75    0.0906    0.0143   -0.0052   -0.1265    0.0317    0.0413   -0.1649    0.1778
          76   -0.0301    0.0351    0.1082   -0.0120   -0.0750   -0.1657    0.0990    0.1349
          77    0.1115    0.0436    0.1220   -0.0414   -0.0737   -0.2084    0.1245    0.1763
          78   -0.0020   -0.0302   -0.1466    0.0164    0.0613    0.0885   -0.0542   -0.0690
          79    0.1994    0.0113    0.1675   -0.0817    0.0373    0.1462   -0.0797   -0.1170
          80   -0.0582    0.0328   -0.0935    0.0243   -0.0091   -0.1411    0.0745    0.1454
          81    0.0865    0.0084    0.1085   -0.0292   -0.0788   -0.1391    0.0874    0.1025
          82   -0.1182    0.0124   -0.1038    0.0930    0.0306    0.0697   -0.0371   -0.0571
          83   -0.0032   -0.1020   -0.1560    0.0045    0.1296    0.3738   -0.2227   -0.3955
          84   -0.1757   -0.0451   -0.1937    0.0916    0.0657    0.1015   -0.0764   -0.0960


   Root No.      41        42        43        44        45        46        47        48

                41 A      42 A      43 A      44 A      45 A      46 A      47 A      48 A   

                   1.8       1.9       1.9       2.2       2.8       3.0       3.0       3.2
  
           1   -0.2457   -0.0019    0.0025    0.0047   -0.1069    0.0091    0.0068    0.0442
           2   -0.1376    0.0007   -0.0333   -0.0014    0.2296   -0.0134   -0.0117   -0.0546
           3   -0.0316   -0.0092    0.2343    0.0035   -0.0210   -0.0068   -0.0116   -0.1580
           4   -0.3813   -0.0033    0.0140    0.0120   -0.2250    0.0209    0.0177    0.1217
           5    0.0455   -0.0065    0.1049    0.0100   -0.1939    0.0087    0.0081    0.0227
           6    0.0104    0.0023   -0.0986   -0.0014    0.0078    0.0015    0.0040    0.0472
           7    0.0526   -0.0049    0.1220    0.0578    0.2121   -0.0010   -0.0016   -0.0145
           8    0.1097    0.0051   -0.0908   -0.0353   -0.1498    0.0020    0.0016   -0.0057
           9   -0.0311    0.0097   -0.1986   -0.0691    0.1284   -0.0181   -0.0177    0.0082
          10    0.0655   -0.0025    0.0732    0.0430    0.3063   -0.0080   -0.0084   -0.0024
          11    0.2512   -0.0040    0.0924    0.0530    0.2596   -0.0011    0.0006    0.0707
          12   -0.0034   -0.0054    0.1032    0.0344    0.0184    0.0029    0.0038   -0.0161
          13    0.1928    0.0054   -0.0333   -0.0047    0.0032    0.0049    0.0021    0.0677
          14    0.1978    0.0055   -0.0611   -0.0308   -0.2879    0.0119    0.0098    0.0289
          15    0.0363   -0.0041    0.1094    0.0383    0.0356    0.0047    0.0044    0.0061
          16   -0.0074    0.0032   -0.0711   -0.0046    0.3817   -0.0231   -0.0215   -0.1074
          17    0.4351    0.0036   -0.0015   -0.0047    0.0062   -0.0011   -0.0011   -0.0101
          18    0.0135    0.0075   -0.1846   -0.0301   -0.0075   -0.0031   -0.0036   -0.0446
          19    0.0037   -0.0054    0.1169    0.0219   -0.1907    0.0080    0.0045   -0.0290
          20    0.0419    0.0022   -0.0327   -0.0053    0.1016   -0.0070   -0.0064   -0.0411
          21   -0.0019    0.0176   -0.3838   -0.1033    0.0077   -0.0073   -0.0054    0.0113
          22   -0.0225    0.0071   -0.1686   -0.0599   -0.3609    0.0080    0.0064   -0.0321
          23   -0.1491   -0.0017    0.0427   -0.0021   -0.1216    0.0067    0.0050    0.0117
          24    0.0115    0.0009   -0.0135   -0.0187   -0.2150    0.0058    0.0047   -0.0221
          25   -0.0175   -0.0058    0.1744   -0.0092   -0.0472   -0.0078   -0.0137   -0.0549
          26   -0.0558    0.0033   -0.1419    0.0154    0.0045    0.0073    0.0097    0.0465
          27    0.0040   -0.0004    0.0061    0.0575    0.0752    0.0108    0.0114    0.0683
          28    0.0589    0.0023   -0.0499   -0.0041    0.1668   -0.0086   -0.0088   -0.0363
          29   -0.3478   -0.0022    0.0016    0.0063    0.1242   -0.0061   -0.0052   -0.0204
          30   -0.0396   -0.0222    0.4944    0.0929    0.0275    0.0105    0.0117    0.1563
          31    0.3138   -0.0015    0.0390   -0.0021   -0.1914    0.0105    0.0086    0.0398
          32   -0.4074   -0.0050    0.0339    0.0091    0.0584   -0.0037   -0.0030   -0.0182
          33    0.0217    0.0062   -0.2167   -0.0387   -0.0094   -0.0048   -0.0028   -0.0428
          34   -0.0019    0.3053    0.0386   -0.1349    0.0049    0.2450   -0.2436   -0.2165
          35    0.0003   -0.1145    0.0146   -0.0443    0.0126    0.0748    0.2238    0.0150
          36   -0.0032    0.2600   -0.0241    0.1618    0.0018    0.2467   -0.1523    0.2706
          37   -0.0021    0.2311    0.0321   -0.1304    0.0101    0.0398   -0.0598   -0.1277
          38    0.0016   -0.0810   -0.0328    0.1736   -0.0181   -0.0172    0.0102   -0.2420
          39   -0.0009    0.2023   -0.0286    0.2306   -0.0193    0.0521   -0.0311    0.0791
          40   -0.0024    0.1604   -0.0206    0.1107   -0.0086   -0.3623    0.2403    0.0336
          41    0.0024   -0.0565   -0.0336    0.1581   -0.0127    0.0491   -0.1632   -0.2549
          42    0.0007    0.1626    0.0324   -0.0621   -0.0010   -0.1860    0.3140   -0.1629
          43    0.0013   -0.1151   -0.0222   -0.0018    0.0105    0.1026   -0.1181    0.1816
          44    0.0044    0.0668   -0.0108   -0.0161    0.0149   -0.0410    0.0273   -0.0042
          45    0.0016   -0.1046    0.0130   -0.0170   -0.0047    0.0905   -0.1172   -0.2209
          46    0.0023   -0.2555   -0.0330   -0.0086    0.0132    0.2173   -0.1123    0.1784
          47   -0.0008    0.0901    0.0176   -0.0995    0.0023   -0.1759   -0.0349    0.2420
          48    0.0006   -0.2399    0.0163   -0.0344   -0.0107    0.0478   -0.2477   -0.0804
          49    0.0005   -0.0543    0.0317   -0.1732   -0.0113   -0.3155    0.1742   -0.0925
          50   -0.0007    0.0212    0.0171   -0.0918   -0.0001    0.0291   -0.1127    0.2397
          51   -0.0009   -0.0673   -0.0408    0.1671    0.0098   -0.1277    0.2795    0.1673
          52   -0.0000   -0.1327    0.0042   -0.0259    0.0071    0.0328    0.1671    0.1049
          53   -0.0006    0.0175    0.0397   -0.1219    0.0285    0.4200    0.3657   -0.0953
          54    0.0027   -0.1077    0.0055   -0.0227    0.0019   -0.0148    0.0840   -0.1595
          55    0.0014    0.0758   -0.0131    0.0645    0.0035   -0.0327    0.0388   -0.1103
          56    0.0074    0.0220   -0.0245   -0.0334    0.0402   -0.0164   -0.0518    0.0639
          57   -0.0011    0.0592    0.0062   -0.0794    0.0100   -0.0498    0.0333    0.1525
          58    0.0004    0.1443    0.0029    0.0395    0.0056    0.1451    0.2083   -0.0975
          59    0.0013   -0.0521    0.0579   -0.0921   -0.0232   -0.2207   -0.2467   -0.1782
          60   -0.0025    0.1128    0.0332   -0.0756   -0.0173   -0.3336   -0.2469    0.0352
          61   -0.0000   -0.2168    0.0039   -0.1503    0.0223   -0.0258   -0.0028    0.0761
          62   -0.0018    0.0595   -0.0425    0.2361   -0.0260    0.0314    0.0253   -0.0044
          63    0.0030   -0.1925   -0.0361    0.2372   -0.0333    0.0163    0.0344   -0.0895
          64   -0.0035    0.2262   -0.0038   -0.0270    0.0167    0.0098   -0.0172    0.1386
          65   -0.0020    0.0007    0.0528   -0.3364    0.0405   -0.0253   -0.0246    0.1139
          66    0.0028    0.0402    0.0251    0.0148   -0.0224    0.0049   -0.0001   -0.2127
          67    0.0038   -0.2281    0.0168   -0.1459    0.0223   -0.0459   -0.0036    0.0002
          68   -0.0016    0.3298    0.0115    0.0824   -0.0191    0.0475   -0.0125   -0.0357
          69   -0.0014    0.0189    0.0558   -0.3191    0.0345   -0.0222   -0.0281    0.0667
          70    0.0007   -0.0648   -0.0695    0.3648   -0.0406    0.0305    0.0441   -0.0411
          71    0.0017   -0.3106   -0.0174    0.0602   -0.0148   -0.0069    0.0467    0.0153
          72   -0.0018   -0.1181   -0.0109    0.0124   -0.0067   -0.0004    0.0353    0.0622
          73   -0.0009   -0.0826   -0.0564    0.2098   -0.0139   -0.0839   -0.2979    0.0149
          74   -0.0014    0.0158   -0.0437    0.1338   -0.0041   -0.1544   -0.0686    0.1900
          75    0.0007   -0.0392    0.0341   -0.1920    0.0169    0.2733    0.0745    0.0664
          76    0.0087   -0.0029    0.0653    0.0456    0.0001    0.0039    0.0059    0.0243
          77    0.0215   -0.0096    0.1332    0.0508   -0.0275   -0.0021    0.0081    0.0067
          78    0.0023    0.0010    0.0398   -0.0310   -0.0371   -0.0047   -0.0070   -0.0418
          79   -0.0198    0.0025   -0.1583   -0.0751   -0.0065   -0.0191   -0.0041   -0.0773
          80    0.0172   -0.0066    0.2424   -0.0378   -0.0974   -0.0176   -0.0266   -0.0958
          81    0.0161   -0.0019   -0.0186    0.1039    0.0829    0.0191    0.0277    0.1427
          82   -0.0014    0.0147   -0.0378   -0.0164    0.0164    0.0456   -0.0113    0.0135
          83   -0.0323    0.0065   -0.2955   -0.0359    0.0732    0.0214    0.0273   -0.0067
          84   -0.0087    0.0114    0.0462   -0.0598   -0.0529   -0.0075   -0.0512   -0.0889


   Root No.      49        50        51        52        53        54        55        56

                49 A      50 A      51 A      52 A      53 A      54 A      55 A      56 A   

                   3.3       3.4       3.5       3.6       4.3       4.8       5.0       5.2
  
           1   -0.0724    0.1051    0.0582    0.0044   -0.0037   -0.0165    0.0002   -0.0454
           2    0.0873   -0.1091   -0.0517   -0.0037    0.0107    0.1010   -0.0026    0.1892
           3    0.4616    0.4321   -0.0499   -0.0037    0.0710    0.0928    0.0006   -0.1229
           4   -0.2007    0.3489    0.2015    0.0155   -0.0175    0.1001   -0.0034    0.2530
           5   -0.0284    0.0283   -0.0017   -0.0003    0.0068   -0.0039    0.0008   -0.0530
           6   -0.1344   -0.1206    0.0150    0.0008   -0.0190   -0.0227   -0.0002    0.0293
           7    0.0532    0.0205   -0.1264   -0.0114   -0.0928    0.0798   -0.0042    0.2546
           8    0.0004   -0.0973   -0.0228   -0.0013    0.0796    0.2471   -0.0028    0.0812
           9   -0.1356   -0.1216    0.4193    0.0386    0.4151    0.3774    0.0009   -0.3360
          10   -0.0113    0.0289    0.0622    0.0055    0.0493    0.1782   -0.0034    0.1338
          11   -0.1333    0.2542    0.1976    0.0157   -0.0660   -0.2859    0.0042   -0.1335
          12    0.0686    0.0147   -0.1514   -0.0137   -0.1074   -0.0210   -0.0022    0.1616
          13   -0.1370    0.1882    0.2050    0.0170   -0.0161   -0.2751    0.0043   -0.2350
          14   -0.0330    0.0341   -0.0220   -0.0021   -0.0218   -0.0129    0.0001   -0.0216
          15    0.0277    0.1000   -0.0800   -0.0079   -0.1304   -0.1799    0.0002    0.0521
          16    0.1758   -0.2464   -0.1402   -0.0110   -0.0188   -0.1850    0.0040   -0.2501
          17    0.0186   -0.0253   -0.0158   -0.0011    0.0008   -0.0103    0.0002   -0.0193
          18    0.1247    0.1065   -0.0158   -0.0015    0.0102    0.0133    0.0004   -0.0158
          19    0.0816   -0.1060   -0.1445   -0.0118    0.0812    0.1983   -0.0010   -0.1509
          20    0.0712   -0.0998   -0.0683   -0.0051    0.0389    0.2675   -0.0052    0.2871
          21   -0.0762   -0.0508    0.0877    0.0070   -0.1451   -0.2980   -0.0009    0.3761
          22    0.0516   -0.3046   -0.2453   -0.0206   -0.0654   -0.1256    0.0017   -0.1287
          23    0.0068    0.1118    0.0137    0.0009   -0.0266   -0.0739    0.0008   -0.0384
          24    0.0460   -0.1657   -0.1535   -0.0130   -0.0193   -0.0385    0.0011   -0.1211
          25    0.1085   -0.0444    0.0508    0.0057    0.0869    0.0061    0.0001   -0.0406
          26   -0.1020    0.0250    0.0042    0.0001   -0.0069    0.0173    0.0005   -0.0696
          27   -0.1072    0.0845   -0.0679   -0.0074   -0.0723    0.0714   -0.0014   -0.0275
          28    0.0569   -0.0719   -0.0343   -0.0025   -0.0008    0.0073   -0.0006    0.0346
          29    0.0291   -0.0562   -0.0243   -0.0018   -0.0047    0.0130   -0.0007    0.0616
          30   -0.4360   -0.3741    0.0518    0.0028   -0.0358   -0.0458   -0.0007    0.0455
          31   -0.0618    0.0872    0.0459    0.0033    0.0149    0.0971   -0.0017    0.1092
          32    0.0346   -0.0371   -0.0320   -0.0026   -0.0368   -0.2482    0.0051   -0.3019
          33    0.1176    0.1002   -0.0096   -0.0001    0.0067    0.0089    0.0008    0.0038
          34   -0.0866    0.0102    0.0564   -0.2748   -0.1428    0.0548   -0.2654   -0.0347
          35    0.0065    0.0017   -0.0231    0.0871    0.0305   -0.0084    0.0843    0.0085
          36    0.1089   -0.0163   -0.0197   -0.2531    0.1842   -0.0752   -0.2172    0.0412
          37   -0.0743    0.0202   -0.0379    0.3699   -0.0948    0.0476    0.3368   -0.0244
          38   -0.1006    0.0222   -0.0064   -0.1113    0.0295   -0.0218   -0.1020    0.0281
          39    0.0588   -0.0211   -0.0160    0.3239    0.0928   -0.0472    0.3048    0.0396
          40    0.0045    0.0040   -0.0120   -0.0211    0.0096    0.0003   -0.3318   -0.0085
          41   -0.1411    0.0463   -0.0690    0.0140    0.0830   -0.0356    0.1103    0.0365
          42   -0.0655    0.0155   -0.0092   -0.0119    0.0365   -0.0267   -0.2871    0.0214
          43    0.0797   -0.0221    0.0556   -0.3348   -0.0793    0.0404    0.3138   -0.0214
          44   -0.0414    0.0267   -0.0597    0.1027    0.0191   -0.0051   -0.0996    0.0085
          45   -0.1167    0.0369   -0.0326   -0.2819    0.0970   -0.0394    0.2766    0.0319
          46    0.0920   -0.0304    0.0170    0.3777   -0.0919    0.0295   -0.2741   -0.0151
          47    0.1333   -0.0485    0.1035   -0.1248   -0.1544    0.0458    0.0926   -0.0064
          48   -0.0412    0.0118   -0.0415    0.3360    0.0350   -0.0202   -0.2399    0.0093
          49    0.0288   -0.0437    0.1511   -0.0408   -0.2349    0.0655    0.2158   -0.0168
          50    0.1564   -0.0639    0.1172    0.0208   -0.1329    0.0240   -0.0662    0.0090
          51    0.0158    0.0310   -0.1244   -0.0554    0.2369   -0.0673    0.1869    0.0284
          52    0.0573   -0.0168    0.0043    0.0840    0.0197   -0.0071    0.0406    0.0004
          53   -0.0223    0.0023   -0.0053   -0.0326    0.0247    0.0011   -0.0093   -0.0189
          54   -0.0758    0.0219   -0.0240    0.0791   -0.0165    0.0108    0.0325   -0.0082
          55   -0.0923    0.0421   -0.0910    0.0881    0.0873   -0.0202   -0.0537    0.0008
          56   -0.1129    0.0915   -0.2137   -0.0452    0.1845   -0.0184    0.0051   -0.0327
          57    0.0653   -0.0158    0.0103    0.0743   -0.0297    0.0138   -0.0459   -0.0124
          58   -0.0375    0.0106   -0.0165   -0.1067    0.0772   -0.0344    0.0457    0.0271
          59   -0.0816    0.0172    0.0017    0.0427   -0.0566    0.0270   -0.0201   -0.0250
          60    0.0102   -0.0049    0.0377   -0.0875   -0.1050    0.0489    0.0265   -0.0387
          61   -0.0167    0.0235   -0.0566   -0.0500    0.0361   -0.0005    0.0024   -0.0066
          62    0.0594   -0.0400    0.0798    0.0171   -0.0460    0.0024   -0.0006    0.0079
          63    0.0364   -0.0403    0.0983   -0.0371   -0.0540    0.0008    0.0045    0.0105
          64    0.0076    0.0211   -0.0862    0.0468    0.1385   -0.0496    0.0280    0.0312
          65   -0.0424    0.0503   -0.1275   -0.0025    0.1427   -0.0443    0.0088    0.0258
          66   -0.0226   -0.0292    0.1167   -0.0135   -0.2006    0.0719   -0.0242   -0.0446
          67   -0.0740    0.0503   -0.1079   -0.1269    0.1595   -0.0584   -0.0771    0.0392
          68    0.0493   -0.0421    0.0946    0.1448   -0.1528    0.0561    0.0828   -0.0375
          69   -0.0456    0.0426   -0.1004    0.0026    0.0978   -0.0288   -0.0021    0.0170
          70    0.0811   -0.0641    0.1460   -0.0284   -0.1521    0.0491   -0.0331   -0.0327
          71    0.0646   -0.0417    0.1048   -0.1089   -0.1261    0.0464   -0.0695   -0.0347
          72    0.0696   -0.0355    0.0824   -0.0811   -0.1060    0.0413   -0.0597   -0.0322
          73   -0.0505    0.0356   -0.0965    0.0062    0.1574   -0.0525    0.0593    0.0237
          74    0.0564   -0.0004   -0.0360   -0.0098    0.0834   -0.0261   -0.0198    0.0067
          75    0.0806   -0.0443    0.0970    0.0112   -0.1539    0.0530    0.0533   -0.0237
          76   -0.0073    0.0136   -0.0319   -0.0037    0.0053    0.0104    0.0007   -0.0106
          77    0.0410   -0.0140   -0.0101   -0.0018    0.0571   -0.0139    0.0035    0.0095
          78    0.0679   -0.0420    0.0566    0.0054    0.0739   -0.0450    0.0019    0.0351
          79    0.0709   -0.0774    0.2014    0.0180    0.1284   -0.1743    0.0052    0.1432
[...]
 EFFECTIVE MASS     11.1623         C  7 -- H  9         +12.8% ( 52.6%)      6.0%
 FORCE CONSTANT      1.8361

 VIBRATION         45   45A           ATOM PAIR      ENERGY CONTRIBUTION    RADIAL
 FREQUENCY          1168.31         C 15 -- H 19         +18.2% ( 58.0%)      5.9%
 TRANSITION DIPOLE   1.2486         C 16 -- N 17         +16.6% ( 55.3%)     91.1%
 TRAVEL (Ang.)       0.3300         C 12 -- H 18         +15.5% ( 53.5%)      6.5%
 REDUCED MASS        0.5299         C 15 -- C 16         +10.6% ( 44.3%)     36.9%
 EFFECTIVE MASS      5.8610         C 16 -- H 20         +10.1% ( 43.2%)     36.5%
 FORCE CONSTANT      0.4262

 VIBRATION         46   46A           ATOM PAIR      ENERGY CONTRIBUTION    RADIAL
 FREQUENCY          1199.20         C 14 -- H 25         +28.5% ( 64.2%)      3.4%
 TRANSITION DIPOLE   0.9811         C 16 -- H 20         +24.3% ( 59.3%)      0.5%
 TRAVEL (Ang.)       0.3946         C 15 -- C 16          +7.9% ( 33.8%)     68.8%
 REDUCED MASS        0.3611         C 12 -- C 13          +7.2% ( 32.2%)     41.6%
 EFFECTIVE MASS      3.7200
 FORCE CONSTANT      0.3059

 VIBRATION         47   47A           ATOM PAIR      ENERGY CONTRIBUTION    RADIAL
 FREQUENCY          1226.87         C 16 -- H 20         +19.3% ( 52.4%)      5.9%
 TRANSITION DIPOLE   1.5807         C 14 -- H 25         +16.6% ( 48.6%)      0.3%
 TRAVEL (Ang.)       0.4759         C 15 -- H 19         +11.0% ( 39.6%)      0.1%
 REDUCED MASS        0.2427         C 12 -- H 18          +9.2% ( 36.2%)     41.9%
 EFFECTIVE MASS      3.1989
 FORCE CONSTANT      0.2152

 VIBRATION         48   48A           ATOM PAIR      ENERGY CONTRIBUTION    RADIAL
 FREQUENCY          1231.20         C 21 -- H 23         +46.1% ( 58.5%)      0.5%
 TRANSITION DIPOLE   0.6897         C 21 -- H 24         +35.0% ( 50.9%)      3.5%
 TRAVEL (Ang.)       0.3722         C 21 -- H 22         +12.2% ( 30.0%)     23.7%
 REDUCED MASS        0.3954         C 13 -- C 21          +4.1% ( 17.5%)     11.4%
 EFFECTIVE MASS      1.4696
 FORCE CONSTANT      0.3532

 VIBRATION         49   49A           ATOM PAIR      ENERGY CONTRIBUTION    RADIAL
 FREQUENCY          1239.99         C 21 -- H 22         +41.0% ( 55.2%)      0.0%
 TRANSITION DIPOLE   0.7323         C 21 -- H 24         +27.0% ( 44.8%)      1.8%
 TRAVEL (Ang.)       0.4030         C 21 -- H 23         +22.6% ( 41.0%)     10.1%
 REDUCED MASS        0.3349         C 13 -- C 21          +2.9% ( 14.7%)     30.8%
 EFFECTIVE MASS      1.4375
 FORCE CONSTANT      0.3034

 VIBRATION         50   50A           ATOM PAIR      ENERGY CONTRIBUTION    RADIAL
 FREQUENCY          1241.19         C  7 -- H  8         +41.9% ( 74.7%)      4.4%
 TRANSITION DIPOLE   0.7071         C  1 -- C  7         +19.2% ( 50.5%)     63.2%
 TRAVEL (Ang.)       0.2399         C  1 -- C 10         +13.2% ( 41.9%)      0.6%
 REDUCED MASS        0.9437         C  1 -- H  2         +10.1% ( 36.7%)     84.6%
 EFFECTIVE MASS      4.4955
 FORCE CONSTANT      0.8566

 VIBRATION         51   51A           ATOM PAIR      ENERGY CONTRIBUTION    RADIAL
 FREQUENCY          1270.67         O 27 -- H 28         +24.0% ( 51.5%)     52.3%
 TRANSITION DIPOLE   2.5489         C 12 -- H 18         +20.4% ( 47.5%)      1.7%
 TRAVEL (Ang.)       0.4346         N 17 -- H 28         +17.3% ( 43.7%)     33.9%
 REDUCED MASS        0.2809         H 26 -- O 27         +13.6% ( 38.7%)      0.0%
 EFFECTIVE MASS      2.3141
 FORCE CONSTANT      0.2672

 VIBRATION         52   52A           ATOM PAIR      ENERGY CONTRIBUTION    RADIAL
 FREQUENCY          1291.55         C 12 -- H 18         +18.5% ( 55.4%)      0.0%
 TRANSITION DIPOLE   0.7474         C 15 -- H 19         +14.1% ( 48.3%)      1.4%
 TRAVEL (Ang.)       0.3252         C 16 -- H 20         +12.9% ( 46.3%)      2.3%
 REDUCED MASS        0.4935         C 12 -- N 17          +9.3% ( 39.2%)     66.7%
 EFFECTIVE MASS      4.4088
 FORCE CONSTANT      0.4851

 VIBRATION         53   53A           ATOM PAIR      ENERGY CONTRIBUTION    RADIAL
 FREQUENCY          1324.15         C  7 -- H  8         +24.7% ( 71.1%)      1.5%
 TRANSITION DIPOLE   1.7810         C  1 -- C  7         +22.2% ( 67.4%)     99.9%
 TRAVEL (Ang.)       0.1419         N  3 -- C  7         +17.3% ( 59.6%)     57.3%
 REDUCED MASS        2.5278         C  7 -- H  9         +17.1% ( 59.2%)      0.6%
 EFFECTIVE MASS      7.3357
 FORCE CONSTANT      2.6114

 VIBRATION         54   54A           ATOM PAIR      ENERGY CONTRIBUTION    RADIAL
 FREQUENCY          1343.60         C  1 -- H  2         +69.5% ( 80.7%)      0.7%
 TRANSITION DIPOLE   0.2707         H  6 -- C 10         +15.1% ( 37.7%)      4.7%
 TRAVEL (Ang.)       0.3108         C 10 -- H 11          +4.9% ( 21.4%)     22.9%
 REDUCED MASS        0.5194         C  1 -- C 10          +2.4% ( 15.1%)      0.6%
 EFFECTIVE MASS      1.5367
 FORCE CONSTANT      0.5525

 VIBRATION         55   55A           ATOM PAIR      ENERGY CONTRIBUTION    RADIAL
 FREQUENCY          1347.79         C 21 -- H 22         +20.0% ( 58.0%)      3.9%
 TRANSITION DIPOLE   1.1741         C 13 -- C 21         +19.9% ( 57.9%)     99.1%
 TRAVEL (Ang.)       0.2184         C 21 -- H 24         +18.5% ( 55.8%)      2.8%
 REDUCED MASS        1.0489         C 21 -- H 23         +15.6% ( 51.3%)      2.8%
 EFFECTIVE MASS      5.9912
 FORCE CONSTANT      1.1226

 VIBRATION         56   56A           ATOM PAIR      ENERGY CONTRIBUTION    RADIAL
 FREQUENCY          1369.54         C 13 -- C 14         +11.7% ( 42.8%)     29.3%
 TRANSITION DIPOLE   0.8893         C 13 -- C 21         +11.1% ( 41.8%)     99.9%
 TRAVEL (Ang.)       0.2504         C 12 -- C 13         +10.6% ( 40.8%)     32.4%
 REDUCED MASS        0.7856         C 14 -- C 15         +10.6% ( 40.8%)     61.5%
 EFFECTIVE MASS      6.8432
 FORCE CONSTANT      0.8681

 VIBRATION         57   57A           ATOM PAIR      ENERGY CONTRIBUTION    RADIAL
 FREQUENCY          1389.40         C 10 -- H 11         +21.0% ( 56.3%)      0.3%
 TRANSITION DIPOLE   0.0562         C  1 -- C  7         +17.8% ( 51.8%)     95.2%
 TRAVEL (Ang.)       0.2649         C  1 -- H  2         +14.9% ( 47.5%)      4.1%
 REDUCED MASS        0.6914         H  6 -- C 10         +13.7% ( 45.4%)      7.3%
 EFFECTIVE MASS      4.9952
 FORCE CONSTANT      0.7863

 VIBRATION         58   58A           ATOM PAIR      ENERGY CONTRIBUTION    RADIAL
 FREQUENCY          1399.00         C 12 -- N 17         +12.6% ( 51.4%)     99.5%
 TRANSITION DIPOLE   0.6523         C 15 -- C 16         +11.4% ( 48.9%)     97.9%
 TRAVEL (Ang.)       0.2024         C 12 -- C 13         +11.2% ( 48.5%)     99.2%
 REDUCED MASS        1.1763         C 14 -- C 15         +10.2% ( 46.2%)     93.8%
 EFFECTIVE MASS      8.2531         C 16 -- N 17         +10.1% ( 46.1%)     95.7%
 FORCE CONSTANT      1.3564

 VIBRATION         59   59A           ATOM PAIR      ENERGY CONTRIBUTION    RADIAL
 FREQUENCY          1486.03         N 17 -- H 28         +15.4% ( 52.6%)     81.1%
 TRANSITION DIPOLE   3.0447         O 27 -- H 28         +15.2% ( 52.3%)     51.4%
 TRAVEL (Ang.)       0.2690         C 12 -- N 17          +8.9% ( 40.0%)     96.0%
 REDUCED MASS        0.6272         C 13 -- C 14          +7.8% ( 37.4%)      6.3%
 EFFECTIVE MASS      6.9377
 FORCE CONSTANT      0.8161

 VIBRATION         60   60A           ATOM PAIR      ENERGY CONTRIBUTION    RADIAL
 FREQUENCY          1516.68         N  3 -- O  5         +32.8% ( 81.1%)     70.2%
 TRANSITION DIPOLE   8.5867         N  3 -- O  4         +25.7% ( 71.7%)     44.8%
 TRAVEL (Ang.)       0.0914         N  3 -- C  7         +23.4% ( 68.5%)     97.8%
 REDUCED MASS        5.3236         O  4 -- O  5         +10.2% ( 45.3%)     99.2%
 EFFECTIVE MASS     14.0862
 FORCE CONSTANT      7.2151

 VIBRATION         61   61A           ATOM PAIR      ENERGY CONTRIBUTION    RADIAL
 FREQUENCY          1550.35         C 12 -- C 13         +15.3% ( 53.7%)     71.1%
 TRANSITION DIPOLE   2.2478         C 13 -- C 14         +15.1% ( 53.4%)     57.3%
 TRAVEL (Ang.)       0.1777         C 13 -- C 21         +11.4% ( 46.5%)     99.6%
 REDUCED MASS        1.3776         N 17 -- H 28          +9.8% ( 43.0%)      9.9%
 EFFECTIVE MASS      8.8935
 FORCE CONSTANT      1.9509

 VIBRATION         62   62A           ATOM PAIR      ENERGY CONTRIBUTION    RADIAL
 FREQUENCY          1559.45         N 17 -- H 28         +21.3% ( 61.1%)      5.5%
 TRANSITION DIPOLE   3.3837         O 27 -- H 28         +20.7% ( 60.3%)     62.6%
 TRAVEL (Ang.)       0.2555         C 14 -- C 15          +8.2% ( 38.0%)     75.5%
 REDUCED MASS        0.6622         C 13 -- C 14          +8.2% ( 38.0%)     69.7%
 EFFECTIVE MASS      6.3356
 FORCE CONSTANT      0.9488

 VIBRATION         63   63A           ATOM PAIR      ENERGY CONTRIBUTION    RADIAL
 FREQUENCY          1592.28         N  3 -- O  4         +38.1% ( 86.9%)     93.3%
 TRANSITION DIPOLE   9.7478         N  3 -- O  5         +31.9% ( 79.6%)     79.2%
 TRAVEL (Ang.)       0.0803         N  3 -- C  7         +21.9% ( 65.8%)      1.8%
 REDUCED MASS        6.5596         O  4 -- O  5          +6.2% ( 35.1%)      4.3%
 EFFECTIVE MASS     14.0720
 FORCE CONSTANT      9.7987

 VIBRATION         64   64A           ATOM PAIR      ENERGY CONTRIBUTION    RADIAL
 FREQUENCY          1673.21         C 15 -- C 16         +19.3% ( 61.7%)     99.9%
 TRANSITION DIPOLE   0.4801         C 12 -- C 13         +14.9% ( 54.3%)     98.2%
 TRAVEL (Ang.)       0.1308         C 12 -- N 17         +10.1% ( 44.8%)     60.5%
 REDUCED MASS        2.3572         C 14 -- C 15          +9.9% ( 44.1%)     55.3%
 EFFECTIVE MASS     11.7082
 FORCE CONSTANT      3.8881

 VIBRATION         65   65A           ATOM PAIR      ENERGY CONTRIBUTION    RADIAL
 FREQUENCY          1677.95         C 13 -- C 14         +18.5% ( 60.9%)     89.4%
 TRANSITION DIPOLE   0.6234         C 14 -- C 15         +15.3% ( 55.4%)     82.4%
 TRAVEL (Ang.)       0.1261         C 16 -- N 17         +13.7% ( 52.5%)     94.7%
 REDUCED MASS        2.5271         C 12 -- N 17         +10.7% ( 46.4%)     81.4%
 EFFECTIVE MASS     12.3470
 FORCE CONSTANT      4.1921

 VIBRATION         66   66A           ATOM PAIR      ENERGY CONTRIBUTION    RADIAL
 FREQUENCY          1838.22         C  1 -- C 10         +45.7% ( 99.2%)     99.5%
 TRANSITION DIPOLE   1.6608         C  1 -- C  7         +16.6% ( 59.9%)     47.0%
 TRAVEL (Ang.)       0.0804         C  1 -- H  2         +15.7% ( 58.2%)      8.3%
 REDUCED MASS        5.6690         H  6 -- C 10         +10.7% ( 48.0%)     18.3%
 EFFECTIVE MASS     11.9040         C 10 -- H 11         +10.6% ( 47.8%)     20.1%
 FORCE CONSTANT     11.2862

 VIBRATION         67   67A           ATOM PAIR      ENERGY CONTRIBUTION    RADIAL
 FREQUENCY          2641.53         C 21 -- H 23         +67.0% ( 84.5%)     99.6%
 TRANSITION DIPOLE   0.9763         C 21 -- H 22         +16.8% ( 42.3%)     86.7%
 TRAVEL (Ang.)       0.2230         C 21 -- H 24         +15.3% ( 40.4%)     85.6%
 REDUCED MASS        0.5135         C 13 -- C 21          +0.8% (  9.3%)      0.1%
 EFFECTIVE MASS      1.4303
 FORCE CONSTANT      2.1110

 VIBRATION         68   68A           ATOM PAIR      ENERGY CONTRIBUTION    RADIAL
 FREQUENCY          2645.76         C 21 -- H 24         +49.9% ( 73.0%)     98.0%
 TRANSITION DIPOLE   0.9582         C 21 -- H 22         +48.3% ( 71.7%)     98.0%
 TRAVEL (Ang.)       0.2266         C 13 -- C 21          +0.9% (  9.6%)      0.0%
 REDUCED MASS        0.4962         C 21 -- H 23          +0.8% (  9.4%)      0.4%
 EFFECTIVE MASS      1.4392
 FORCE CONSTANT      2.0463

 VIBRATION         69   69A           ATOM PAIR      ENERGY CONTRIBUTION    RADIAL
 FREQUENCY          2685.44         C  7 -- H  8         +91.2% ( 96.4%)    100.0%
 TRANSITION DIPOLE   1.0453         C  1 -- H  2          +5.5% ( 23.7%)     98.2%
 TRAVEL (Ang.)       0.1755         C  1 -- C  7          +0.8% (  9.2%)     15.1%
 REDUCED MASS        0.8157         C 10 -- H 11          +0.8% (  8.9%)     99.9%
 EFFECTIVE MASS      1.3418
 FORCE CONSTANT      3.4658

 VIBRATION         70   70A           ATOM PAIR      ENERGY CONTRIBUTION    RADIAL
 FREQUENCY          2697.22         C 12 -- H 18         +87.6% ( 94.6%)    100.0%
 TRANSITION DIPOLE   1.5753         C 16 -- H 20          +9.6% ( 31.4%)    100.0%
 TRAVEL (Ang.)       0.1819         C 12 -- C 13          +1.0% ( 10.1%)     26.4%
 REDUCED MASS        0.7555         C 12 -- N 17          +1.0% (  9.9%)     11.3%
 EFFECTIVE MASS      1.3768
 FORCE CONSTANT      3.2382

 VIBRATION         71   71A           ATOM PAIR      ENERGY CONTRIBUTION    RADIAL
 FREQUENCY          2703.26         C 16 -- H 20         +81.5% ( 91.3%)    100.0%
 TRANSITION DIPOLE   1.3184         C 12 -- H 18          +8.5% ( 29.4%)     99.9%
 TRAVEL (Ang.)       0.1945         C 15 -- H 19          +5.5% ( 23.7%)     99.6%
 REDUCED MASS        0.6596         C 16 -- N 17          +1.0% (  9.9%)     14.8%
 EFFECTIVE MASS      1.3980
 FORCE CONSTANT      2.8400

 VIBRATION         72   72A           ATOM PAIR      ENERGY CONTRIBUTION    RADIAL
 FREQUENCY          2704.11         H  6 -- C 10         +37.4% ( 62.9%)     98.6%
 TRANSITION DIPOLE   0.4713         C 10 -- H 11         +35.6% ( 61.4%)     98.6%
 TRAVEL (Ang.)       0.2811         C  1 -- H  2         +20.9% ( 47.1%)     99.9%
 REDUCED MASS        0.3157         C  7 -- H  8          +3.4% ( 19.0%)     99.7%
 EFFECTIVE MASS      1.4378
 FORCE CONSTANT      1.3601

 VIBRATION         73   73A           ATOM PAIR      ENERGY CONTRIBUTION    RADIAL
 FREQUENCY          2716.59         C 14 -- H 25         +85.9% ( 93.7%)    100.0%
 TRANSITION DIPOLE   0.9709         C 15 -- H 19         +11.6% ( 34.5%)     99.9%
 TRAVEL (Ang.)       0.1842         C 14 -- C 15          +1.0% ( 10.0%)      6.4%
 REDUCED MASS        0.7312         C 13 -- C 14          +1.0% (  9.9%)     18.4%
 EFFECTIVE MASS      1.3843
 FORCE CONSTANT      3.1794

 VIBRATION         74   74A           ATOM PAIR      ENERGY CONTRIBUTION    RADIAL
 FREQUENCY          2733.66         C  1 -- H  2         +69.9% ( 84.5%)    100.0%
 TRANSITION DIPOLE   1.2652         C 10 -- H 11         +15.2% ( 39.4%)     98.8%
 TRAVEL (Ang.)       0.2187         H  6 -- C 10         +10.2% ( 32.2%)     98.0%
 REDUCED MASS        0.5156         C  7 -- H  8          +2.3% ( 15.4%)     99.4%
 EFFECTIVE MASS      1.4460
 FORCE CONSTANT      2.2703

 VIBRATION         75   75A           ATOM PAIR      ENERGY CONTRIBUTION    RADIAL
 FREQUENCY          2737.25         C 15 -- H 19         +79.1% ( 89.7%)    100.0%
 TRANSITION DIPOLE   1.3379         C 14 -- H 25         +10.2% ( 32.2%)     99.8%
 TRAVEL (Ang.)       0.1991         C 16 -- H 20          +4.9% ( 22.4%)     99.2%
 REDUCED MASS        0.6216         H 26 -- O 27          +1.1% ( 10.7%)     99.8%
 EFFECTIVE MASS      1.4186
 FORCE CONSTANT      2.7442

 VIBRATION         76   76A           ATOM PAIR      ENERGY CONTRIBUTION    RADIAL
 FREQUENCY          2743.59         H 26 -- O 27         +97.7% ( 97.7%)     99.8%
 TRANSITION DIPOLE   1.6092         C 15 -- H 19          +1.0% (  9.7%)    100.0%
 TRAVEL (Ang.)       0.1660         O 27 -- H 28          +0.5% (  6.9%)     11.9%
 REDUCED MASS        0.8923         N 17 -- H 28          +0.3% (  5.4%)     74.5%
 EFFECTIVE MASS      1.3223
 FORCE CONSTANT      3.9574

 VIBRATION         77   77A           ATOM PAIR      ENERGY CONTRIBUTION    RADIAL
 FREQUENCY          2770.05         C 21 -- H 22         +33.9% ( 55.7%)     95.7%
 TRANSITION DIPOLE   0.8093         C 21 -- H 24         +33.9% ( 55.7%)     95.6%
 TRAVEL (Ang.)       0.2755         C 21 -- H 23         +31.0% ( 53.2%)     94.9%
 REDUCED MASS        0.3208         C 15 -- H 19          +0.3% (  5.5%)    100.0%
 EFFECTIVE MASS      1.1498
 FORCE CONSTANT      1.4504

 VIBRATION         78   78A           ATOM PAIR      ENERGY CONTRIBUTION    RADIAL
 FREQUENCY          2784.14         H  6 -- C 10         +51.2% ( 70.7%)     95.4%
 TRANSITION DIPOLE   1.1873         C 10 -- H 11         +47.3% ( 68.0%)     94.8%
 TRAVEL (Ang.)       0.2244         C  1 -- C 10          +1.1% ( 10.5%)    100.0%
 REDUCED MASS        0.4812         C  7 -- H  8          +0.2% (  4.1%)     96.9%
 EFFECTIVE MASS      1.3118
 FORCE CONSTANT      2.1975

      SYMMETRY NUMBER FOR POINT-GROUP C1  =  1


          SYSTEM IS A GROUND STATE



 Title: ASE calculation


          MOLECULE IS NOT LINEAR

          THERE ARE 78 GENUINE VIBRATIONS IN THIS SYSTEM
          THIS THERMODYNAMICS CALCULATION IS LIMITED TO
          MOLECULES WHICH HAVE NO INTERNAL ROTATIONS




                    CALCULATED THERMODYNAMIC PROPERTIES
                                          *
   TEMP. (K)   PARTITION FUNCTION   H.O.F.    ENTHALPY  HEAT CAPACITY ENTROPY
                                   KCAL/MOL   CAL/MOLE    CAL/K/MOL  CAL/K/MOL


 298.00  VIB.     0.4912D+07                  8697.2530    52.8640    59.8027
         ROT.     0.4009D+07                   888.2803     2.9808    33.1946
         INT.     0.1969D+14                  9585.5333    55.8449    92.9973
         TRA.     0.2719D+28                  1480.4672     4.9680    41.7704
         TOT.                      -43.896   11066.0004    60.8129   134.7676

   *: NOTE: HEATS OF FORMATION ARE RELATIVE TO THE
            ELEMENTS IN THEIR STANDARD STATE AT 298K
              (=  Standard Enthalpy of Formation).

            Hvib:  Zero-point energy is not included.
                   frequencies of less than zero cm-1 are not included.
            Hrot = (3/2)RT
            Htra = (3/2)RT + pV = (5/2)RT

            Heat capacity is Cp, not Cv

          For more information, see: HTTP://OpenMOPAC.net/Manual/thermochemistry.html


           FORCE CONSTANT IN CARTESIAN COORDINATES (Millidynes/A)

    ATOM   CHEMICAL       X               Y               Z
   NUMBER   SYMBOL  FORCE CONSTANT  FORCE CONSTANT  FORCE CONSTANT

      1       C        9.175430       13.644425        2.149121
      2       H        4.159791        0.989442        0.373515
      3       N       12.649448       12.445013        3.987208
      4       O       10.451224        1.744153        1.093520
      5       O        2.869256        9.279583        1.007333
      6       H        4.184840        0.770903        0.331790
      7       C        6.951787        9.596317        2.881553
      8       H        2.899864        0.877497        1.463476
      9       H       -0.820223        0.637759       -0.461687
     10       C        8.505684       12.166360        1.882126
     11       H        1.271825        3.667153        0.335914
     12       C        6.085266        9.560868        7.802699
     13       C        6.694195       11.046460        7.529614
     14       C        5.803223       10.330000        7.108345
     15       C        6.302453        9.389445        7.872782
     16       C        6.432872       10.692759        7.019644
     17       N        4.537043       10.942661        6.263284
     18       H        0.826636        3.823616        0.684385
     19       H        0.774038        3.958467        0.705458
     20       H        1.275731        1.757358        2.327492
     21       C        6.180286        6.523641        6.726970
     22       H        1.381654        1.596312        2.335957
     23       H        2.132480        1.941247        1.154458
     24       H        2.025340        1.733752        1.523460
     25       H        2.068500        1.474377        1.889417
     26       H        0.678738        2.470147        1.670993
     27       O        1.230323        3.369631        2.555998
     28       H        0.255873        1.171525        0.562816

 **********************
 *                    *
 * JOB ENDED NORMALLY *
 *                    *
 **********************



 TOTAL JOB TIME:             3.84 SECONDS

 == MOPAC DONE ==
