 *******************************************************************************
 **                                                                           **
 **                              MOPAC v22.0.6                                **
 **                                                                           **
 *******************************************************************************
 **          Digital Object Identifier (DOI): 10.5281/zenodo.6511958          **
 **    Visit the DOI location for information on how to cite this program.    **
 *******************************************************************************

                              PM7 CALCULATION RESULTS

 *******************************************************************************
 *  CALCULATION DONE:                                Mon Mar 25 21:52:22 2024  *
 *  PM7        - The PM7 Hamiltonian to be used
 *  SINGLET    - SPIN STATE DEFINED AS A SINGLET
 *
 *
 *
 *                 CHARGE ON SYSTEM = 0
 *
 *
 *
 *  EPS=78.0   - USE ANDREAS KLAMT'S COSMO IMPLICIT SOLVATION MODEL
 *  LET        - OVERRIDE SOME SAFETY CHECKS
 *  THREADS    - USE A MAXIMUM OF 30 THREADS
 *  T=         - A TIME OF 14.0 DAYS REQUESTED
 *  DUMP=N     - RESTART FILE WRITTEN EVERY 30.0 MINUTES REQUESTED
 *  RELSCF     - DEFAULT SCF CRITERION MULTIPLIED BY 1.0000
 *              (DEFAULT SCF CRITERION = 0.00010)
 *  ITRY=      - DO A MAXIMUM OF 15000 ITERATIONS FOR SCF
 *  AUX        - OUTPUT AUXILIARY INFORMATION
 *  ISOTOPE    - SAVE THE FORCE MATRIX FOR USE LATER
 *  BONDS      - FINAL BOND-ORDER MATRIX TO BE PRINTED
 *  LARGE      - EXPANDED OUTPUT TO BE PRINTED
 *  THERMO     - THERMODYNAMIC QUANTITIES TO BE CALCULATED
 *******************************************************************************
PM7 AUX LARGE THERMO(298,298) LET ISOTOPE BONDS DUMP=30M ITRY=15000 T=14D THREADS=30 CHARGE=0 SINGLET eps=78.0 RELSCF=1
 Title: ASE calculation

   ATOM   CHEMICAL          X               Y               Z
  NUMBER   SYMBOL      (ANGSTROMS)     (ANGSTROMS)     (ANGSTROMS)

     1       C          0.72639248  *  -1.04944962  *   0.60186839  *
     2       H          1.02434017  *  -0.49223254  *  -0.30737282  *
     3       H          0.38611100  *  -0.31463160  *   1.36248865  *
     4       D          1.63459228  *  -1.54619213  *   1.01398603  *
     5       N         -0.30949291  *  -2.03110413  *   0.32256966  *
     6       O         -0.78469009  *  -2.67391933  *   1.24851500  *
     7       O         -0.68163097  *  -2.19529839  *  -0.82883340  *
     8       H          4.12862444  *  -1.00578091  *   1.00173100  *
     9       O          3.60992920  *  -0.93931695  *   1.81379878  *
    10       H          3.41710169  *   0.00290551  *   1.89170412  *


                                Isotopes Used

              Atom:    4  H  Default mass  1.0079,  mass used:  2.0140 amu


          CARTESIAN COORDINATES 

    NO.       ATOM           X           Y           Z

     1         C          0.7264     -1.0494      0.6019
     2         H          1.0243     -0.4922     -0.3074
     3         H          0.3861     -0.3146      1.3625
     4         H          1.6346     -1.5462      1.0140
     5         N         -0.3095     -2.0311      0.3226
     6         O         -0.7847     -2.6739      1.2485
     7         O         -0.6816     -2.1953     -0.8288
     8         H          4.1286     -1.0058      1.0017
     9         O          3.6099     -0.9393      1.8138
    10         H          3.4171      0.0029      1.8917

 General Reference for PM7:
 "Optimization of Parameters for Semiempirical Methods VI: More Modifications to the 
 NDDO Approximations and Re-optimization of Parameters", J. J. P. Stewart, J. Mol. Mod., 1:32, 19 (2013)
 https://link.springer.com/article/10.1007/s00894-012-1667-x

           Empirical Formula: C H5 N O3  =    10 atoms



      MOLECULAR POINT GROUP   :   C1  


 SINGLET STATE CALCULATION


      RHF CALCULATION, NO. OF DOUBLY OCCUPIED LEVELS = 16

  SCF CRITERION =    0.1000E-03


          HEAT OF FORMATION =     -92.488552 KCALS/MOLE


          CARTESIAN COORDINATE DERIVATIVES

   NUMBER  ATOM         X            Y            Z

     1       C      0.117294    -0.335332    -0.261792
     2       H     -0.692480    -0.124302    -0.114754
     3       H      0.120025    -0.317885     0.033333
     4       H      0.225971     0.393857    -0.792469
     5       N      1.339784    -0.393884     0.303814
     6       O      0.333484    -0.030123     0.022350
     7       O     -1.331865     1.037304     1.252195
     8       H     -0.180889    -0.184053     0.114285
     9       O      0.225646     0.072603    -0.422155
    10       H     -0.156971    -0.118186    -0.134812

 DIPOLE           X         Y         Z       TOTAL
 POINT-CHG.     4.151     3.504     4.804     7.252
 HYBRID         0.122    -0.130    -0.332     0.376
 SUM            4.273     3.374     4.472     7.046


          GRADIENT NORM =   2.93214


                              **** WARNING ****

           GRADIENT IS VERY LARGE FOR A THERMO CALCULATION
           RESULTS ARE LIKELY TO BE INACCURATE IF THERE ARE
           ANY LOW-LYING VIBRATIONS (LESS THAN ABOUT 400CM-1)
           GRADIENT NORM SHOULD BE LESS THAN ABOUT 1.0 FOR THERMO
           TO GIVE ACCURATE RESULTS


          TIME FOR SCF CALCULATION =    0.02

          TIME FOR DERIVATIVES     =    0.02

          MOLECULAR WEIGHT =   80.06



          ROTATIONAL CONSTANTS IN CM(-1)

          A =    0.34685102   B =    0.05504150   C =    0.05014674



           PRINCIPAL MOMENTS OF INERTIA IN UNITS OF 10**(-40)*GRAM-CM**2

          A =       80.7054   B =      508.5754   C =      558.2167


          ORIENTATION OF MOLECULE IN FORCE CALCULATION

    NO.       ATOM         X         Y         Z

     1          C       0.4237    0.5398    0.1088
     2          H       1.5309    0.5398    0.1088
     3          H       0.0773    1.5954    0.1088
     4          H       0.0797    0.0853    1.0661
     5          N      -0.1197   -0.1892   -1.0261
     6          O      -1.3315   -0.2139   -1.1919
     7          O       0.6430   -0.7629   -1.7879
     8          H       1.0328   -0.0386    3.4302
     9          O       0.2598    0.5064    3.2341
    10          H       0.6181    1.3981    3.1479


    FIRST DERIVATIVES WILL BE USED IN THE CALCULATION OF SECOND DERIVATIVES

          ESTIMATED TIME TO COMPLETE CALCULATION =        1.88 SECONDS

    FOR POINT-GROUP C1   THERE ARE   1 UNIQUE SYMMETRY FUNCTIONS.

 STEP:   1 TIME =     0.04 SECS, INTEGRAL =      0.04 TIME LEFT:1209599.93
 STEP:   2 TIME =     0.03 SECS, INTEGRAL =      0.07 TIME LEFT:1209599.90
 STEP:   3 TIME =     0.02 SECS, INTEGRAL =      0.09 TIME LEFT:1209599.88
 STEP:   4 TIME =     0.02 SECS, INTEGRAL =      0.10 TIME LEFT:1209599.87
 STEP:   5 TIME =     0.02 SECS, INTEGRAL =      0.12 TIME LEFT:1209599.85
 STEP:   6 TIME =     0.02 SECS, INTEGRAL =      0.13 TIME LEFT:1209599.84
 STEP:   7 TIME =     0.01 SECS, INTEGRAL =      0.14 TIME LEFT:1209599.83
 STEP:   8 TIME =     0.02 SECS, INTEGRAL =      0.16 TIME LEFT:1209599.81
 STEP:   9 TIME =     0.02 SECS, INTEGRAL =      0.17 TIME LEFT:1209599.80
 STEP:  10 TIME =     0.02 SECS, INTEGRAL =      0.19 TIME LEFT:1209599.78
 STEP:  11 TIME =     0.02 SECS, INTEGRAL =      0.20 TIME LEFT:1209599.77
 STEP:  12 TIME =     0.02 SECS, INTEGRAL =      0.22 TIME LEFT:1209599.75
 STEP:  13 TIME =     0.01 SECS, INTEGRAL =      0.23 TIME LEFT:1209599.74
 STEP:  14 TIME =     0.01 SECS, INTEGRAL =      0.23 TIME LEFT:1209599.73
 STEP:  15 TIME =     0.02 SECS, INTEGRAL =      0.25 TIME LEFT:1209599.72
 STEP:  16 TIME =     0.01 SECS, INTEGRAL =      0.26 TIME LEFT:1209599.71
 STEP:  17 TIME =     0.01 SECS, INTEGRAL =      0.27 TIME LEFT:1209599.70
 STEP:  18 TIME =     0.02 SECS, INTEGRAL =      0.28 TIME LEFT:1209599.69
 STEP:  19 TIME =     0.01 SECS, INTEGRAL =      0.29 TIME LEFT:1209599.68
 STEP:  20 TIME =     0.01 SECS, INTEGRAL =      0.30 TIME LEFT:1209599.67
 STEP:  21 TIME =     0.02 SECS, INTEGRAL =      0.31 TIME LEFT:1209599.66
 STEP:  22 TIME =     0.01 SECS, INTEGRAL =      0.32 TIME LEFT:1209599.65
 STEP:  23 TIME =     0.02 SECS, INTEGRAL =      0.34 TIME LEFT:1209599.63
 STEP:  24 TIME =     0.01 SECS, INTEGRAL =      0.34 TIME LEFT:1209599.62
 STEP:  25 TIME =     0.01 SECS, INTEGRAL =      0.35 TIME LEFT:1209599.62
 STEP:  26 TIME =     0.02 SECS, INTEGRAL =      0.37 TIME LEFT:1209599.60
 STEP:  27 TIME =     0.01 SECS, INTEGRAL =      0.38 TIME LEFT:1209599.59
 STEP:  28 TIME =     0.01 SECS, INTEGRAL =      0.38 TIME LEFT:1209599.59
 STEP:  29 TIME =     0.02 SECS, INTEGRAL =      0.40 TIME LEFT:1209599.57
 STEP:  30 TIME =     0.01 SECS, INTEGRAL =      0.41 TIME LEFT:1209599.56

(To convert to Hartree/Bohr^2, multiply by (10^(-21) x N x a0^2)/(4.184 x 627.51) =  0.0642)


           FORCE MATRIX IN MILLIDYNES/ANGSTROM


                  C  1       H  2       H  3       H  4       N  5       O  6
 ------------------------------------------------------------------------------
     C    1  11.154166
     H    2   3.257440   4.089595
     H    3   3.180286   0.428790   4.032482
     H    4   3.054580   0.433117   0.437599   3.922736
     N    5   3.483422   0.880707   0.919139   0.939099  19.084137
     O    6   1.308041   0.089185   0.048016   0.071397   9.264520  12.080537
     O    7   1.309904   0.047364   0.081453   0.083383   9.364496   2.762024
     H    8   0.025592   0.007941   0.006934   0.039741   0.022185   0.005849
     O    9   0.090703   0.015946   0.017156   0.028892   0.046056   0.014241
     H   10   0.021919   0.006513   0.010691   0.033466   0.022894   0.006449


                  O  7       H  8       O  9       H 10
 ------------------------------------------------------
     O    7  12.139528
     H    8   0.010203   4.292490
     O    9   0.018623   3.855207   6.040280
     H   10   0.007582   0.803370   3.885702   4.310387


          HEAT OF FORMATION =     -92.488552 KCALS/MOLE


          TRIVIAL VIBRATIONS, SHOULD BE ZERO

  -7.0914=TX -43.2094=TY -22.3636=TZ -44.1330=RX  36.7465=RY -19.9613=RZ


      MOLECULAR POINT GROUP   :   C1  


           EIGENVECTORS  


   Root No.       1         2         3         4         5         6         7         8

                 1 A       2 A       3 A       4 A       5 A       6 A       7 A       8 A   

                  -0.0      -0.0      -0.0       0.0       0.0       0.0       0.2       0.6
  
           1   -0.0217    0.0272    0.2050    0.0772   -0.0481    0.0089    0.0035    0.1436
           2   -0.0688   -0.1506   -0.0554    0.1333   -0.0777    0.0677   -0.0075   -0.0313
           3    0.0326    0.0633   -0.0424   -0.1188   -0.1616   -0.0811   -0.0022   -0.0417
           4   -0.0215    0.0257    0.2063    0.0759   -0.0467    0.0089    0.0081    0.1178
           5    0.0465   -0.4159    0.0710    0.0238   -0.0627    0.0730    0.0127    0.3288
           6   -0.0049    0.1881   -0.3788   -0.1303   -0.1614   -0.1176   -0.0293    0.5150
           7   -0.1262    0.2938    0.0771    0.1872   -0.0638    0.0103   -0.0009   -0.1312
           8   -0.1027   -0.0570   -0.0987    0.1749   -0.0823    0.0694   -0.0059   -0.1077
           9    0.1376    0.0342    0.2142   -0.4198   -0.1084   -0.1319   -0.0193   -0.3111
          10    0.0532   -0.2150    0.5559    0.0297   -0.0314    0.0368    0.0120   -0.1031
          11   -0.1927   -0.0735   -0.2321    0.4478   -0.1260    0.1078   -0.0210   -0.2228
          12   -0.0007    0.0073    0.0002    0.0096   -0.1808   -0.0489   -0.0210   -0.2078
          13    0.0186   -0.0188   -0.0545   -0.0107   -0.0226   -0.0225    0.0142    0.1437
          14   -0.0029    0.0464    0.0254   -0.0903   -0.0166    0.0159    0.0002   -0.0257
          15   -0.0291   -0.0408    0.0300    0.0689   -0.2156   -0.0329   -0.0242   -0.0461
          16    0.0072   -0.0430   -0.0849   -0.0431   -0.0134   -0.0285    0.0189    0.0630
          17   -0.2273   -0.1812    0.1115   -0.3736    0.0564   -0.0106    0.0204    0.2256
          18    0.0890    0.1713    0.2463    0.3470   -0.2923    0.0161   -0.0478    0.3463
          19    0.0675   -0.0227   -0.2321   -0.0506   -0.0072   -0.0424    0.0280   -0.2351
          20    0.3118    0.4815   -0.0090    0.0682   -0.0277    0.0048    0.0050   -0.1789
          21   -0.2173   -0.3731   -0.1231   -0.0898   -0.1924   -0.0443   -0.0108   -0.2735
          22   -0.4611    0.1897   -0.1473   -0.1636    0.0898    0.0236    0.0465    0.0027
          23   -0.1671    0.2475    0.1040   -0.2154    0.0960    0.0523   -0.0528    0.0059
          24    0.1315    0.0198    0.0011   -0.0710    0.3228    0.7800   -0.3406    0.0007
          25   -0.0706    0.0194   -0.2080   -0.1075    0.0885    0.0313   -0.1475   -0.0007
          26    0.3292    0.0016    0.0175   -0.0718    0.1017   -0.1712    0.1142    0.0038
          27   -0.0379    0.0148    0.0025    0.1039    0.3612    0.1313    0.8433    0.0110
          28    0.5546   -0.2562   -0.3174    0.0054    0.0549   -0.0264    0.0170   -0.0007
          29    0.0740    0.1014    0.0659   -0.0969    0.1389   -0.2090   -0.0652    0.0023
          30   -0.1006   -0.0850    0.0500    0.3004    0.6284   -0.4706   -0.3481    0.0072


   Root No.       9        10        11        12        13        14        15        16

                 9 A      10 A      11 A      12 A      13 A      14 A      15 A      16 A   

                   0.7       1.0       1.2       1.4       2.0       2.6       3.2       4.2
  
           1   -0.0153    0.1890   -0.0246   -0.0720    0.0002    0.2297    0.1346   -0.0009
           2   -0.1242   -0.0770   -0.3230   -0.0707   -0.0022   -0.0729    0.1762   -0.0237
           3    0.0896   -0.0691    0.2204   -0.1414    0.0000   -0.0859    0.2629    0.0054
           4   -0.0152    0.1989   -0.0263   -0.1108    0.0009    0.4940    0.4326   -0.0168
           5   -0.2393   -0.0747    0.5086    0.2403   -0.0009    0.1192   -0.0437    0.0203
           6    0.1485   -0.2094   -0.2868    0.4127    0.0036    0.1748   -0.0547   -0.0225
           7   -0.3844   -0.3152    0.3596    0.2711    0.0028   -0.0451   -0.1714    0.0441
           8   -0.2414   -0.2498   -0.2438    0.0173   -0.0014   -0.3352    0.3484   -0.2757
           9   -0.3801    0.4129   -0.1644    0.3495    0.0006   -0.0289   -0.0608   -0.1095
          10    0.4035   -0.3542   -0.2888    0.2828    0.0034   -0.0525   -0.1612   -0.0371
          11    0.2552    0.4907   -0.0166    0.3089    0.0020    0.1151   -0.2023   -0.0231
          12    0.4123    0.0066    0.3295    0.1276    0.0016   -0.2651    0.2888    0.3338
          13   -0.0111    0.1792   -0.0198   -0.0794   -0.0032   -0.3208    0.0390    0.0440
          14   -0.0799   -0.0608   -0.1737   -0.1017   -0.0015    0.0809    0.0718    0.6824
          15    0.0593   -0.0610    0.1175   -0.1659    0.0030    0.0893    0.1057   -0.4692
          16    0.0126    0.1440    0.0041   -0.0761   -0.0026   -0.3002    0.0858   -0.0220
          17    0.2451    0.1101    0.1418   -0.2182    0.0016   -0.1333   -0.2466   -0.1985
          18   -0.1605    0.1444   -0.1182   -0.3067   -0.0042   -0.2292   -0.3491    0.1312
          19    0.0088   -0.0420   -0.0052   -0.2130   -0.0008   -0.0073   -0.3601   -0.0084
          20    0.1901   -0.1380    0.1080   -0.1724    0.0026    0.2274   -0.1037   -0.1823
          21   -0.1231   -0.2276   -0.0794   -0.2736    0.0025    0.3384   -0.1911    0.1290
          22    0.0066    0.0011    0.0026   -0.0005    0.0898   -0.0015   -0.0007    0.0007
          23    0.0000    0.0020    0.0003   -0.0052    0.6034   -0.0037   -0.0008   -0.0024
          24   -0.0082    0.0023   -0.0022   -0.0015   -0.0799    0.0032   -0.0011   -0.0008
          25    0.0028   -0.0029    0.0027   -0.0023   -0.4743    0.0040   -0.0011   -0.0082
          26   -0.0062    0.0005   -0.0040    0.0015   -0.1466    0.0014    0.0007   -0.0004
          27   -0.0183    0.0088   -0.0193    0.0109   -0.0534    0.0021   -0.0019    0.0025
          28   -0.0083    0.0021   -0.0043    0.0002    0.3839   -0.0004    0.0024    0.0047
          29    0.0006   -0.0030    0.0025    0.0001   -0.4569    0.0011   -0.0000    0.0033
          30   -0.0195   -0.0080    0.0029   -0.0116    0.1261    0.0013    0.0013    0.0001


   Root No.      17        18        19        20        21        22        23        24

                17 A      18 A      19 A      20 A      21 A      22 A      23 A      24 A   

                   6.0       7.1       8.5       8.9       9.2       9.7      20.5      23.3
  
           1   -0.1034   -0.0044    0.1082    0.0078    0.5387    0.6178    0.0362   -0.0231
           2   -0.1581   -0.0075    0.5895   -0.0189   -0.4586    0.2731    0.0334    0.0073
           3   -0.2643    0.0133   -0.5301    0.0025   -0.4033    0.4118    0.0460    0.0091
           4    0.3600    0.0042   -0.0714   -0.0050   -0.3216   -0.3046    0.0166   -0.0054
           5    0.0353    0.0016   -0.0270    0.0006    0.0239   -0.0003    0.0059   -0.0102
           6    0.0559   -0.0001    0.0271   -0.0004    0.0224   -0.0003    0.0093   -0.0146
           7   -0.0800   -0.0014    0.1021   -0.0040   -0.1272   -0.0228   -0.0027    0.0057
           8    0.3590    0.0038   -0.3193    0.0108    0.2967   -0.0138    0.0221    0.0073
           9    0.0518   -0.0006    0.0332   -0.0011   -0.0020   -0.0055    0.0102    0.0074
          10   -0.0810    0.0034   -0.1396    0.0013   -0.0716   -0.0241   -0.0044    0.0060
          11   -0.1107    0.0047   -0.2040    0.0025   -0.0512   -0.0026   -0.0019    0.0024
          12    0.3424    0.0012    0.3503   -0.0035    0.1310   -0.0076    0.0266    0.0074
          13   -0.1678   -0.0015   -0.0001    0.0004    0.0229   -0.1650   -0.2703    0.7161
          14   -0.2314    0.0037   -0.1421    0.0054    0.1434   -0.1802   -0.3207   -0.2139
          15   -0.3330   -0.0115    0.1621   -0.0002    0.1618   -0.2690   -0.4993   -0.2376
          16   -0.3067   -0.0035    0.0259    0.0002    0.0718   -0.3004    0.5417   -0.4155
          17    0.1478   -0.0013    0.0343   -0.0015   -0.0524    0.0064    0.0152   -0.0083
          18    0.1768    0.0028   -0.0414   -0.0000   -0.0598   -0.0269    0.0805   -0.0564
          19    0.3796    0.0044   -0.0245   -0.0010   -0.1133    0.1993   -0.3173   -0.2834
          20   -0.0422   -0.0041    0.0676    0.0006    0.0976   -0.0820    0.2460    0.2151
          21   -0.0283   -0.0013   -0.0054    0.0027    0.1475   -0.1022    0.3274    0.2851
          22    0.0036   -0.4344    0.0001    0.3681   -0.0101    0.0013    0.0005   -0.0002
          23   -0.0018    0.3175    0.0008   -0.2615    0.0060   -0.0009   -0.0001    0.0002
          24   -0.0003   -0.1161   -0.0033    0.0944   -0.0042    0.0014    0.0009    0.0001
          25   -0.0047    0.6179    0.0065   -0.1873    0.0077   -0.0025   -0.0003    0.0001
          26   -0.0016    0.1750    0.0169    0.7068   -0.0100   -0.0017   -0.0002   -0.0001
          27   -0.0003    0.0659    0.0074   -0.1393    0.0082   -0.0028   -0.0024   -0.0004
          28    0.0004   -0.1847   -0.0072   -0.1806    0.0027    0.0011    0.0000   -0.0003
          29    0.0038   -0.4934   -0.0168   -0.4448    0.0046    0.0022    0.0003    0.0001
          30   -0.0007    0.0464    0.0001    0.0449   -0.0017    0.0010    0.0008   -0.0001


          FORCE CONSTANTS IN MILLIDYNES/ANGSTROM (= 10**5 DYNES/CM)

  -0.03605  -0.02823  -0.01452   0.00082   0.03369   0.04432   0.16364   0.63935
   0.72885   0.96741   1.21654   1.39776   1.97104   2.57856   3.22522   4.15743
   5.95946   7.13191   8.50075   8.93981   9.22684   9.73639  20.45648  23.32884


           ASSOCIATED EIGENVECTORS




    ROOT NO.    1           2           3           4           5           6

            -0.03605    -0.02823    -0.01452     0.00082     0.03369     0.04432
  
         1  -0.02174     0.02722     0.20502     0.07719    -0.04810     0.00886
         2  -0.06882    -0.15063    -0.05542     0.13335    -0.07775     0.06767
         3   0.03262     0.06333    -0.04240    -0.11882    -0.16164    -0.08111
         4  -0.02146     0.02569     0.20626     0.07594    -0.04675     0.00887
         5   0.04651    -0.41590     0.07097     0.02375    -0.06274     0.07297
         6  -0.00494     0.18808    -0.37883    -0.13035    -0.16137    -0.11758
         7  -0.12618     0.29376     0.07706     0.18718    -0.06378     0.01034
         8  -0.10269    -0.05704    -0.09866     0.17491    -0.08227     0.06937
         9   0.13757     0.03421     0.21421    -0.41977    -0.10842    -0.13193
        10   0.05320    -0.21502     0.55586     0.02975    -0.03136     0.03681
        11  -0.19274    -0.07350    -0.23207     0.44775    -0.12596     0.10777
        12  -0.00068     0.00735     0.00021     0.00961    -0.18076    -0.04894
        13   0.01856    -0.01884    -0.05448    -0.01067    -0.02259    -0.02249
        14  -0.00287     0.04637     0.02536    -0.09025    -0.01657     0.01593
        15  -0.02914    -0.04078     0.03003     0.06888    -0.21556    -0.03290
        16   0.00721    -0.04300    -0.08492    -0.04311    -0.01342    -0.02847
        17  -0.22727    -0.18122     0.11151    -0.37362     0.05636    -0.01062
        18   0.08898     0.17127     0.24631     0.34699    -0.29229     0.01615
        19   0.06751    -0.02273    -0.23208    -0.05060    -0.00724    -0.04242
        20   0.31181     0.48150    -0.00899     0.06823    -0.02771     0.00484
        21  -0.21731    -0.37308    -0.12314    -0.08983    -0.19238    -0.04434
        22  -0.46114     0.18972    -0.14726    -0.16364     0.08981     0.02356
        23  -0.16711     0.24753     0.10396    -0.21541     0.09603     0.05231
        24   0.13146     0.01980     0.00109    -0.07101     0.32276     0.77995
        25  -0.07059     0.01942    -0.20802    -0.10748     0.08850     0.03129
        26   0.32920     0.00156     0.01750    -0.07179     0.10174    -0.17124
        27  -0.03792     0.01479     0.00249     0.10387     0.36125     0.13132
        28   0.55464    -0.25623    -0.31743     0.00544     0.05492    -0.02635
        29   0.07398     0.10136     0.06585    -0.09692     0.13888    -0.20901
        30  -0.10064    -0.08497     0.05003     0.30041     0.62842    -0.47062




    ROOT NO.    7           8           9          10          11          12

             0.16364     0.63935     0.72885     0.96741     1.21654     1.39776
  
         1   0.00354     0.14363    -0.01531     0.18903    -0.02458    -0.07200
         2  -0.00751    -0.03130    -0.12417    -0.07700    -0.32296    -0.07069
         3  -0.00217    -0.04173     0.08955    -0.06906     0.22037    -0.14139
         4   0.00812     0.11778    -0.01524     0.19887    -0.02627    -0.11081
         5   0.01272     0.32878    -0.23932    -0.07467     0.50855     0.24034
         6  -0.02934     0.51496     0.14853    -0.20942    -0.28682     0.41272
         7  -0.00087    -0.13119    -0.38438    -0.31520     0.35960     0.27113
         8  -0.00594    -0.10770    -0.24143    -0.24976    -0.24379     0.01730
         9  -0.01929    -0.31106    -0.38010     0.41294    -0.16441     0.34945
        10   0.01199    -0.10310     0.40353    -0.35416    -0.28881     0.28276
        11  -0.02103    -0.22279     0.25519     0.49072    -0.01662     0.30891
        12  -0.02098    -0.20779     0.41227     0.00660     0.32951     0.12761
        13   0.01424     0.14370    -0.01113     0.17923    -0.01982    -0.07940
        14   0.00018    -0.02574    -0.07989    -0.06084    -0.17373    -0.10173
        15  -0.02421    -0.04612     0.05928    -0.06098     0.11747    -0.16590
        16   0.01894     0.06300     0.01264     0.14396     0.00412    -0.07607
        17   0.02037     0.22558     0.24513     0.11009     0.14182    -0.21822
        18  -0.04776     0.34631    -0.16047     0.14441    -0.11817    -0.30671
        19   0.02803    -0.23509     0.00885    -0.04205    -0.00523    -0.21302
        20   0.00504    -0.17885     0.19007    -0.13805     0.10796    -0.17237
        21  -0.01081    -0.27345    -0.12313    -0.22762    -0.07944    -0.27355
        22   0.04652     0.00267     0.00659     0.00112     0.00257    -0.00047
        23  -0.05285     0.00593     0.00001     0.00201     0.00033    -0.00516
        24  -0.34060     0.00074    -0.00816     0.00234    -0.00217    -0.00149
        25  -0.14749    -0.00068     0.00277    -0.00294     0.00271    -0.00235
        26   0.11421     0.00383    -0.00623     0.00050    -0.00403     0.00152
        27   0.84329     0.01098    -0.01833     0.00875    -0.01927     0.01087
        28   0.01698    -0.00071    -0.00833     0.00212    -0.00429     0.00022
        29  -0.06518     0.00226     0.00064    -0.00301     0.00247     0.00009
        30  -0.34812     0.00716    -0.01945    -0.00797     0.00293    -0.01161




    ROOT NO.   13          14          15          16          17          18

             1.97104     2.57856     3.22522     4.15743     5.95946     7.13191
  
         1   0.00017     0.22968     0.13463    -0.00095    -0.10341    -0.00439
         2  -0.00219    -0.07285     0.17623    -0.02371    -0.15809    -0.00745
         3   0.00001    -0.08590     0.26294     0.00545    -0.26432     0.01328
         4   0.00094     0.49402     0.43258    -0.01682     0.35996     0.00419
         5  -0.00088     0.11921    -0.04373     0.02028     0.03526     0.00165
         6   0.00364     0.17482    -0.05471    -0.02253     0.05590    -0.00013
         7   0.00283    -0.04512    -0.17140     0.04407    -0.07998    -0.00136
         8  -0.00144    -0.33521     0.34842    -0.27566     0.35897     0.00383
         9   0.00060    -0.02894    -0.06079    -0.10947     0.05178    -0.00056
        10   0.00336    -0.05249    -0.16119    -0.03709    -0.08102     0.00336
        11   0.00199     0.11505    -0.20229    -0.02306    -0.11066     0.00468
        12   0.00162    -0.26513     0.28878     0.33385     0.34240     0.00117
        13  -0.00322    -0.32081     0.03899     0.04396    -0.16779    -0.00153
        14  -0.00153     0.08089     0.07185     0.68243    -0.23143     0.00367
        15   0.00298     0.08931     0.10572    -0.46918    -0.33305    -0.01155
        16  -0.00263    -0.30016     0.08583    -0.02202    -0.30666    -0.00350
        17   0.00156    -0.13332    -0.24656    -0.19849     0.14783    -0.00133
        18  -0.00420    -0.22924    -0.34914     0.13117     0.17682     0.00283
        19  -0.00078    -0.00731    -0.36009    -0.00839     0.37959     0.00441
        20   0.00262     0.22741    -0.10371    -0.18232    -0.04223    -0.00408
        21   0.00248     0.33841    -0.19111     0.12897    -0.02827    -0.00127
        22   0.08977    -0.00146    -0.00070     0.00073     0.00364    -0.43438
        23   0.60339    -0.00366    -0.00085    -0.00237    -0.00177     0.31751
        24  -0.07990     0.00324    -0.00109    -0.00079    -0.00029    -0.11606
        25  -0.47432     0.00404    -0.00108    -0.00815    -0.00469     0.61789
        26  -0.14661     0.00139     0.00068    -0.00044    -0.00162     0.17497
        27  -0.05336     0.00213    -0.00191     0.00245    -0.00027     0.06592
        28   0.38388    -0.00039     0.00244     0.00466     0.00037    -0.18470
        29  -0.45692     0.00110    -0.00003     0.00334     0.00375    -0.49345
        30   0.12612     0.00132     0.00132     0.00008    -0.00070     0.04636




    ROOT NO.   19          20          21          22          23          24

             8.50075     8.93981     9.22684     9.73639    20.45648    23.32884
  
         1   0.10815     0.00783     0.53871     0.61779     0.03625    -0.02308
         2   0.58951    -0.01889    -0.45860     0.27306     0.03337     0.00729
         3  -0.53007     0.00253    -0.40327     0.41181     0.04599     0.00909
         4  -0.07144    -0.00505    -0.32161    -0.30457     0.01656    -0.00544
         5  -0.02698     0.00062     0.02389    -0.00028     0.00592    -0.01016
         6   0.02706    -0.00035     0.02243    -0.00029     0.00927    -0.01460
         7   0.10206    -0.00401    -0.12716    -0.02285    -0.00267     0.00574
         8  -0.31927     0.01079     0.29666    -0.01383     0.02206     0.00733
         9   0.03324    -0.00109    -0.00198    -0.00545     0.01019     0.00739
        10  -0.13959     0.00133    -0.07158    -0.02415    -0.00444     0.00602
        11  -0.20403     0.00252    -0.05119    -0.00261    -0.00190     0.00244
        12   0.35033    -0.00349     0.13098    -0.00761     0.02660     0.00736
        13  -0.00013     0.00044     0.02288    -0.16499    -0.27033     0.71608
        14  -0.14211     0.00542     0.14337    -0.18024    -0.32069    -0.21393
        15   0.16205    -0.00024     0.16181    -0.26897    -0.49929    -0.23759
        16   0.02593     0.00020     0.07176    -0.30045     0.54170    -0.41550
        17   0.03434    -0.00153    -0.05242     0.00642     0.01523    -0.00829
        18  -0.04144    -0.00004    -0.05982    -0.02694     0.08051    -0.05643
        19  -0.02446    -0.00102    -0.11328     0.19932    -0.31728    -0.28338
        20   0.06759     0.00059     0.09764    -0.08204     0.24600     0.21510
        21  -0.00537     0.00271     0.14750    -0.10224     0.32738     0.28512
        22   0.00011     0.36813    -0.01009     0.00133     0.00050    -0.00022
        23   0.00084    -0.26147     0.00603    -0.00092    -0.00012     0.00017
        24  -0.00328     0.09438    -0.00416     0.00145     0.00087     0.00012
        25   0.00654    -0.18729     0.00765    -0.00255    -0.00034     0.00006
        26   0.01685     0.70680    -0.01000    -0.00174    -0.00015    -0.00005
        27   0.00741    -0.13934     0.00817    -0.00279    -0.00236    -0.00040
        28  -0.00716    -0.18057     0.00272     0.00112     0.00005    -0.00030
        29  -0.01675    -0.44484     0.00461     0.00217     0.00030     0.00010
        30   0.00006     0.04493    -0.00166     0.00104     0.00084    -0.00006

          ZERO POINT ENERGY      37.333 KCAL/MOL

         NOTE: SYSTEM IS NOT A GROUND STATE, THEREFORE ZERO POINT
         ENERGY IS NOT MEANINGFULL. ZERO POINT ENERGY PRINTED
         DOES NOT INCLUDE THE  4 IMAGINARY FREQUENCIES


           FREQUENCIES, REDUCED MASSES AND VIBRATIONAL DIPOLES



   I         1         2         3         4         5         6
 FREQ(I) -227.9972 -210.7662  -74.8494  -52.3415   89.4502  251.5113

 MASS(I)   0.36598   0.52051   2.35228   2.96590   8.64591   0.46982

 DIPX(I)   0.22049  -0.03727   0.24751  -0.38022   0.07546  -0.03620
 DIPY(I)  -0.84236   0.21485   0.37448   0.25130  -0.03554   0.13399
 DIPZ(I)   0.17059  -0.04398  -0.36550  -0.01362  -0.45381  -0.00467

 DIPT(I)   0.88729   0.22245   0.57887   0.45597   0.46141   0.13887


   I         7         8         9        10        11        12
 FREQ(I)  328.4258  439.4423  547.7857  647.5905  917.7434  984.1218

 MASS(I)   0.52009   2.28363   3.84630   3.85024   1.57483   1.02285

 DIPX(I)  -0.25328   0.21965  -0.06368  -0.88451   0.01779   0.74993
 DIPY(I)   0.28830  -0.09471   0.37849  -1.15195   0.55506  -0.68038
 DIPZ(I)   1.71797  -0.10453  -0.35868  -1.55096  -0.16680  -0.20141

 DIPT(I)   1.76031   0.26104   0.52532   2.12482   0.57985   1.03242


   I        13        14        15        16        17        18
 FREQ(I) 1072.3810 1116.1978 1153.9644 1290.3177 1371.3267 1523.7820

 MASS(I)   3.90355   0.50531   0.57202   0.49298   0.53892   4.98018

 DIPX(I)  -0.66529  -0.33502  -0.28549   0.55486   0.96162   1.37969
 DIPY(I)  -0.86935  -0.13097  -0.58877   0.57853   0.28052   1.73505
 DIPZ(I)  -1.30786   0.41284   0.81912   0.52987   0.11504   2.90930

 DIPT(I)   1.70554   0.54756   1.04839   0.96090   1.00828   3.65759


   I        19        20        21        22        23        24
 FREQ(I) 1649.5584 1904.8047 2612.1092 2687.7017 2702.4868 2824.2278

 MASS(I)   6.68109   1.68670   0.52293   0.51649   0.49595   0.48908

 DIPX(I)  10.40477  -0.34719  -0.93192  -0.51561   0.56405   0.85225
 DIPY(I)  -2.98446  -0.61043   0.85028   1.72966   0.78380   0.29207
 DIPZ(I)  -3.30958   1.24794   0.03179  -0.37012   0.13214   0.13845

 DIPT(I)  11.31899   1.43196   1.26193   1.84244   0.97466   0.91148


   I        25        26        27        28        29        30
 FREQ(I)    0.0525    0.0388    0.0547  -74.3560   12.9275   -8.2343

 MASS(I)   2.61778   2.61779   2.61778   4.86396   5.76669   5.20403

 DIPX(I)  -0.00621   0.00089  -0.03694   0.39967   0.02844   0.38337
 DIPY(I)   0.00443  -0.02686  -0.00075  -0.55962   0.34217  -0.09812
 DIPZ(I)   0.00149   0.02633   0.02300   0.10385  -0.27722  -0.30095

 DIPT(I)   0.00778   0.03762   0.04352   0.69548   0.44129   0.49717


           NORMAL COORDINATE ANALYSIS (Total motion = 1 Angstrom)


   Root No.       1         2         3         4         5         6         7         8

                 1 A       2 A       3 A       4 A       5 A       6 A       7 A       8 A   

                -228.0    -210.8     -74.8     -52.3      89.5     251.5     328.4     439.4
  
           1   -0.0046    0.0092    0.0470   -0.0859   -0.0027    0.0050    0.0010   -0.0645
           2    0.0056   -0.0023    0.0870    0.0700   -0.0075    0.0172   -0.0004    0.0227
           3   -0.0019   -0.0020   -0.0700   -0.0063   -0.0633   -0.0119   -0.0052    0.0160
           4   -0.0042    0.0104    0.0476   -0.0864   -0.0019    0.0047   -0.0000   -0.0763
           5    0.0874    0.1716    0.0905    0.1495   -0.0021    0.0156   -0.0089    0.1650
           6   -0.0511   -0.1253   -0.1140    0.0182   -0.0758   -0.0145   -0.0016    0.1527
           7   -0.0848   -0.1608    0.0457   -0.1646   -0.0060    0.0077    0.0035   -0.2190
           8   -0.0217   -0.0604    0.0879    0.0437   -0.0077    0.0176   -0.0002   -0.0232
           9    0.0500    0.1328   -0.1373   -0.0301   -0.0699   -0.0212   -0.0041    0.0085
          10    0.0757    0.1976    0.0901   -0.0739    0.0131    0.0037    0.0050   -0.1723
          11   -0.0554   -0.1479    0.1657    0.0636    0.0029    0.0179    0.0145   -0.0342
          12   -0.0011   -0.0029   -0.0192   -0.0038   -0.0541   -0.0090    0.0091   -0.0388
          13   -0.0005   -0.0003    0.0070   -0.0129   -0.0062    0.0009   -0.0024    0.0679
          14   -0.0002    0.0031    0.0043    0.0082   -0.0126    0.0062   -0.0022   -0.0076
          15   -0.0001   -0.0014    0.0035   -0.0016   -0.0604   -0.0025    0.0005   -0.0268
          16   -0.0007   -0.0002    0.0010   -0.0020   -0.0060   -0.0004   -0.0022    0.0493
          17   -0.0092    0.0227   -0.0141    0.0189   -0.0097   -0.0009   -0.0020    0.0382
          18    0.0025   -0.0034    0.0510   -0.0857   -0.0610    0.0082   -0.0044    0.0760
          19    0.0028   -0.0077   -0.0175    0.0310   -0.0075   -0.0029   -0.0043   -0.0181
          20    0.0054   -0.0180   -0.0367   -0.0558   -0.0105   -0.0046   -0.0004   -0.0538
          21   -0.0011    0.0073    0.0098    0.0915   -0.0632    0.0020   -0.0048   -0.0722
          22   -0.2111    0.0640   -0.0334    0.0652    0.0305   -0.0190   -0.0619   -0.0020
          23   -0.2383    0.0971   -0.0673   -0.0430    0.0280    0.1061    0.0671    0.0013
          24    0.0656   -0.0142   -0.0749   -0.0175    0.1472    0.4268    0.4344    0.0041
          25   -0.0086   -0.0099   -0.0378    0.0637    0.0166   -0.0008    0.0144   -0.0015
          26    0.0241   -0.0030   -0.0438   -0.0379    0.0337   -0.0202   -0.0052    0.0003
          27   -0.0041   -0.0004    0.0064    0.0015    0.2209    0.0040   -0.0438    0.0007
          28    0.3131   -0.1315   -0.0361    0.0637    0.0198   -0.0074   -0.0565   -0.0049
          29   -0.1021    0.0449   -0.0369   -0.0364    0.0263   -0.0589    0.0690    0.0031
          30    0.0051   -0.0003    0.0843    0.0194    0.1651   -0.4219    0.4484    0.0212


   Root No.       9        10        11        12        13        14        15        16

                 9 A      10 A      11 A      12 A      13 A      14 A      15 A      16 A   

                 547.8     647.6     917.7     984.1    1072.4    1116.2    1154.0    1290.3
  
           1    0.0172   -0.0422   -0.0559   -0.0733    0.1131   -0.0375    0.0336   -0.0223
           2    0.0075   -0.0658   -0.0673    0.0566    0.1178    0.0441    0.0266   -0.0284
           3   -0.0183   -0.1101    0.0467    0.0166    0.1680   -0.0116   -0.0514   -0.0457
           4    0.0171   -0.0431   -0.0463   -0.0538    0.0761   -0.0213    0.0135   -0.0224
           5   -0.1204   -0.0497   -0.0857   -0.2272    0.1603   -0.2186   -0.2460    0.3162
           6    0.0517   -0.1131   -0.0615    0.1583    0.1032   -0.2737    0.3754    0.2747
           7    0.1297   -0.0595   -0.0602    0.1959    0.0418    0.1037   -0.2844    0.3114
           8    0.0325   -0.0696   -0.0571    0.1195    0.0610    0.0627   -0.0924    0.0870
           9    0.1743   -0.1454    0.0545   -0.1932    0.0977    0.4290    0.1883    0.2346
          10   -0.1016   -0.0410    0.2039    0.2191   -0.0641   -0.0426    0.0647    0.0468
          11   -0.2079   -0.0439    0.3110   -0.1566   -0.0158    0.0360    0.0526    0.0421
          12   -0.1466   -0.1040    0.2903    0.0146    0.0158   -0.0038    0.0052    0.0169
          13   -0.0009   -0.0409    0.0021    0.0026   -0.0481   -0.0046   -0.0008    0.0058
          14    0.1344   -0.0735    0.0710   -0.0154   -0.0732   -0.0295   -0.0100   -0.0078
          15   -0.0881   -0.0538   -0.0897   -0.0039   -0.0866    0.0187    0.0059    0.0122
          16   -0.0142   -0.0649   -0.0093    0.0073   -0.1243    0.0176   -0.0153   -0.0203
          17   -0.0516    0.0892   -0.0061    0.0065    0.0072    0.0078   -0.0008    0.0010
          18    0.0382    0.1065    0.0248    0.0075   -0.0061    0.0050   -0.0051   -0.0032
          19    0.0064    0.1433    0.0303    0.0085    0.0825    0.0146   -0.0001    0.0079
          20   -0.0396    0.0368   -0.0359   -0.0088   -0.0431   -0.0098    0.0043   -0.0037
          21    0.0516    0.0512   -0.0147   -0.0159   -0.0584   -0.0220    0.0023   -0.0074
          22   -0.0061   -0.0013    0.0025   -0.0006   -0.0029    0.0001    0.0021    0.0036
          23   -0.0078    0.0038   -0.0005   -0.0013   -0.0011   -0.0004    0.0002    0.0021
          24   -0.0013    0.0123   -0.0023   -0.0013    0.0048   -0.0016   -0.0042   -0.0012
          25   -0.0005    0.0010   -0.0003    0.0006   -0.0000    0.0001   -0.0004   -0.0005
          26   -0.0000    0.0003    0.0003   -0.0002   -0.0004   -0.0001    0.0000    0.0000
          27    0.0026   -0.0004   -0.0014   -0.0004   -0.0010    0.0003    0.0010    0.0003
          28    0.0011   -0.0037    0.0056   -0.0016   -0.0029   -0.0004    0.0012    0.0040
          29    0.0025    0.0031   -0.0003    0.0011    0.0003   -0.0004   -0.0012   -0.0010
          30    0.0436    0.0175   -0.0180    0.0023    0.0048   -0.0032   -0.0085   -0.0031


   Root No.      17        18        19        20        21        22        23        24

                17 A      18 A      19 A      20 A      21 A      22 A      23 A      24 A   

                1371.3    1523.8    1649.6    1904.8    2612.1    2687.7    2702.5    2824.2
  
           1    0.0002   -0.0160   -0.0284    0.0375    0.0431    0.0016   -0.0246   -0.0002
           2    0.0007   -0.0192    0.0101    0.0485   -0.0349    0.0009   -0.0237   -0.0006
           3    0.0006   -0.0361    0.0117   -0.0893    0.0002   -0.0000   -0.0016    0.0003
           4    0.0003    0.0268    0.0132   -0.0224   -0.4047   -0.0258    0.4881    0.0067
           5   -0.0037   -0.0912   -0.1062    0.0308   -0.0250    0.0003   -0.0032   -0.0003
           6   -0.0034   -0.1271   -0.1602   -0.0277   -0.0127   -0.0006    0.0182   -0.0003
           7   -0.0010   -0.0918    0.0609    0.0418   -0.1414    0.0050   -0.1297   -0.0033
           8   -0.0001    0.0067    0.0093   -0.0196    0.4908   -0.0140    0.3698    0.0090
           9   -0.0026   -0.1350    0.0742   -0.0343    0.0136   -0.0002    0.0133    0.0000
          10   -0.0006   -0.0393    0.0229   -0.2075    0.0085    0.0004   -0.0121   -0.0002
          11   -0.0028   -0.0660    0.0215   -0.2779   -0.0106    0.0005   -0.0148   -0.0001
          12   -0.0000    0.0369    0.0014    0.6357    0.0040   -0.0008    0.0244   -0.0036
          13    0.0002    0.0921    0.3032   -0.0042    0.0026    0.0003   -0.0044   -0.0001
          14   -0.0001    0.1200   -0.0883   -0.0115   -0.0029    0.0002   -0.0053   -0.0002
          15    0.0000    0.1800   -0.0950   -0.0208   -0.0018    0.0004   -0.0065   -0.0000
          16   -0.0002   -0.1505   -0.1513    0.0064   -0.0006   -0.0001    0.0019    0.0000
          17    0.0003   -0.0050   -0.0023    0.0010   -0.0001    0.0000    0.0004    0.0001
          18   -0.0000   -0.0235   -0.0194    0.0011   -0.0003   -0.0001    0.0008    0.0000
          19    0.0000    0.0909   -0.1003   -0.0056   -0.0007   -0.0000   -0.0007   -0.0000
          20   -0.0002   -0.0720    0.0753    0.0070    0.0008   -0.0001    0.0008    0.0000
          21    0.0000   -0.0953    0.0992    0.0082    0.0013   -0.0000    0.0012    0.0000
          22    0.3245    0.0004   -0.0015    0.0050    0.0011   -0.3676   -0.0208    0.3173
          23    0.3447   -0.0022   -0.0009   -0.0069   -0.0003    0.2642    0.0166   -0.3288
          24   -0.0058   -0.0053    0.0021   -0.0092    0.0001   -0.0957   -0.0049    0.0999
          25   -0.0484    0.0001    0.0001   -0.0006    0.0000    0.0125    0.0010   -0.0260
          26   -0.0150    0.0001    0.0001    0.0001    0.0004   -0.0427   -0.0017   -0.0089
          27   -0.0051    0.0008   -0.0003    0.0007   -0.0001    0.0086    0.0002   -0.0025
          28    0.4432   -0.0019   -0.0017   -0.0007   -0.0017    0.1681    0.0058    0.0962
          29   -0.1046    0.0004    0.0006    0.0050   -0.0053    0.4130    0.0107    0.4706
          30    0.0851   -0.0040    0.0002   -0.0044    0.0004   -0.0410   -0.0004   -0.0561


           MASS-WEIGHTED COORDINATE ANALYSIS (NORMAL COORDINATES)


   Root No.       1         2         3         4         5         6         7         8

                 1 A       2 A       3 A       4 A       5 A       6 A       7 A       8 A   

                -228.0    -210.8     -74.8     -52.3      89.5     251.5     328.4     439.4
  
           1   -0.0306    0.0614    0.2428   -0.3681   -0.0088    0.0278    0.0053   -0.2896
           2    0.0373   -0.0151    0.4493    0.3001   -0.0246    0.0951   -0.0019    0.1019
           3   -0.0130   -0.0134   -0.3615   -0.0271   -0.2089   -0.0656   -0.0269    0.0720
           4   -0.0081    0.0202    0.0713   -0.1073   -0.0018    0.0075   -0.0001   -0.0993
           5    0.1696    0.3330    0.1353    0.1856   -0.0020    0.0249   -0.0133    0.2146
           6   -0.0991   -0.2432   -0.1704    0.0226   -0.0724   -0.0231   -0.0024    0.1985
           7   -0.1646   -0.3121    0.0683   -0.2044   -0.0058    0.0122    0.0052   -0.2848
           8   -0.0421   -0.1172    0.1314    0.0543   -0.0073    0.0282   -0.0003   -0.0302
           9    0.0970    0.2577   -0.2054   -0.0373   -0.0668   -0.0338   -0.0061    0.0111
          10    0.2077    0.5421    0.1905   -0.1298    0.0176    0.0083    0.0106   -0.3167
          11   -0.1519   -0.4059    0.3503    0.1116    0.0039    0.0404    0.0309   -0.0628
          12   -0.0030   -0.0079   -0.0406   -0.0067   -0.0731   -0.0204    0.0193   -0.0712
          13   -0.0038   -0.0025    0.0391   -0.0599   -0.0222    0.0052   -0.0133    0.3292
          14   -0.0013    0.0224    0.0237    0.0377   -0.0448    0.0370   -0.0126   -0.0370
          15   -0.0008   -0.0103    0.0196   -0.0074   -0.2150   -0.0150    0.0027   -0.1298
          16   -0.0050   -0.0013    0.0059   -0.0098   -0.0229   -0.0023   -0.0133    0.2556
          17   -0.0715    0.1754   -0.0839    0.0935   -0.0370   -0.0055   -0.0117    0.1981
          18    0.0191   -0.0264    0.3040   -0.4240   -0.2323    0.0524   -0.0263    0.3939
          19    0.0215   -0.0593   -0.1044    0.1536   -0.0284   -0.0186   -0.0257   -0.0939
          20    0.0421   -0.1395   -0.2187   -0.2762   -0.0400   -0.0293   -0.0025   -0.2789
          21   -0.0083    0.0566    0.0582    0.4525   -0.2408    0.0125   -0.0285   -0.3740
          22   -0.4097    0.1242   -0.0499    0.0810    0.0291   -0.0304   -0.0931   -0.0026
          23   -0.4626    0.1885   -0.1006   -0.0534    0.0268    0.1695    0.1008    0.0017
          24    0.1273   -0.0276   -0.1121   -0.0218    0.1407    0.6817    0.6530    0.0053
          25   -0.0664   -0.0764   -0.2250    0.3153    0.0634   -0.0053    0.0865   -0.0078
          26    0.1861   -0.0230   -0.2610   -0.1877    0.1282   -0.1288   -0.0312    0.0015
          27   -0.0317   -0.0028    0.0379    0.0074    0.8412    0.0256   -0.2622    0.0035
          28    0.6076   -0.2552   -0.0540    0.0791    0.0190   -0.0119   -0.0849   -0.0064
          29   -0.1982    0.0872   -0.0551   -0.0452    0.0251   -0.0941    0.1038    0.0040
          30    0.0099   -0.0006    0.1261    0.0241    0.1578   -0.6739    0.6740    0.0276


   Root No.       9        10        11        12        13        14        15        16

                 9 A      10 A      11 A      12 A      13 A      14 A      15 A      16 A   

                 547.8     647.6     917.7     984.1    1072.4    1116.2    1154.0    1290.3
  
           1    0.0698   -0.1332   -0.2135   -0.3845    0.3335   -0.2030    0.1836   -0.1222
           2    0.0305   -0.2080   -0.2570    0.2971    0.3474    0.2392    0.1451   -0.1554
           3   -0.0742   -0.3478    0.1782    0.0872    0.4955   -0.0627   -0.2806   -0.2505
           4    0.0201   -0.0394   -0.0513   -0.0818    0.0650   -0.0335    0.0214   -0.0356
           5   -0.1417   -0.0455   -0.0948   -0.3454    0.1370   -0.3432   -0.3888    0.5021
           6    0.0609   -0.1035   -0.0680    0.2407    0.0882   -0.4297    0.5932    0.4361
           7    0.1527   -0.0544   -0.0666    0.2977    0.0357    0.1628   -0.4495    0.4944
           8    0.0383   -0.0637   -0.0632    0.1817    0.0521    0.0984   -0.1461    0.1382
           9    0.2052   -0.1330    0.0602   -0.2938    0.0834    0.6735    0.2975    0.3726
          10   -0.1692   -0.0530    0.3188    0.4707   -0.0774   -0.0945    0.1446    0.1051
          11   -0.3461   -0.0568    0.4862   -0.3365   -0.0190    0.0799    0.1175    0.0945
          12   -0.2440   -0.1345    0.4538    0.0315    0.0191   -0.0085    0.0116    0.0379
          13   -0.0039   -0.1395    0.0088    0.0146   -0.1533   -0.0268   -0.0049    0.0344
          14    0.5899   -0.2506    0.2925   -0.0872   -0.2332   -0.1724   -0.0590   -0.0459
          15   -0.3866   -0.1836   -0.3697   -0.0221   -0.2760    0.1092    0.0345    0.0723
          16   -0.0668   -0.2367   -0.0411    0.0439   -0.4230    0.1103   -0.0961   -0.1286
          17   -0.2422    0.3252   -0.0268    0.0395    0.0246    0.0490   -0.0048    0.0065
          18    0.1791    0.3882    0.1092    0.0454   -0.0209    0.0314   -0.0323   -0.0202
          19    0.0302    0.5225    0.1334    0.0513    0.2810    0.0913   -0.0009    0.0499
          20   -0.1857    0.1343   -0.1583   -0.0535   -0.1466   -0.0611    0.0270   -0.0236
          21    0.2422    0.1868   -0.0650   -0.0962   -0.1988   -0.1374    0.0142   -0.0470
          22   -0.0072   -0.0012    0.0027   -0.0009   -0.0025    0.0001    0.0033    0.0057
          23   -0.0092    0.0035   -0.0005   -0.0020   -0.0009   -0.0006    0.0003    0.0033
          24   -0.0015    0.0113   -0.0026   -0.0020    0.0041   -0.0025   -0.0067   -0.0019
          25   -0.0022    0.0037   -0.0013    0.0038   -0.0001    0.0007   -0.0026   -0.0031
          26   -0.0001    0.0011    0.0015   -0.0012   -0.0014   -0.0004    0.0002    0.0000
          27    0.0120   -0.0016   -0.0061   -0.0023   -0.0033    0.0019    0.0062    0.0019
          28    0.0013   -0.0034    0.0062   -0.0024   -0.0024   -0.0007    0.0019    0.0063
          29    0.0030    0.0029   -0.0003    0.0016    0.0003   -0.0007   -0.0018   -0.0015
          30    0.0513    0.0160   -0.0199    0.0035    0.0041   -0.0050   -0.0134   -0.0050


   Root No.      17        18        19        20        21        22        23        24

                17 A      18 A      19 A      20 A      21 A      22 A      23 A      24 A   

                1371.3    1523.8    1649.6    1904.8    2612.1    2687.7    2702.5    2824.2
  
           1    0.0010   -0.0439   -0.0641    0.1179    0.2185    0.0080   -0.1323   -0.0012
           2    0.0033   -0.0527    0.0227    0.1526   -0.1771    0.0047   -0.1276   -0.0031
           3    0.0032   -0.0990    0.0263   -0.2808    0.0009   -0.0002   -0.0088    0.0015
           4    0.0004    0.0213    0.0086   -0.0204   -0.5947   -0.0385    0.7619    0.0099
           5   -0.0054   -0.0725   -0.0693    0.0280   -0.0368    0.0005   -0.0050   -0.0005
           6   -0.0048   -0.1010   -0.1046   -0.0253   -0.0186   -0.0009    0.0283   -0.0004
           7   -0.0014   -0.0729    0.0397    0.0381   -0.2078    0.0075   -0.2024   -0.0048
           8   -0.0001    0.0054    0.0060   -0.0178    0.7213   -0.0209    0.5772    0.0132
           9   -0.0037   -0.1073    0.0484   -0.0313    0.0200   -0.0003    0.0207    0.0001
          10   -0.0012   -0.0442    0.0211   -0.2672    0.0177    0.0008   -0.0266   -0.0003
          11   -0.0057   -0.0741    0.0198   -0.3580   -0.0220    0.0011   -0.0327   -0.0003
          12   -0.0001    0.0415    0.0012    0.8188    0.0083   -0.0017    0.0538   -0.0076
          13    0.0009    0.2729    0.7378   -0.0143    0.0143    0.0015   -0.0258   -0.0006
          14   -0.0007    0.3555   -0.2148   -0.0392   -0.0157    0.0012   -0.0309   -0.0013
          15    0.0001    0.5330   -0.2311   -0.0706   -0.0101    0.0020   -0.0376   -0.0003
          16   -0.0012   -0.4765   -0.3934    0.0232   -0.0036   -0.0006    0.0118    0.0003
          17    0.0019   -0.0159   -0.0059    0.0037   -0.0007    0.0003    0.0025    0.0004
          18   -0.0002   -0.0745   -0.0505    0.0039   -0.0020   -0.0005    0.0048    0.0002
          19    0.0002    0.2879   -0.2609   -0.0204   -0.0038   -0.0000   -0.0043   -0.0001
          20   -0.0011   -0.2279    0.1957    0.0254    0.0045   -0.0006    0.0049    0.0001
          21    0.0000   -0.3015    0.2579    0.0298    0.0076   -0.0001    0.0072    0.0001
          22    0.4684    0.0003   -0.0010    0.0045    0.0017   -0.5491   -0.0325    0.4654
          23    0.4975   -0.0017   -0.0006   -0.0062   -0.0004    0.3946    0.0259   -0.4822
          24   -0.0084   -0.0042    0.0014   -0.0084    0.0002   -0.1430   -0.0076    0.1465
          25   -0.2782    0.0002    0.0003   -0.0022    0.0001    0.0746    0.0062   -0.1519
          26   -0.0865    0.0004    0.0004    0.0003    0.0023   -0.2541   -0.0106   -0.0520
          27   -0.0293    0.0025   -0.0008    0.0024   -0.0004    0.0510    0.0015   -0.0146
          28    0.6397   -0.0015   -0.0011   -0.0006   -0.0025    0.2512    0.0090    0.1412
          29   -0.1511    0.0003    0.0004    0.0046   -0.0078    0.6170    0.0166    0.6902
          30    0.1229   -0.0032    0.0001   -0.0040    0.0006   -0.0613   -0.0006   -0.0823


          DESCRIPTION OF VIBRATIONS


 VIBRATION          1    1A           ATOM PAIR      ENERGY CONTRIBUTION    RADIAL
 FREQUENCY          -228.00         O  9 -- H 10         +44.3% (-99.9%)      2.0%
 TRANSITION DIPOLE   0.8873         H  8 -- O  9         +44.2% (-99.9%)      2.7%
 TRAVEL (Ang.)       0.8989         C  1 -- H  3          +3.8% (-75.5%)      3.1%
 REDUCED MASS        0.3660         C  1 -- H  2          +3.7% (-74.8%)      2.0%
 EFFECTIVE MASS      2.7498
 FORCE CONSTANT     -0.0112

 VIBRATION          2    2A           ATOM PAIR      ENERGY CONTRIBUTION    RADIAL
 FREQUENCY          -210.77         C  1 -- H  3         +26.6% (-99.9%)      0.2%
 TRANSITION DIPOLE   0.2225         C  1 -- H  4         +26.2% (-99.9%)      0.1%
 TRAVEL (Ang.)       0.7840         C  1 -- H  2         +25.0% (-99.9%)      1.0%
 REDUCED MASS        0.5205         H  8 -- O  9         +11.1% (-99.9%)      1.5%
 EFFECTIVE MASS      0.2158
 FORCE CONSTANT     -0.0136

 VIBRATION          3    3A           ATOM PAIR      ENERGY CONTRIBUTION    RADIAL
 FREQUENCY           -74.85         C  1 -- N  5         +27.3% (-99.9%)      0.0%
 TRANSITION DIPOLE   0.5789         C  1 -- H  2         +23.7% (-99.9%)     17.9%
 TRAVEL (Ang.)       0.6189         C  1 -- H  3         +22.8% (-99.9%)     39.4%
 REDUCED MASS        2.3523         C  1 -- H  4         +18.3% (-99.9%)     95.6%
 EFFECTIVE MASS    347.1144
 FORCE CONSTANT     -0.0078

 VIBRATION          4    4A           ATOM PAIR      ENERGY CONTRIBUTION    RADIAL
 FREQUENCY           -52.34         C  1 -- N  5         +24.4% (-99.9%)      0.0%
 TRANSITION DIPOLE   0.4560         C  1 -- H  4         +22.9% (-99.9%)      0.5%
 TRAVEL (Ang.)       0.6591         C  1 -- H  2         +18.4% (-99.9%)     81.4%
 REDUCED MASS        2.9659         C  1 -- H  3         +17.6% (-99.9%)     92.8%
 EFFECTIVE MASS    559.2812
 FORCE CONSTANT     -0.0048

 VIBRATION          5    5A           ATOM PAIR      ENERGY CONTRIBUTION    RADIAL
 FREQUENCY            89.45         C  1 -- N  5         +20.8% (302.1%)     63.5%
 TRANSITION DIPOLE   0.4614         N  5 -- O  6         +15.2% (257.7%)      2.3%
 TRAVEL (Ang.)       0.2953         O  6 -- O  7         +13.7% (244.9%)      3.4%
 REDUCED MASS        8.6459         C  1 -- H  3         +11.3% (222.9%)      1.2%
 EFFECTIVE MASS     55.4058         C  1 -- H  2         +11.1% (220.9%)      0.3%
 FORCE CONSTANT      0.0408         N  5 -- O  7         +10.9% (218.1%)     13.5%

 VIBRATION          6    6A           ATOM PAIR      ENERGY CONTRIBUTION    RADIAL
 FREQUENCY           251.51         H  8 -- O  9         +38.7% ( 93.3%)      0.6%
 TRANSITION DIPOLE   0.1389         O  9 -- H 10         +33.8% ( 87.2%)      1.7%
 TRAVEL (Ang.)       0.7554         C  1 -- N  5          +7.3% ( 40.6%)      0.1%
 REDUCED MASS        0.4698         C  1 -- H  2          +7.1% ( 40.1%)      5.7%
 EFFECTIVE MASS      3.3550
 FORCE CONSTANT      0.0175

 VIBRATION          7    7A           ATOM PAIR      ENERGY CONTRIBUTION    RADIAL
 FREQUENCY           328.43         O  9 -- H 10         +49.0% ( 66.0%)      0.1%
 TRANSITION DIPOLE   1.7603         H  8 -- O  9         +45.1% ( 63.4%)      0.1%
 TRAVEL (Ang.)       0.6283         C  1 -- H  4          +1.7% ( 12.2%)     18.8%
 REDUCED MASS        0.5201         C  1 -- N  5          +1.0% (  9.6%)      8.7%
 EFFECTIVE MASS      1.6770
 FORCE CONSTANT      0.0331

 VIBRATION          8    8A           ATOM PAIR      ENERGY CONTRIBUTION    RADIAL
 FREQUENCY           439.44         C  1 -- N  5         +26.5% (134.3%)      0.0%
 TRANSITION DIPOLE   0.2610         O  6 -- O  7         +18.7% (112.9%)      0.0%
 TRAVEL (Ang.)       0.2592         N  5 -- O  6         +14.1% ( 98.1%)      0.0%
 REDUCED MASS        2.2836         N  5 -- O  7         +13.7% ( 96.8%)      0.0%
 EFFECTIVE MASS     16.3155
 FORCE CONSTANT      0.2598

 VIBRATION          9    9A           ATOM PAIR      ENERGY CONTRIBUTION    RADIAL
 FREQUENCY           547.79         N  5 -- O  6         +25.7% ( 91.8%)      0.0%
 TRANSITION DIPOLE   0.5253         N  5 -- O  7         +25.3% ( 91.0%)      0.0%
 TRAVEL (Ang.)       0.1789         C  1 -- N  5         +19.9% ( 80.7%)      0.0%
 REDUCED MASS        3.8463         C  1 -- H  4         +14.5% ( 68.9%)      2.9%
 EFFECTIVE MASS     12.5306
 FORCE CONSTANT      0.6800

 VIBRATION         10   10A           ATOM PAIR      ENERGY CONTRIBUTION    RADIAL
 FREQUENCY           647.59         O  6 -- O  7         +18.6% ( 80.2%)     99.8%
 TRANSITION DIPOLE   2.1248         N  5 -- O  7         +15.5% ( 73.2%)      0.0%
 TRAVEL (Ang.)       0.1645         C  1 -- N  5         +15.4% ( 73.0%)     37.8%
 REDUCED MASS        3.8502         N  5 -- O  6         +14.8% ( 71.6%)      0.0%
 EFFECTIVE MASS     15.4113         C  1 -- H  3         +12.2% ( 65.0%)     17.3%
 FORCE CONSTANT      0.9513         C  1 -- H  4         +11.7% ( 63.7%)     12.5%
                            C  1 -- H  2         +11.7% ( 63.6%)      9.3%

 VIBRATION         11   11A           ATOM PAIR      ENERGY CONTRIBUTION    RADIAL
 FREQUENCY           917.74         C  1 -- H  4         +38.7% ( 77.9%)      5.8%
 TRANSITION DIPOLE   0.5799         C  1 -- N  5         +21.1% ( 57.5%)      0.7%
 TRAVEL (Ang.)       0.2160         N  5 -- O  7          +9.4% ( 38.5%)      3.2%
 REDUCED MASS        1.5748         C  1 -- H  2          +9.4% ( 38.4%)     23.2%
 EFFECTIVE MASS      6.7228
 FORCE CONSTANT      0.7815

 VIBRATION         12   12A           ATOM PAIR      ENERGY CONTRIBUTION    RADIAL
 FREQUENCY           984.12         C  1 -- H  4         +29.5% ( 66.7%)      0.3%
 TRANSITION DIPOLE   1.0324         C  1 -- H  3         +26.0% ( 62.6%)     16.7%
 TRAVEL (Ang.)       0.2588         C  1 -- H  2         +24.5% ( 60.8%)     17.3%
 REDUCED MASS        1.0228         C  1 -- N  5         +17.0% ( 50.7%)      5.2%
 EFFECTIVE MASS      4.5280
 FORCE CONSTANT      0.5837

 VIBRATION         13   13A           ATOM PAIR      ENERGY CONTRIBUTION    RADIAL
 FREQUENCY          1072.38         C  1 -- N  5         +27.8% ( 88.2%)     98.8%
 TRANSITION DIPOLE   1.7055         O  6 -- O  7         +15.1% ( 65.0%)     99.7%
 TRAVEL (Ang.)       0.1269         C  1 -- H  4         +14.7% ( 64.1%)      3.3%
 REDUCED MASS        3.9035         C  1 -- H  3         +13.8% ( 62.0%)     10.2%
 EFFECTIVE MASS     13.2719         C  1 -- H  2         +13.4% ( 61.3%)     25.5%
 FORCE CONSTANT      2.6449

 VIBRATION         14   14A           ATOM PAIR      ENERGY CONTRIBUTION    RADIAL
 FREQUENCY          1116.20         C  1 -- H  3         +44.9% ( 76.0%)      8.8%
 TRANSITION DIPOLE   0.5476         C  1 -- H  2         +33.3% ( 65.4%)      5.7%
 TRAVEL (Ang.)       0.3458         C  1 -- N  5          +7.8% ( 31.6%)      0.0%
 REDUCED MASS        0.5053         C  1 -- H  4          +5.2% ( 25.8%)     15.2%
 EFFECTIVE MASS      3.1143
 FORCE CONSTANT      0.3709

 VIBRATION         15   15A           ATOM PAIR      ENERGY CONTRIBUTION    RADIAL
 FREQUENCY          1153.96         C  1 -- H  2         +50.4% ( 71.1%)      2.4%
 TRANSITION DIPOLE   1.0484         C  1 -- H  3         +32.7% ( 57.3%)      0.8%
 TRAVEL (Ang.)       0.3196         C  1 -- N  5          +9.1% ( 30.2%)      3.0%
 REDUCED MASS        0.5720         C  1 -- H  4          +5.6% ( 23.8%)     85.9%
 EFFECTIVE MASS      2.4011
 FORCE CONSTANT      0.4488

 VIBRATION         16   16A           ATOM PAIR      ENERGY CONTRIBUTION    RADIAL
 FREQUENCY          1290.32         C  1 -- H  2         +42.8% ( 66.1%)      0.8%
 TRANSITION DIPOLE   0.9609         C  1 -- H  3         +38.2% ( 62.5%)      0.9%
 TRAVEL (Ang.)       0.3256         C  1 -- H  4          +6.9% ( 26.6%)      2.9%
 REDUCED MASS        0.4930         C  1 -- N  5          +6.9% ( 26.6%)     94.9%
 EFFECTIVE MASS      2.3307
 FORCE CONSTANT      0.4836

 VIBRATION         17   17A           ATOM PAIR      ENERGY CONTRIBUTION    RADIAL
 FREQUENCY          1371.33         H  8 -- O  9         +51.8% ( 56.2%)      8.2%
 TRANSITION DIPOLE   1.0083         O  9 -- H 10         +48.2% ( 54.2%)      8.2%
 TRAVEL (Ang.)       0.3021
 REDUCED MASS        0.5389
 EFFECTIVE MASS      1.6729
 FORCE CONSTANT      0.5971

 VIBRATION         18   18A           ATOM PAIR      ENERGY CONTRIBUTION    RADIAL
 FREQUENCY          1523.78         N  5 -- O  6         +32.1% ( 77.1%)     64.8%
 TRANSITION DIPOLE   3.6576         N  5 -- O  7         +31.5% ( 76.3%)     62.3%
 TRAVEL (Ang.)       0.0943         C  1 -- N  5         +17.8% ( 57.3%)    100.0%
 REDUCED MASS        4.9802         O  6 -- O  7         +16.1% ( 54.7%)    100.0%
 EFFECTIVE MASS     14.3006
 FORCE CONSTANT      6.8130

 VIBRATION         19   19A           ATOM PAIR      ENERGY CONTRIBUTION    RADIAL
 FREQUENCY          1649.56         N  5 -- O  7         +36.2% ( 84.7%)     89.6%
 TRANSITION DIPOLE  11.3190         N  5 -- O  6         +35.0% ( 83.3%)     87.9%
 TRAVEL (Ang.)       0.0782         C  1 -- N  5         +21.7% ( 65.6%)      0.1%
 REDUCED MASS        6.6811         O  6 -- O  7          +6.3% ( 35.3%)      0.2%
 EFFECTIVE MASS     14.2831
 FORCE CONSTANT     10.7111

 VIBRATION         20   20A           ATOM PAIR      ENERGY CONTRIBUTION    RADIAL
 FREQUENCY          1904.80         C  1 -- H  4         +91.2% ( 99.0%)    100.0%
 TRANSITION DIPOLE   1.4320         C  1 -- H  3          +2.7% ( 17.2%)     19.2%
 TRAVEL (Ang.)       0.1449         C  1 -- H  2          +2.6% ( 16.8%)     19.1%
 REDUCED MASS        1.6867         C  1 -- N  5          +2.5% ( 16.5%)      0.3%
 EFFECTIVE MASS      2.8836
 FORCE CONSTANT      3.6057

 VIBRATION         21   21A           ATOM PAIR      ENERGY CONTRIBUTION    RADIAL
 FREQUENCY          2612.11         C  1 -- H  3         +59.1% ( 79.7%)     98.4%
 TRANSITION DIPOLE   1.2619         C  1 -- H  2         +38.9% ( 64.6%)     97.1%
 TRAVEL (Ang.)       0.2222         C  1 -- N  5          +1.0% ( 10.3%)      0.0%
 REDUCED MASS        0.5229         C  1 -- H  4          +1.0% ( 10.2%)      0.0%
 EFFECTIVE MASS      1.4686
 FORCE CONSTANT      2.1022

 VIBRATION         22   22A           ATOM PAIR      ENERGY CONTRIBUTION    RADIAL
 FREQUENCY          2687.70         H  8 -- O  9         +51.4% ( 73.8%)     96.5%
 TRANSITION DIPOLE   1.8424         O  9 -- H 10         +48.4% ( 71.6%)     96.6%
 TRAVEL (Ang.)       0.2204         C  1 -- H  2          +0.1% (  3.9%)     99.2%
 REDUCED MASS        0.5165
 EFFECTIVE MASS      1.4941
 FORCE CONSTANT      2.1982

 VIBRATION         23   23A           ATOM PAIR      ENERGY CONTRIBUTION    RADIAL
 FREQUENCY          2702.49         C  1 -- H  2         +60.7% ( 76.1%)     98.0%
 TRANSITION DIPOLE   0.9747         C  1 -- H  3         +37.9% ( 60.2%)     95.2%
 TRAVEL (Ang.)       0.2243         C  1 -- H  4          +0.5% (  6.8%)      1.3%
 REDUCED MASS        0.4960         C  1 -- N  5          +0.4% (  6.4%)     20.1%
 EFFECTIVE MASS      1.2256
 FORCE CONSTANT      2.1341

 VIBRATION         24   24A           ATOM PAIR      ENERGY CONTRIBUTION    RADIAL
 FREQUENCY          2824.23         O  9 -- H 10         +51.8% ( 69.1%)    100.0%
 TRANSITION DIPOLE   0.9115         H  8 -- O  9         +48.1% ( 66.6%)    100.0%
 TRAVEL (Ang.)       0.2209
 REDUCED MASS        0.4891
 EFFECTIVE MASS      1.1752
 FORCE CONSTANT      2.2984

      SYMMETRY NUMBER FOR POINT-GROUP C1  =  1


          SYSTEM IS A GROUND STATE



 Title: ASE calculation


          MOLECULE IS NOT LINEAR

          THERE ARE 24 GENUINE VIBRATIONS IN THIS SYSTEM
          THIS THERMODYNAMICS CALCULATION IS LIMITED TO
          MOLECULES WHICH HAVE NO INTERNAL ROTATIONS




                    CALCULATED THERMODYNAMIC PROPERTIES
                                          *
   TEMP. (K)   PARTITION FUNCTION   H.O.F.    ENTHALPY  HEAT CAPACITY ENTROPY
                                   KCAL/MOL   CAL/MOLE    CAL/K/MOL  CAL/K/MOL


 298.00  VIB.     0.2350D+03                  3191.1944    18.4374    21.5583
         ROT.     0.1708D+06                   888.2803     2.9808    26.9226
         INT.     0.4013D+08                  4079.4747    21.4182    48.4809
         TRA.     0.6926D+27                  1480.4672     4.9680    39.0529
         TOT.                      -92.489    5559.9419    26.3862    87.5338

   *: NOTE: HEATS OF FORMATION ARE RELATIVE TO THE
            ELEMENTS IN THEIR STANDARD STATE AT 298K
              (=  Standard Enthalpy of Formation).

            Hvib:  Zero-point energy is not included.
                   frequencies of less than zero cm-1 are not included.
            Hrot = (3/2)RT
            Htra = (3/2)RT + pV = (5/2)RT

            Heat capacity is Cp, not Cv

          For more information, see: HTTP://OpenMOPAC.net/Manual/thermochemistry.html


           FORCE CONSTANT IN CARTESIAN COORDINATES (Millidynes/A)

    ATOM   CHEMICAL       X               Y               Z
   NUMBER   SYMBOL  FORCE CONSTANT  FORCE CONSTANT  FORCE CONSTANT

      1       C        6.917298        6.134502        6.334649
      2       H        3.971238        0.568024        0.687497
      3       H        0.850467        3.623042        0.633988
      4       H        0.768116        1.029774        3.160168
      5       N       14.180061        6.207089        9.279092
      6       O       11.815355        0.746626        1.309638
      7       O        5.830094        2.925324        5.092126
      8       H        2.563902        2.042456        0.234570
      9       O        3.488189        4.750409        0.333034
     10       H        0.809002        3.915949        0.112526

 **********************
 *                    *
 * JOB ENDED NORMALLY *
 *                    *
 **********************



 TOTAL JOB TIME:             0.45 SECONDS

 == MOPAC DONE ==
