 *******************************************************************************
 **                                                                           **
 **                              MOPAC v22.0.6                                **
 **                                                                           **
 *******************************************************************************
 **          Digital Object Identifier (DOI): 10.5281/zenodo.6511958          **
 **    Visit the DOI location for information on how to cite this program.    **
 *******************************************************************************

                              PM7 CALCULATION RESULTS

 *******************************************************************************
 *  CALCULATION DONE:                                Mon Mar 25 21:52:23 2024  *
 *  PM7        - The PM7 Hamiltonian to be used
 *  SINGLET    - SPIN STATE DEFINED AS A SINGLET
 *
 *
 *
 *                 CHARGE ON SYSTEM = 0
 *
 *
 *
 *  EPS=78.0   - USE ANDREAS KLAMT'S COSMO IMPLICIT SOLVATION MODEL
 *  LET        - OVERRIDE SOME SAFETY CHECKS
 *  THREADS    - USE A MAXIMUM OF 30 THREADS
 *  T=         - A TIME OF 14.0 DAYS REQUESTED
 *  DUMP=N     - RESTART FILE WRITTEN EVERY 30.0 MINUTES REQUESTED
 *  RELSCF     - DEFAULT SCF CRITERION MULTIPLIED BY 1.0000
 *              (DEFAULT SCF CRITERION = 0.00010)
 *  ITRY=      - DO A MAXIMUM OF 15000 ITERATIONS FOR SCF
 *  AUX        - OUTPUT AUXILIARY INFORMATION
 *  ISOTOPE    - SAVE THE FORCE MATRIX FOR USE LATER
 *  BONDS      - FINAL BOND-ORDER MATRIX TO BE PRINTED
 *  LARGE      - EXPANDED OUTPUT TO BE PRINTED
 *  THERMO     - THERMODYNAMIC QUANTITIES TO BE CALCULATED
 *******************************************************************************
PM7 AUX LARGE THERMO(298,298) LET ISOTOPE BONDS DUMP=30M ITRY=15000 T=14D THREADS=30 CHARGE=0 SINGLET eps=78.0 RELSCF=1
 Title: ASE calculation

   ATOM   CHEMICAL          X               Y               Z
  NUMBER   SYMBOL      (ANGSTROMS)     (ANGSTROMS)     (ANGSTROMS)

     1       C          0.43894599  *  -0.77639832  *   0.55622185  *
     2       H          1.00103145  *  -1.42925313  *  -0.14513711  *
     3       H          0.92667888  *   0.22334185  *   0.53474678  *
     4       D          0.56277581  *  -1.18154808  *   1.57869132  *
     5       N         -0.96542738  *  -0.66256387  *   0.18566748  *
     6       O         -1.79788890  *  -0.48800953  *   1.06559165  *
     7       O         -1.28184476  *  -0.73681258  *  -0.99344884  *
     8       H          3.76887115  *  -1.65235434  *   1.37166354  *
     9       O          2.95725465  *  -1.18060492  *   1.58833817  *
    10       H          3.17575147  *  -0.25345875  *   1.42924301  *


                                Isotopes Used

              Atom:    4  H  Default mass  1.0079,  mass used:  2.0140 amu


          CARTESIAN COORDINATES 

    NO.       ATOM           X           Y           Z

     1         C          0.4389     -0.7764      0.5562
     2         H          1.0010     -1.4293     -0.1451
     3         H          0.9267      0.2233      0.5347
     4         H          0.5628     -1.1815      1.5787
     5         N         -0.9654     -0.6626      0.1857
     6         O         -1.7979     -0.4880      1.0656
     7         O         -1.2818     -0.7368     -0.9934
     8         H          3.7689     -1.6524      1.3717
     9         O          2.9573     -1.1806      1.5883
    10         H          3.1758     -0.2535      1.4292

 General Reference for PM7:
 "Optimization of Parameters for Semiempirical Methods VI: More Modifications to the 
 NDDO Approximations and Re-optimization of Parameters", J. J. P. Stewart, J. Mol. Mod., 1:32, 19 (2013)
 https://link.springer.com/article/10.1007/s00894-012-1667-x

           Empirical Formula: C H5 N O3  =    10 atoms



      MOLECULAR POINT GROUP   :   C1  


 SINGLET STATE CALCULATION


      RHF CALCULATION, NO. OF DOUBLY OCCUPIED LEVELS = 16

  SCF CRITERION =    0.1000E-03


          HEAT OF FORMATION =     -91.922765 KCALS/MOLE


          CARTESIAN COORDINATE DERIVATIVES

   NUMBER  ATOM         X            Y            Z

     1       C     -1.323953    -0.357931     1.808867
     2       H      0.773142     0.011942     0.114672
     3       H      0.120209    -0.150864     0.067420
     4       H      0.690339     0.803091    -1.395919
     5       N      0.492089     0.281180    -0.507269
     6       O     -1.373144    -0.492657     0.951579
     7       O      0.638797     0.133466    -1.157081
     8       H     -0.256515    -0.336373    -0.273036
     9       O      0.826484    -0.125765     0.504191
    10       H     -0.587450     0.233911    -0.113427

 DIPOLE           X         Y         Z       TOTAL
 POINT-CHG.     3.046     4.743     4.992     7.530
 HYBRID        -0.048     0.077    -0.308     0.321
 SUM            2.998     4.820     4.684     7.359


          GRADIENT NORM =   3.98399


                              **** WARNING ****

           GRADIENT IS VERY LARGE FOR A THERMO CALCULATION
           RESULTS ARE LIKELY TO BE INACCURATE IF THERE ARE
           ANY LOW-LYING VIBRATIONS (LESS THAN ABOUT 400CM-1)
           GRADIENT NORM SHOULD BE LESS THAN ABOUT 1.0 FOR THERMO
           TO GIVE ACCURATE RESULTS


          TIME FOR SCF CALCULATION =    0.02

          TIME FOR DERIVATIVES     =    0.02

          MOLECULAR WEIGHT =   80.06



          ROTATIONAL CONSTANTS IN CM(-1)

          A =    0.40209109   B =    0.05739513   C =    0.05109863



           PRINCIPAL MOMENTS OF INERTIA IN UNITS OF 10**(-40)*GRAM-CM**2

          A =       69.6179   B =      487.7200   C =      547.8180


          ORIENTATION OF MOLECULE IN FORCE CALCULATION

    NO.       ATOM         X         Y         Z

     1          C       0.2016    0.2688    0.2865
     2          H       1.3125    0.2688    0.2865
     3          H      -0.1256    1.3322    0.2865
     4          H      -0.1432   -0.1820    1.2367
     5          N      -0.3419   -0.4281   -0.8717
     6          O      -1.4213   -0.9957   -0.7687
     7          O       0.2861   -0.4260   -1.9213
     8          H       1.8864    1.4745    3.1550
     9          O       1.0617    1.2877    2.6933
    10          H       0.7279    2.1600    2.4480


    FIRST DERIVATIVES WILL BE USED IN THE CALCULATION OF SECOND DERIVATIVES

          ESTIMATED TIME TO COMPLETE CALCULATION =        1.88 SECONDS

    FOR POINT-GROUP C1   THERE ARE   1 UNIQUE SYMMETRY FUNCTIONS.

 STEP:   1 TIME =     0.03 SECS, INTEGRAL =      0.03 TIME LEFT:1209599.94
 STEP:   2 TIME =     0.03 SECS, INTEGRAL =      0.06 TIME LEFT:1209599.91
 STEP:   3 TIME =     0.02 SECS, INTEGRAL =      0.08 TIME LEFT:1209599.89
 STEP:   4 TIME =     0.02 SECS, INTEGRAL =      0.09 TIME LEFT:1209599.88
 STEP:   5 TIME =     0.02 SECS, INTEGRAL =      0.11 TIME LEFT:1209599.86
 STEP:   6 TIME =     0.02 SECS, INTEGRAL =      0.12 TIME LEFT:1209599.84
 STEP:   7 TIME =     0.02 SECS, INTEGRAL =      0.14 TIME LEFT:1209599.83
 STEP:   8 TIME =     0.02 SECS, INTEGRAL =      0.16 TIME LEFT:1209599.81
 STEP:   9 TIME =     0.01 SECS, INTEGRAL =      0.16 TIME LEFT:1209599.80
 STEP:  10 TIME =     0.02 SECS, INTEGRAL =      0.18 TIME LEFT:1209599.79
 STEP:  11 TIME =     0.02 SECS, INTEGRAL =      0.20 TIME LEFT:1209599.77
 STEP:  12 TIME =     0.02 SECS, INTEGRAL =      0.21 TIME LEFT:1209599.76
 STEP:  13 TIME =     0.01 SECS, INTEGRAL =      0.22 TIME LEFT:1209599.75
 STEP:  14 TIME =     0.01 SECS, INTEGRAL =      0.23 TIME LEFT:1209599.74
 STEP:  15 TIME =     0.02 SECS, INTEGRAL =      0.24 TIME LEFT:1209599.73
 STEP:  16 TIME =     0.01 SECS, INTEGRAL =      0.25 TIME LEFT:1209599.72
 STEP:  17 TIME =     0.01 SECS, INTEGRAL =      0.26 TIME LEFT:1209599.71
 STEP:  18 TIME =     0.01 SECS, INTEGRAL =      0.27 TIME LEFT:1209599.70
 STEP:  19 TIME =     0.02 SECS, INTEGRAL =      0.28 TIME LEFT:1209599.69
 STEP:  20 TIME =     0.01 SECS, INTEGRAL =      0.29 TIME LEFT:1209599.68
 STEP:  21 TIME =     0.01 SECS, INTEGRAL =      0.30 TIME LEFT:1209599.67
 STEP:  22 TIME =     0.01 SECS, INTEGRAL =      0.30 TIME LEFT:1209599.66
 STEP:  23 TIME =     0.02 SECS, INTEGRAL =      0.32 TIME LEFT:1209599.65
 STEP:  24 TIME =     0.01 SECS, INTEGRAL =      0.33 TIME LEFT:1209599.64
 STEP:  25 TIME =     0.01 SECS, INTEGRAL =      0.34 TIME LEFT:1209599.63
 STEP:  26 TIME =     0.01 SECS, INTEGRAL =      0.34 TIME LEFT:1209599.62
 STEP:  27 TIME =     0.02 SECS, INTEGRAL =      0.36 TIME LEFT:1209599.61
 STEP:  28 TIME =     0.01 SECS, INTEGRAL =      0.37 TIME LEFT:1209599.60
 STEP:  29 TIME =     0.01 SECS, INTEGRAL =      0.38 TIME LEFT:1209599.59
 STEP:  30 TIME =     0.01 SECS, INTEGRAL =      0.38 TIME LEFT:1209599.59

(To convert to Hartree/Bohr^2, multiply by (10^(-21) x N x a0^2)/(4.184 x 627.51) =  0.0642)


           FORCE MATRIX IN MILLIDYNES/ANGSTROM


                  C  1       H  2       H  3       H  4       N  5       O  6
 ------------------------------------------------------------------------------
     C    1  11.033022
     H    2   3.195074   4.039488
     H    3   3.121783   0.447186   3.984430
     H    4   3.227096   0.431047   0.433121   4.036900
     N    5   3.413061   0.873538   0.940755   0.856555  18.916196
     O    6   1.288141   0.087170   0.086961   0.056743   9.215974  12.002060
     O    7   1.262395   0.051200   0.078192   0.097657   9.262368   2.743839
     H    8   0.012696   0.012635   0.005741   0.012698   0.009050   0.004736
     O    9   0.050921   0.013451   0.010512   0.024324   0.032995   0.022301
     H   10   0.003697   0.008764   0.017756   0.011893   0.013682   0.007391


                  O  7       H  8       O  9       H 10
 ------------------------------------------------------
     O    7  12.014136
     H    8   0.004784   4.302150
     O    9   0.024667   3.897372   6.113273
     H   10   0.008491   0.850007   3.883575   4.313484


          HEAT OF FORMATION =     -91.922765 KCALS/MOLE


          TRIVIAL VIBRATIONS, SHOULD BE ZERO

  12.9982=TX  47.7399=TY -26.6323=TZ  42.7729=RX  -9.9301=RY  33.0220=RZ


      MOLECULAR POINT GROUP   :   C1  


           EIGENVECTORS  


   Root No.       1         2         3         4         5         6         7         8

                 1 A       2 A       3 A       4 A       5 A       6 A       7 A       8 A   

                  -0.1      -0.0      -0.0      -0.0       0.0       0.0       0.1       0.6
  
           1   -0.0268    0.0386    0.2066   -0.0221   -0.0587    0.0931   -0.1029    0.1349
           2    0.0023    0.0057   -0.0136    0.1754    0.1587   -0.0317   -0.1122    0.0086
           3   -0.0130    0.0045   -0.0974   -0.1234   -0.0564   -0.0891   -0.1315   -0.0709
           4   -0.0254    0.0391    0.2028   -0.0180   -0.0611    0.0896   -0.1030    0.1152
           5   -0.0537   -0.1241   -0.0230    0.0337    0.4948   -0.0428   -0.0865    0.2716
           6    0.0075    0.0352   -0.3594   -0.0297   -0.1465   -0.1928   -0.1195    0.5384
           7    0.0221    0.1498    0.2257    0.1061   -0.4094    0.1034   -0.1310   -0.0227
           8    0.0172    0.0401   -0.0070    0.2143    0.0507   -0.0280   -0.1211   -0.0376
           9   -0.0249   -0.0354   -0.0014   -0.4644   -0.0709   -0.0476   -0.0998   -0.1586
          10   -0.0591   -0.0432    0.4155   -0.1477    0.1499    0.1668   -0.0980   -0.1588
          11    0.0163    0.0577   -0.0163    0.4795    0.0981   -0.0120   -0.1471   -0.3227
          12   -0.0182   -0.0006   -0.0203   -0.0251   -0.0068   -0.0536   -0.1500   -0.3138
          13   -0.0416   -0.0005   -0.0806    0.0029    0.0387   -0.0363   -0.0602    0.1290
          14    0.0229    0.0427    0.0124   -0.0945   -0.0604   -0.0315   -0.0820    0.0135
          15   -0.0174   -0.0026    0.0221    0.0278    0.0296   -0.0269   -0.1731   -0.0745
          16   -0.0628   -0.0464   -0.0916    0.1830   -0.0933   -0.1981   -0.0505    0.0471
          17    0.0625    0.1302    0.0759   -0.3959    0.1816    0.2789   -0.1086    0.1996
          18   -0.0274   -0.0149    0.2581    0.2274   -0.0218   -0.0082   -0.2290    0.3381
          19   -0.0311    0.0162   -0.3069   -0.1480    0.2433    0.0158   -0.0302   -0.2564
          20    0.0017   -0.0072   -0.0279   -0.0023   -0.4599   -0.3361   -0.0257   -0.1461
          21   -0.0114    0.0081   -0.1116   -0.0659    0.1524    0.0039   -0.1550   -0.2806
          22   -0.0883    0.2761   -0.3097    0.0414    0.0455    0.0510    0.2006    0.0048
          23    0.4758    0.3467   -0.0242   -0.1476   -0.1290    0.0747    0.2194    0.0054
          24    0.5181   -0.4003    0.2846    0.1018    0.0746   -0.0633    0.3238    0.0031
          25    0.4486   -0.1496   -0.2924    0.0461   -0.0052    0.1245    0.0901   -0.0006
          26   -0.1683   -0.1262    0.0088   -0.1368   -0.1559    0.0531    0.2340    0.0023
          27   -0.2127    0.5485    0.2279    0.0923    0.1721   -0.1730    0.5071    0.0103
          28   -0.1356   -0.2802    0.0307   -0.0436    0.1504   -0.4097    0.2852    0.0075
          29   -0.3766   -0.3656    0.0149   -0.1258   -0.1787    0.0753    0.2298    0.0055
          30   -0.2005   -0.1424   -0.2026    0.2591   -0.1263    0.6507    0.2270    0.0086


   Root No.       9        10        11        12        13        14        15        16

                 9 A      10 A      11 A      12 A      13 A      14 A      15 A      16 A   

                   0.7       1.0       1.2       1.4       2.1       2.5       3.2       4.2
  
           1   -0.0443   -0.1675   -0.1791   -0.0592    0.0021   -0.2028   -0.1315    0.0137
           2    0.1417   -0.0639    0.3287   -0.0851   -0.0018   -0.0683   -0.1707   -0.0187
           3   -0.0783    0.1116   -0.0971   -0.1405   -0.0001    0.1378   -0.2822    0.0071
           4   -0.0424   -0.1737   -0.2161   -0.0884    0.0046   -0.4405   -0.4068    0.1746
           5    0.1025    0.4218   -0.4100    0.2228   -0.0005   -0.0217    0.0390    0.0611
           6   -0.2784   -0.0026    0.2502    0.4025    0.0037   -0.1843    0.0666    0.0509
           7    0.2892    0.5307   -0.1130    0.2288   -0.0011    0.1057    0.1553    0.0217
           8    0.2358    0.1577    0.4040   -0.0288   -0.0046    0.0374   -0.3571   -0.3356
           9    0.5727   -0.3196   -0.0191    0.3518   -0.0003   -0.0640    0.0610   -0.1228
          10   -0.3852    0.0716    0.4737    0.2832   -0.0010   -0.0075    0.1608   -0.0369
          11   -0.0908   -0.4109   -0.2350    0.3565    0.0059   -0.1045    0.2126   -0.0036
          12   -0.3049    0.0414   -0.1666    0.1611    0.0013    0.4818   -0.2963    0.1800
          13   -0.0224   -0.1615   -0.0989   -0.0759    0.0004    0.2759   -0.0519   -0.3899
          14    0.0835   -0.0530    0.1684   -0.1084   -0.0029    0.0846   -0.0542    0.6934
          15   -0.0556    0.1023   -0.0594   -0.1649    0.0054   -0.1863   -0.1078   -0.2419
          16    0.1344   -0.1467    0.0655   -0.0877   -0.0022    0.2719   -0.0585    0.1059
          17   -0.1893   -0.1283   -0.1245   -0.1534   -0.0008    0.2181    0.0989   -0.1948
          18    0.1410   -0.1629    0.0411   -0.3447   -0.0032    0.1981    0.4178    0.0697
          19    0.0579    0.0450    0.0751   -0.2017    0.0049   -0.0040    0.3310    0.1109
          20   -0.2778    0.0790   -0.1343   -0.1912    0.0028   -0.1397    0.2321   -0.2002
          21   -0.0063    0.2254    0.0490   -0.2600    0.0075   -0.3855    0.1410    0.0536
          22    0.0036    0.0021   -0.0025    0.0042   -0.3301   -0.0024    0.0025    0.0006
          23    0.0049    0.0006    0.0003    0.0021    0.4565    0.0032   -0.0007   -0.0001
          24    0.0021   -0.0015   -0.0012   -0.0024   -0.2350   -0.0016    0.0003    0.0006
          25    0.0009    0.0002   -0.0063   -0.0014   -0.2013    0.0000   -0.0002    0.0002
          26   -0.0056   -0.0015   -0.0014   -0.0067   -0.4382   -0.0061    0.0002   -0.0017
          27    0.0099    0.0026   -0.0008    0.0038   -0.1086   -0.0014    0.0009    0.0006
          28    0.0082   -0.0002    0.0016   -0.0020    0.5236    0.0036   -0.0007   -0.0008
          29   -0.0050   -0.0016    0.0039   -0.0079   -0.0165   -0.0031   -0.0001    0.0001
          30   -0.0020    0.0033    0.0039   -0.0068    0.3292    0.0053   -0.0013    0.0022


   Root No.      17        18        19        20        21        22        23        24

                17 A      18 A      19 A      20 A      21 A      22 A      23 A      24 A   

                   5.9       7.1       8.5       9.0       9.2       9.5      20.3      23.1
  
           1   -0.1134    0.0034   -0.2627   -0.0035    0.6371    0.4418   -0.0318   -0.0230
           2   -0.1584   -0.0029    0.7472    0.0072    0.1787    0.1904   -0.0174   -0.0056
           3   -0.2466    0.0072   -0.0712    0.0334   -0.4998    0.6112   -0.0544    0.0167
           4    0.3697   -0.0039    0.1752    0.0022   -0.3553   -0.2127   -0.0180   -0.0046
           5    0.0260    0.0001   -0.0339    0.0000   -0.0035    0.0080   -0.0072   -0.0049
           6    0.0534    0.0011   -0.0025   -0.0009    0.0354   -0.0105   -0.0080   -0.0143
           7   -0.0811    0.0002    0.1555    0.0013   -0.0311   -0.0137    0.0033    0.0043
           8    0.3626    0.0017   -0.4442   -0.0032    0.0029   -0.0003   -0.0276   -0.0013
           9    0.0517    0.0009    0.0228   -0.0008    0.0180   -0.0144   -0.0087   -0.0017
          10   -0.0798    0.0032   -0.0443    0.0058   -0.1511    0.0255    0.0029    0.0064
          11   -0.1064    0.0022   -0.1124    0.0054   -0.1678    0.0622   -0.0018    0.0096
          12    0.3372   -0.0056    0.1558   -0.0128    0.3197   -0.1272   -0.0206    0.0101
          13   -0.1622   -0.0035    0.0418   -0.0056   -0.0382   -0.1780    0.2547    0.6237
          14   -0.2193    0.0018   -0.2315   -0.0076    0.0026   -0.1506    0.3092    0.2050
          15   -0.3474   -0.0040   -0.0455   -0.0145    0.0669   -0.3243    0.5126   -0.4295
          16   -0.2641   -0.0004   -0.0928   -0.0076   -0.0454   -0.2536   -0.4755   -0.3801
          17   -0.0539   -0.0005    0.0159   -0.0030   -0.0479   -0.1324   -0.2515   -0.2011
          18    0.2736   -0.0001    0.0079    0.0040   -0.0600    0.0743    0.0365    0.0367
          19    0.3306   -0.0015    0.0283    0.0061   -0.0182    0.1913    0.2645   -0.2272
          20    0.1479   -0.0010    0.0571    0.0003    0.0328    0.0239   -0.0040   -0.0007
          21   -0.1232   -0.0016   -0.0672   -0.0108    0.1197   -0.2077   -0.4583    0.3811
          22   -0.0018   -0.4524   -0.0004   -0.4127   -0.0113    0.0171   -0.0011    0.0002
          23   -0.0001   -0.0882   -0.0002   -0.0962   -0.0023    0.0045   -0.0002   -0.0001
          24   -0.0009   -0.2446    0.0001   -0.2273   -0.0069    0.0102   -0.0006    0.0001
          25    0.0014    0.2599   -0.0025    0.5756    0.0169   -0.0222    0.0013    0.0005
          26    0.0024    0.5854    0.0071   -0.3175   -0.0053    0.0046    0.0011   -0.0005
          27    0.0007    0.1125   -0.0019    0.3496    0.0099   -0.0152    0.0022    0.0001
          28    0.0007    0.1951    0.0018   -0.1615   -0.0034    0.0045   -0.0002   -0.0002
          29   -0.0008   -0.4986   -0.0051    0.4147    0.0098   -0.0103   -0.0006   -0.0005
          30    0.0014    0.1342    0.0017   -0.1199   -0.0029    0.0036   -0.0007    0.0006


          FORCE CONSTANTS IN MILLIDYNES/ANGSTROM (= 10**5 DYNES/CM)

  -0.14963  -0.04369  -0.01100  -0.00343   0.00436   0.01894   0.05056   0.64671
   0.71227   0.99702   1.21861   1.38550   2.12214   2.54271   3.18251   4.17593
   5.94934   7.09429   8.53645   9.03303   9.23116   9.50606  20.30543  23.10764


           ASSOCIATED EIGENVECTORS




    ROOT NO.    1           2           3           4           5           6

            -0.14963    -0.04369    -0.01100    -0.00343     0.00436     0.01894
  
         1  -0.02676     0.03864     0.20659    -0.02211    -0.05874     0.09307
         2   0.00229     0.00568    -0.01357     0.17537     0.15870    -0.03169
         3  -0.01303     0.00447    -0.09738    -0.12342    -0.05640    -0.08915
         4  -0.02545     0.03905     0.20276    -0.01804    -0.06107     0.08963
         5  -0.05367    -0.12408    -0.02302     0.03375     0.49484    -0.04278
         6   0.00747     0.03515    -0.35940    -0.02966    -0.14650    -0.19283
         7   0.02211     0.14979     0.22570     0.10613    -0.40943     0.10345
         8   0.01718     0.04010    -0.00702     0.21430     0.05066    -0.02797
         9  -0.02490    -0.03538    -0.00139    -0.46435    -0.07087    -0.04756
        10  -0.05909    -0.04321     0.41549    -0.14773     0.14985     0.16679
        11   0.01628     0.05767    -0.01633     0.47947     0.09805    -0.01197
        12  -0.01815    -0.00065    -0.02035    -0.02513    -0.00682    -0.05358
        13  -0.04156    -0.00052    -0.08063     0.00291     0.03870    -0.03634
        14   0.02287     0.04270     0.01244    -0.09447    -0.06041    -0.03146
        15  -0.01737    -0.00258     0.02213     0.02778     0.02957    -0.02693
        16  -0.06276    -0.04637    -0.09159     0.18302    -0.09331    -0.19814
        17   0.06249     0.13020     0.07591    -0.39592     0.18164     0.27886
        18  -0.02740    -0.01485     0.25811     0.22739    -0.02179    -0.00818
        19  -0.03111     0.01619    -0.30694    -0.14802     0.24326     0.01581
        20   0.00167    -0.00719    -0.02792    -0.00231    -0.45988    -0.33615
        21  -0.01142     0.00812    -0.11160    -0.06589     0.15237     0.00390
        22  -0.08835     0.27614    -0.30974     0.04139     0.04554     0.05098
        23   0.47578     0.34673    -0.02420    -0.14759    -0.12900     0.07470
        24   0.51805    -0.40034     0.28456     0.10182     0.07456    -0.06333
        25   0.44858    -0.14956    -0.29236     0.04611    -0.00516     0.12449
        26  -0.16828    -0.12622     0.00883    -0.13682    -0.15586     0.05313
        27  -0.21274     0.54846     0.22789     0.09233     0.17213    -0.17301
        28  -0.13562    -0.28015     0.03072    -0.04364     0.15036    -0.40973
        29  -0.37660    -0.36560     0.01489    -0.12577    -0.17874     0.07534
        30  -0.20051    -0.14241    -0.20257     0.25913    -0.12626     0.65067




    ROOT NO.    7           8           9          10          11          12

             0.05056     0.64671     0.71227     0.99702     1.21861     1.38550
  
         1  -0.10288     0.13494    -0.04426    -0.16747    -0.17909    -0.05922
         2  -0.11224     0.00857     0.14166    -0.06391     0.32869    -0.08513
         3  -0.13148    -0.07090    -0.07832     0.11159    -0.09715    -0.14047
         4  -0.10305     0.11524    -0.04242    -0.17371    -0.21606    -0.08835
         5  -0.08646     0.27156     0.10252     0.42185    -0.41003     0.22283
         6  -0.11950     0.53835    -0.27843    -0.00258     0.25018     0.40251
         7  -0.13104    -0.02273     0.28916     0.53067    -0.11297     0.22885
         8  -0.12114    -0.03761     0.23583     0.15771     0.40401    -0.02877
         9  -0.09979    -0.15861     0.57268    -0.31962    -0.01911     0.35181
        10  -0.09803    -0.15883    -0.38521     0.07165     0.47367     0.28324
        11  -0.14709    -0.32271    -0.09078    -0.41088    -0.23502     0.35650
        12  -0.15004    -0.31382    -0.30494     0.04139    -0.16662     0.16115
        13  -0.06023     0.12895    -0.02235    -0.16154    -0.09888    -0.07591
        14  -0.08195     0.01346     0.08349    -0.05300     0.16844    -0.10840
        15  -0.17311    -0.07448    -0.05565     0.10229    -0.05944    -0.16489
        16  -0.05050     0.04707     0.13443    -0.14673     0.06547    -0.08768
        17  -0.10857     0.19962    -0.18929    -0.12825    -0.12455    -0.15337
        18  -0.22898     0.33814     0.14098    -0.16289     0.04110    -0.34471
        19  -0.03020    -0.25639     0.05794     0.04502     0.07507    -0.20171
        20  -0.02573    -0.14607    -0.27782     0.07898    -0.13433    -0.19118
        21  -0.15498    -0.28060    -0.00630     0.22539     0.04904    -0.26002
        22   0.20064     0.00481     0.00360     0.00214    -0.00254     0.00423
        23   0.21943     0.00537     0.00491     0.00061     0.00026     0.00214
        24   0.32377     0.00308     0.00208    -0.00147    -0.00116    -0.00238
        25   0.09009    -0.00057     0.00090     0.00018    -0.00631    -0.00141
        26   0.23398     0.00233    -0.00556    -0.00150    -0.00139    -0.00674
        27   0.50713     0.01028     0.00991     0.00263    -0.00079     0.00376
        28   0.28520     0.00750     0.00820    -0.00021     0.00163    -0.00204
        29   0.22976     0.00548    -0.00496    -0.00160     0.00391    -0.00789
        30   0.22698     0.00856    -0.00201     0.00326     0.00395    -0.00676




    ROOT NO.   13          14          15          16          17          18

             2.12214     2.54271     3.18251     4.17593     5.94934     7.09429
  
         1   0.00214    -0.20276    -0.13145     0.01373    -0.11344     0.00337
         2  -0.00179    -0.06831    -0.17074    -0.01868    -0.15840    -0.00294
         3  -0.00006     0.13784    -0.28218     0.00708    -0.24658     0.00724
         4   0.00463    -0.44049    -0.40684     0.17460     0.36969    -0.00393
         5  -0.00051    -0.02168     0.03905     0.06113     0.02602     0.00011
         6   0.00374    -0.18432     0.06657     0.05091     0.05343     0.00113
         7  -0.00111     0.10567     0.15528     0.02169    -0.08106     0.00021
         8  -0.00459     0.03743    -0.35707    -0.33564     0.36257     0.00171
         9  -0.00026    -0.06398     0.06102    -0.12283     0.05166     0.00093
        10  -0.00096    -0.00745     0.16078    -0.03686    -0.07984     0.00319
        11   0.00595    -0.10450     0.21255    -0.00364    -0.10635     0.00222
        12   0.00135     0.48178    -0.29631     0.18002     0.33719    -0.00562
        13   0.00039     0.27587    -0.05188    -0.38991    -0.16216    -0.00345
        14  -0.00287     0.08463    -0.05417     0.69341    -0.21930     0.00176
        15   0.00543    -0.18627    -0.10781    -0.24186    -0.34744    -0.00403
        16  -0.00215     0.27193    -0.05850     0.10592    -0.26407    -0.00042
        17  -0.00080     0.21812     0.09890    -0.19476    -0.05394    -0.00046
        18  -0.00321     0.19812     0.41781     0.06969     0.27362    -0.00011
        19   0.00488    -0.00398     0.33096     0.11090     0.33057    -0.00155
        20   0.00283    -0.13967     0.23209    -0.20019     0.14792    -0.00100
        21   0.00751    -0.38552     0.14101     0.05357    -0.12315    -0.00161
        22  -0.33014    -0.00243     0.00255     0.00059    -0.00183    -0.45241
        23   0.45646     0.00315    -0.00071    -0.00007    -0.00010    -0.08823
        24  -0.23503    -0.00157     0.00030     0.00061    -0.00086    -0.24464
        25  -0.20133     0.00002    -0.00023     0.00017     0.00142     0.25993
        26  -0.43817    -0.00611     0.00017    -0.00170     0.00237     0.58539
        27  -0.10865    -0.00137     0.00087     0.00065     0.00071     0.11254
        28   0.52365     0.00364    -0.00068    -0.00083     0.00071     0.19505
        29  -0.01652    -0.00306    -0.00005     0.00014    -0.00079    -0.49855
        30   0.32917     0.00529    -0.00127     0.00216     0.00143     0.13415




    ROOT NO.   19          20          21          22          23          24

             8.53645     9.03303     9.23116     9.50606    20.30543    23.10764
  
         1  -0.26272    -0.00348     0.63711     0.44180    -0.03176    -0.02303
         2   0.74716     0.00716     0.17869     0.19040    -0.01736    -0.00556
         3  -0.07119     0.03337    -0.49980     0.61118    -0.05441     0.01666
         4   0.17517     0.00216    -0.35530    -0.21273    -0.01800    -0.00459
         5  -0.03388     0.00002    -0.00349     0.00798    -0.00721    -0.00490
         6  -0.00253    -0.00088     0.03536    -0.01047    -0.00798    -0.01428
         7   0.15553     0.00130    -0.03114    -0.01370     0.00328     0.00427
         8  -0.44416    -0.00320     0.00294    -0.00033    -0.02764    -0.00129
         9   0.02282    -0.00081     0.01802    -0.01437    -0.00871    -0.00166
        10  -0.04430     0.00579    -0.15107     0.02552     0.00289     0.00640
        11  -0.11238     0.00544    -0.16775     0.06224    -0.00181     0.00962
        12   0.15579    -0.01284     0.31974    -0.12724    -0.02060     0.01014
        13   0.04183    -0.00562    -0.03824    -0.17799     0.25469     0.62374
        14  -0.23145    -0.00762     0.00261    -0.15055     0.30922     0.20499
        15  -0.04555    -0.01449     0.06693    -0.32433     0.51260    -0.42947
        16  -0.09276    -0.00755    -0.04538    -0.25360    -0.47553    -0.38006
        17   0.01591    -0.00304    -0.04793    -0.13241    -0.25151    -0.20114
        18   0.00793     0.00398    -0.06002     0.07429     0.03653     0.03673
        19   0.02831     0.00607    -0.01817     0.19128     0.26450    -0.22724
        20   0.05707     0.00025     0.03282     0.02392    -0.00401    -0.00068
        21  -0.06718    -0.01075     0.11971    -0.20766    -0.45832     0.38112
        22  -0.00042    -0.41275    -0.01133     0.01710    -0.00115     0.00018
        23  -0.00021    -0.09621    -0.00231     0.00446    -0.00020    -0.00005
        24   0.00011    -0.22729    -0.00689     0.01018    -0.00062     0.00011
        25  -0.00245     0.57563     0.01692    -0.02219     0.00131     0.00051
        26   0.00706    -0.31747    -0.00534     0.00458     0.00112    -0.00050
        27  -0.00195     0.34959     0.00986    -0.01515     0.00217     0.00005
        28   0.00182    -0.16154    -0.00340     0.00452    -0.00023    -0.00019
        29  -0.00512     0.41466     0.00976    -0.01028    -0.00057    -0.00050
        30   0.00174    -0.11989    -0.00291     0.00357    -0.00065     0.00059

          ZERO POINT ENERGY      36.874 KCAL/MOL

         NOTE: SYSTEM IS NOT A GROUND STATE, THEREFORE ZERO POINT
         ENERGY IS NOT MEANINGFULL. ZERO POINT ENERGY PRINTED
         DOES NOT INCLUDE THE  4 IMAGINARY FREQUENCIES


           FREQUENCIES, REDUCED MASSES AND VIBRATIONAL DIPOLES



   I         1         2         3         4         5         6
 FREQ(I) -440.0765 -244.8767 -194.0396  -38.9664   21.7687   99.1069

 MASS(I)   0.55377   0.63785   0.47888   2.47707   2.74309   7.06244

 DIPX(I)  -0.72833   0.05352  -0.03976   0.75925  -0.03032   0.37135
 DIPY(I)   0.40802  -0.07581   0.07605  -0.15144   0.44906  -0.20599
 DIPZ(I)   0.11712   0.94367  -0.24730  -0.35189  -0.41319  -0.51345

 DIPT(I)   0.84301   0.94822   0.26176   0.85042   0.61098   0.66631


   I         7         8         9        10        11        12
 FREQ(I)  214.0123  443.2113  563.2781  645.0251  903.2256  986.8366

 MASS(I)   0.85344   2.25266   4.91006   3.86735   1.32981   1.07384

 DIPX(I)  -0.60617  -0.20368  -0.22755  -0.85134  -0.04488   0.88480
 DIPY(I)   0.07631  -0.06266   0.42184  -1.04789   0.29626  -0.88785
 DIPZ(I)   1.07671   0.15970  -0.25819  -1.67965  -0.04829  -0.32059

 DIPT(I)   1.23797   0.26630   0.54442   2.15501   0.30350   1.29380


   I        13        14        15        16        17        18
 FREQ(I) 1059.3122 1125.6740 1167.4812 1258.1181 1422.6758 1516.5535

 MASS(I)   3.70312   0.53766   0.55770   0.49110   0.53972   5.05554

 DIPX(I)  -0.86546  -0.09843  -0.24310   0.57223   0.26192   1.23010
 DIPY(I)  -0.81418  -0.29230  -0.52185   0.56220   0.79044   1.81066
 DIPZ(I)  -0.97167   0.29346   0.59291   0.51150   0.13450   3.08567

 DIPT(I)   1.53495   0.42573   0.82642   0.95140   0.84350   3.78325


   I        19        20        21        22        23        24
 FREQ(I) 1639.6322 1933.7098 2590.5376 2691.1760 2695.0602 2817.1555

 MASS(I)   6.73756   1.70257   0.51324   0.48620   0.51666   0.48909

 DIPX(I)   9.33823  -0.36116  -0.91742   0.60209  -1.37826   0.33604
 DIPY(I)   3.14779  -0.53307   0.95182   0.82266   0.74865   0.78975
 DIPZ(I)  -6.41334   0.96903   0.02331   0.09465  -0.84661   0.18016

 DIPT(I)  11.75764   1.16345   1.32218   1.02383   1.78236   0.87697


   I        25        26        27        28        29        30
 FREQ(I)    0.0560    0.0552    0.0548  -85.0696  -34.9034  -17.3553

 MASS(I)   2.61778   2.61778   2.61778   6.06385   5.49371   4.89987

 DIPX(I)  -0.00572  -0.05243   0.04066   0.39539  -0.28745   0.30571
 DIPY(I)   0.01760  -0.05178   0.01626  -0.18403   0.35464   0.09150
 DIPZ(I)  -0.04757   0.02557  -0.02862  -0.02557  -0.20446  -0.39302

 DIPT(I)   0.05104   0.07800   0.05232   0.43687   0.50021   0.50626


           NORMAL COORDINATE ANALYSIS (Total motion = 1 Angstrom)


   Root No.       1         2         3         4         5         6         7         8

                 1 A       2 A       3 A       4 A       5 A       6 A       7 A       8 A   

                -440.1    -244.9    -194.0     -39.0      21.8      99.1     214.0     443.2
  
           1    0.0017   -0.0050   -0.0107    0.1157   -0.0169   -0.0307    0.0046    0.0594
           2   -0.0021    0.0055    0.0075   -0.0395    0.1144   -0.0516   -0.0035    0.0144
           3   -0.0020   -0.0001   -0.0009   -0.0366   -0.0726   -0.0179   -0.0142   -0.0398
           4    0.0019   -0.0057   -0.0131    0.1150   -0.0163   -0.0306    0.0040    0.0684
           5   -0.0188    0.0535    0.2531   -0.0769    0.1476   -0.0588   -0.0060   -0.0310
           6    0.0036   -0.0220   -0.1240   -0.1153   -0.0792   -0.0066   -0.0172   -0.2108
           7    0.0133   -0.0504   -0.2480    0.1618   -0.0586   -0.0226    0.0142    0.1379
           8    0.0015   -0.0085   -0.0652   -0.0254    0.1019   -0.0490   -0.0008    0.0393
           9   -0.0110    0.0254    0.1407    0.0042   -0.1564   -0.0016   -0.0060   -0.0934
          10   -0.0062    0.0332    0.1866    0.1632    0.0040   -0.0408    0.0079    0.2030
          11    0.0014   -0.0203   -0.1482   -0.0394    0.1780   -0.0633    0.0045    0.1274
          12   -0.0028    0.0018   -0.0015   -0.0192   -0.0347   -0.0282   -0.0099    0.0513
          13   -0.0023   -0.0009   -0.0000    0.0120   -0.0013   -0.0210   -0.0033   -0.0597
          14    0.0010   -0.0000    0.0015   -0.0013    0.0031   -0.0247   -0.0051   -0.0222
          15   -0.0017    0.0018   -0.0022   -0.0109   -0.0132   -0.0408   -0.0097    0.0397
          16   -0.0065    0.0033   -0.0155   -0.0009    0.0177   -0.0217   -0.0100   -0.0528
          17    0.0095   -0.0083    0.0273    0.0346   -0.0225   -0.0276    0.0071   -0.0490
          18   -0.0015    0.0043   -0.0092    0.0536    0.0339   -0.0656   -0.0094   -0.0738
          19   -0.0009   -0.0031    0.0162   -0.0573   -0.0057   -0.0112   -0.0020    0.0224
          20   -0.0036    0.0031   -0.0281   -0.0093   -0.0538    0.0011   -0.0230    0.0414
          21   -0.0007    0.0005    0.0092   -0.0517   -0.0168   -0.0346   -0.0097    0.0848
          22   -0.1962   -0.2179    0.0253   -0.0706    0.0144    0.0859   -0.0338   -0.0002
          23    0.4138   -0.1931    0.0306    0.0034   -0.0446    0.0669   -0.0023    0.0010
          24    0.2712    0.4463   -0.0518    0.0470    0.0441    0.1208    0.1133   -0.0036
          25    0.0355    0.0030    0.0001   -0.0714    0.0028    0.0646    0.0333   -0.0003
          26   -0.0192    0.0062   -0.0004    0.0155   -0.0446    0.0915    0.0196   -0.0003
          27    0.0016   -0.0360    0.0063    0.0426    0.0647    0.1477   -0.0063   -0.0027
          28   -0.2422    0.2276   -0.0223   -0.0197    0.0363    0.2026   -0.3460   -0.0014
          29   -0.1791    0.1078   -0.0159    0.0193   -0.0474    0.0941    0.0525   -0.0014
          30   -0.2011    0.0188   -0.0187   -0.0167    0.0101   -0.0310    0.6381   -0.0051


   Root No.       9        10        11        12        13        14        15        16

                 9 A      10 A      11 A      12 A      13 A      14 A      15 A      16 A   

                 563.3     645.0     903.2     986.8    1059.3    1125.7    1167.5    1258.1
  
           1    0.0028   -0.0436   -0.0686   -0.0657    0.1143   -0.0354    0.0263   -0.0190
           2    0.0109   -0.0621   -0.0697    0.0669    0.1063    0.0314    0.0245   -0.0240
           3   -0.0057   -0.1148    0.0501    0.0207    0.1472   -0.0126   -0.0562   -0.0486
           4    0.0096   -0.0443   -0.0590   -0.0465    0.0754   -0.0184    0.0082   -0.0154
           5   -0.1746   -0.0452   -0.1088   -0.2219    0.0903   -0.1694   -0.3079    0.2817
           6   -0.0710   -0.1084   -0.0893    0.1366    0.1077   -0.3138    0.3094    0.3056
           7    0.1914   -0.0470   -0.0499    0.2066   -0.0368    0.0980   -0.3068    0.2728
           8    0.0531   -0.0627   -0.0532    0.1183    0.0228    0.0458   -0.0953    0.0694
           9    0.2196   -0.1327   -0.0038   -0.1446    0.1900    0.4168    0.1883    0.2532
          10    0.0014   -0.0544    0.2322    0.2250   -0.0787   -0.0550    0.0694    0.0522
          11   -0.1589   -0.0615    0.3051   -0.1804    0.0304    0.0455    0.0584    0.0582
          12   -0.0805   -0.1227    0.3200    0.0038    0.0302   -0.0053   -0.0011    0.0220
          13   -0.0881   -0.0343   -0.0218    0.0146   -0.0433    0.0248    0.0020    0.0091
          14    0.1486   -0.0557    0.0362   -0.0364   -0.0595   -0.0456    0.0013   -0.0021
          15   -0.0483   -0.0686   -0.0499   -0.0043   -0.0899    0.0174    0.0010    0.0038
          16    0.0261   -0.0541    0.0159   -0.0062   -0.1043    0.0065   -0.0057   -0.0212
          17   -0.0571    0.0216    0.0048    0.0067   -0.0503    0.0129   -0.0042   -0.0106
          18    0.0202    0.1437    0.0240    0.0031    0.0224   -0.0009   -0.0025    0.0016
          19    0.0350    0.1286    0.0328    0.0045    0.0643    0.0001   -0.0051    0.0045
          20   -0.0528    0.0867   -0.0109    0.0042    0.0122    0.0056    0.0022    0.0017
          21    0.0263    0.0314   -0.0509   -0.0148   -0.0759   -0.0104    0.0128   -0.0062
          22    0.0017    0.0008    0.0000    0.0017   -0.0015   -0.0004    0.0015    0.0015
          23    0.0011   -0.0069    0.0007   -0.0013    0.0020    0.0054    0.0040    0.0129
          24   -0.0005    0.0021   -0.0015   -0.0004    0.0001   -0.0011   -0.0012   -0.0020
          25    0.0006    0.0010   -0.0004   -0.0005   -0.0003    0.0001   -0.0008   -0.0004
          26   -0.0008    0.0020   -0.0014    0.0001   -0.0006   -0.0006   -0.0000   -0.0018
          27    0.0011    0.0005   -0.0011   -0.0002   -0.0006   -0.0001   -0.0002    0.0000
          28    0.0051   -0.0028   -0.0028    0.0022   -0.0000    0.0025    0.0029    0.0085
          29   -0.0002    0.0038   -0.0025    0.0020   -0.0006    0.0006    0.0030    0.0048
          30   -0.0047    0.0169   -0.0040    0.0033   -0.0037   -0.0038    0.0013   -0.0030


   Root No.      17        18        19        20        21        22        23        24

                17 A      18 A      19 A      20 A      21 A      22 A      23 A      24 A   

                1422.7    1516.6    1639.6    1933.7    2590.5    2691.2    2695.1    2817.2
  
           1    0.0004   -0.0174   -0.0245    0.0403    0.0430   -0.0234    0.0011   -0.0001
           2   -0.0003   -0.0170   -0.0069    0.0519   -0.0342   -0.0239    0.0015   -0.0003
           3    0.0019   -0.0379    0.0189   -0.0988    0.0001   -0.0015   -0.0000    0.0001
           4    0.0003    0.0273    0.0127   -0.0267   -0.4198    0.4726   -0.0259    0.0049
           5   -0.0031   -0.1092   -0.0631    0.0211   -0.0232   -0.0083   -0.0002    0.0001
           6   -0.0101   -0.1092   -0.1733   -0.0234   -0.0095    0.0163   -0.0000   -0.0016
           7   -0.0065   -0.0976    0.0192    0.0338   -0.1272   -0.1264    0.0074   -0.0026
           8   -0.0024    0.0203    0.0149   -0.0207    0.4874    0.3769   -0.0230    0.0057
           9   -0.0130   -0.1116   -0.0264   -0.0314    0.0161    0.0151   -0.0015   -0.0010
          10   -0.0022   -0.0277    0.0208   -0.2245    0.0083   -0.0112    0.0011   -0.0010
          11   -0.0009   -0.0619    0.0421   -0.2967   -0.0090   -0.0158    0.0007   -0.0006
          12   -0.0013    0.0097    0.0244    0.6565    0.0017    0.0253   -0.0016    0.0001
          13   -0.0002    0.0897    0.2849   -0.0027    0.0011   -0.0052    0.0003   -0.0001
          14    0.0005    0.1161    0.0945   -0.0060   -0.0028   -0.0057    0.0004   -0.0002
          15    0.0007    0.1979   -0.1868   -0.0152   -0.0019   -0.0066    0.0004   -0.0001
          16    0.0001   -0.1384   -0.1489    0.0027    0.0003    0.0022   -0.0002    0.0001
          17    0.0001   -0.0737   -0.0785    0.0015   -0.0001    0.0015   -0.0000   -0.0000
          18   -0.0000    0.0094    0.0155   -0.0009   -0.0000    0.0004   -0.0000    0.0000
          19    0.0007    0.0808   -0.0870   -0.0030   -0.0001   -0.0003   -0.0000    0.0000
          20   -0.0003   -0.0023   -0.0007    0.0020    0.0001    0.0002   -0.0000    0.0001
          21   -0.0002   -0.1421    0.1433    0.0090    0.0010    0.0013   -0.0001    0.0001
          22    0.0018    0.0008   -0.0003   -0.0002   -0.0021   -0.0247   -0.3847    0.4219
          23    0.4421   -0.0054    0.0013    0.0017   -0.0000   -0.0042   -0.0847   -0.0020
          24   -0.0510    0.0006    0.0010   -0.0005   -0.0015   -0.0132   -0.2087    0.2374
          25   -0.0215    0.0002    0.0002    0.0001    0.0002    0.0019    0.0345   -0.0120
          26   -0.0440    0.0010   -0.0007   -0.0001   -0.0001   -0.0008   -0.0204   -0.0240
          27   -0.0100    0.0008   -0.0000    0.0000    0.0001    0.0011    0.0207   -0.0050
          28    0.3342   -0.0043    0.0003    0.0016    0.0003   -0.0057   -0.1605   -0.2320
          29    0.2622   -0.0034   -0.0000    0.0015    0.0004    0.0177    0.4076    0.3840
          30    0.2083   -0.0031    0.0021    0.0026   -0.0002   -0.0040   -0.1195   -0.1563


           MASS-WEIGHTED COORDINATE ANALYSIS (NORMAL COORDINATES)


   Root No.       1         2         3         4         5         6         7         8

                 1 A       2 A       3 A       4 A       5 A       6 A       7 A       8 A   

                -440.1    -244.9    -194.0     -39.0      21.8      99.1     214.0     443.2
  
           1    0.0088   -0.0282   -0.0653    0.5171   -0.0790   -0.1160    0.0207    0.2526
           2   -0.0108    0.0308    0.0459   -0.1764    0.5348   -0.1947   -0.0159    0.0612
           3   -0.0101   -0.0006   -0.0053   -0.1636   -0.3394   -0.0674   -0.0642   -0.1690
           4    0.0028   -0.0093   -0.0231    0.1488   -0.0220   -0.0335    0.0052    0.0843
           5   -0.0282    0.0867    0.4462   -0.0996    0.1999   -0.0643   -0.0079   -0.0382
           6    0.0054   -0.0356   -0.2186   -0.1493   -0.1072   -0.0072   -0.0224   -0.2596
           7    0.0199   -0.0816   -0.4372    0.2096   -0.0793   -0.0247    0.0185    0.1698
           8    0.0022   -0.0137   -0.1149   -0.0329    0.1380   -0.0535   -0.0011    0.0484
           9   -0.0164    0.0412    0.2481    0.0054   -0.2118   -0.0018   -0.0079   -0.1150
          10   -0.0131    0.0760    0.4650    0.2987    0.0076   -0.0630    0.0145    0.3534
          11    0.0030   -0.0464   -0.3692   -0.0721    0.3407   -0.0978    0.0083    0.2217
          12   -0.0059    0.0041   -0.0036   -0.0351   -0.0665   -0.0436   -0.0183    0.0893
          13   -0.0131   -0.0055   -0.0001    0.0578   -0.0063   -0.0854   -0.0160   -0.2740
          14    0.0056   -0.0002    0.0100   -0.0064    0.0156   -0.1008   -0.0249   -0.1020
          15   -0.0097    0.0111   -0.0145   -0.0525   -0.0664   -0.1661   -0.0473    0.1824
          16   -0.0386    0.0216   -0.1085   -0.0048    0.0956   -0.0944   -0.0521   -0.2592
          17    0.0570   -0.0533    0.1920    0.1786   -0.1215   -0.1203    0.0372   -0.2404
          18   -0.0093    0.0276   -0.0649    0.2766    0.1827   -0.2857   -0.0488   -0.3621
          19   -0.0051   -0.0197    0.1138   -0.2956   -0.0306   -0.0488   -0.0105    0.1097
          20   -0.0213    0.0199   -0.1973   -0.0481   -0.2903    0.0048   -0.1194    0.2030
          21   -0.0043    0.0032    0.0643   -0.2669   -0.0905   -0.1508   -0.0504    0.4161
          22   -0.2946   -0.3529    0.0446   -0.0914    0.0195    0.0940   -0.0441   -0.0003
          23    0.6212   -0.3126    0.0540    0.0043   -0.0604    0.0732   -0.0030    0.0012
          24    0.4072    0.7227   -0.0914    0.0609    0.0598    0.1321    0.1479   -0.0044
          25    0.2125    0.0197    0.0005   -0.3684    0.0149    0.2814    0.1729   -0.0016
          26   -0.1146    0.0397   -0.0026    0.0798   -0.2406    0.3986    0.1021   -0.0014
          27    0.0098   -0.2326    0.0439    0.2198    0.3493    0.6435   -0.0329   -0.0131
          28   -0.3636    0.3686   -0.0393   -0.0255    0.0491    0.2216   -0.4515   -0.0017
          29   -0.2688    0.1746   -0.0280    0.0250   -0.0642    0.1029    0.0684   -0.0017
          30   -0.3018    0.0304   -0.0330   -0.0216    0.0136   -0.0339    0.8327   -0.0062


   Root No.       9        10        11        12        13        14        15        16

                 9 A      10 A      11 A      12 A      13 A      14 A      15 A      16 A   

                 563.3     645.0     903.2     986.8    1059.3    1125.7    1167.5    1258.1
  
           1    0.0111   -0.1365   -0.2641   -0.3378    0.3608   -0.1935    0.1428   -0.1064
           2    0.0425   -0.1947   -0.2683    0.3437    0.3356    0.1719    0.1333   -0.1344
           3   -0.0224   -0.3597    0.1929    0.1062    0.4646   -0.0687   -0.3059   -0.2718
           4    0.0108   -0.0402   -0.0658   -0.0693    0.0690   -0.0291    0.0129   -0.0250
           5   -0.1977   -0.0411   -0.1213   -0.3304    0.0826   -0.2682   -0.4851    0.4567
           6   -0.0804   -0.0984   -0.0996    0.2034    0.0985   -0.4968    0.4874    0.4955
           7    0.2167   -0.0427   -0.0556    0.3077   -0.0337    0.1551   -0.4834    0.4423
           8    0.0602   -0.0569   -0.0594    0.1762    0.0209    0.0724   -0.1502    0.1124
           9    0.2487   -0.1205   -0.0042   -0.2154    0.1738    0.6599    0.2966    0.4105
          10    0.0022   -0.0698    0.3660    0.4737   -0.1017   -0.1232    0.1545    0.1196
          11   -0.2543   -0.0789    0.4811   -0.3797    0.0393    0.1017    0.1301    0.1334
          12   -0.1289   -0.1574    0.5044    0.0081    0.0390   -0.0120   -0.0024    0.0504
          13   -0.3721   -0.1161   -0.0904    0.0810   -0.1478    0.1462    0.0115    0.0548
          14    0.6275   -0.1887    0.1505   -0.2021   -0.2029   -0.2689    0.0077   -0.0129
          15   -0.2037   -0.2323   -0.2073   -0.0238   -0.3063    0.1030    0.0061    0.0232
          16    0.1178   -0.1957    0.0708   -0.0365   -0.3801    0.0413   -0.0359   -0.1367
          17   -0.2577    0.0780    0.0215    0.0395   -0.1834    0.0813   -0.0261   -0.0686
          18    0.0912    0.5199    0.1066    0.0183    0.0815   -0.0055   -0.0158    0.0103
          19    0.1580    0.4650    0.1459    0.0268    0.2344    0.0005   -0.0319    0.0289
          20   -0.2383    0.3135   -0.0486    0.0247    0.0443    0.0356    0.0140    0.0113
          21    0.1187    0.1137   -0.2263   -0.0880   -0.2764   -0.0653    0.0802   -0.0399
          22    0.0019    0.0008    0.0000    0.0026   -0.0014   -0.0007    0.0024    0.0025
          23    0.0012   -0.0063    0.0008   -0.0020    0.0018    0.0086    0.0063    0.0209
          24   -0.0005    0.0019   -0.0017   -0.0007    0.0001   -0.0017   -0.0019   -0.0033
          25    0.0028    0.0037   -0.0018   -0.0028   -0.0010    0.0003   -0.0051   -0.0026
          26   -0.0035    0.0071   -0.0061    0.0003   -0.0021   -0.0036   -0.0000   -0.0116
          27    0.0051    0.0020   -0.0049   -0.0010   -0.0023   -0.0007   -0.0010    0.0001
          28    0.0058   -0.0025   -0.0031    0.0033   -0.0000    0.0040    0.0045    0.0138
          29   -0.0003    0.0035   -0.0028    0.0030   -0.0005    0.0009    0.0048    0.0077
          30   -0.0053    0.0153   -0.0045    0.0050   -0.0034   -0.0060    0.0020   -0.0049


   Root No.      17        18        19        20        21        22        23        24

                17 A      18 A      19 A      20 A      21 A      22 A      23 A      24 A   

                1422.7    1516.6    1639.6    1933.7    2590.5    2691.2    2695.1    2817.2
  
           1    0.0022   -0.0454   -0.0515    0.1214    0.2171   -0.1278    0.0057   -0.0008
           2   -0.0016   -0.0446   -0.0145    0.1563   -0.1728   -0.1304    0.0081   -0.0016
           3    0.0094   -0.0993    0.0397   -0.2974    0.0007   -0.0082   -0.0001    0.0003
           4    0.0004    0.0207    0.0077   -0.0233   -0.6141    0.7471   -0.0391    0.0071
           5   -0.0045   -0.0828   -0.0384    0.0184   -0.0340   -0.0131   -0.0003    0.0002
           6   -0.0149   -0.0828   -0.1056   -0.0204   -0.0139    0.0257   -0.0000   -0.0023
           7   -0.0095   -0.0740    0.0117    0.0295   -0.1861   -0.1998    0.0112   -0.0038
           8   -0.0035    0.0154    0.0091   -0.0181    0.7129    0.5958   -0.0348    0.0084
           9   -0.0191   -0.0847   -0.0161   -0.0274    0.0236    0.0238   -0.0022   -0.0014
          10   -0.0047   -0.0297    0.0179   -0.2767    0.0171   -0.0250    0.0023   -0.0020
          11   -0.0018   -0.0664    0.0363   -0.3657   -0.0186   -0.0354    0.0015   -0.0013
          12   -0.0028    0.0104    0.0211    0.8091    0.0036    0.0566   -0.0034    0.0002
          13   -0.0009    0.2535    0.6475   -0.0088    0.0062   -0.0308    0.0017   -0.0005
          14    0.0029    0.3282    0.2149   -0.0196   -0.0151   -0.0338    0.0022   -0.0008
          15    0.0037    0.5593   -0.4247   -0.0493   -0.0104   -0.0390    0.0022   -0.0007
          16    0.0007   -0.4180   -0.3618    0.0094    0.0015    0.0136   -0.0011    0.0008
          17    0.0008   -0.2225   -0.1907    0.0052   -0.0004    0.0092   -0.0002   -0.0003
          18   -0.0002    0.0284    0.0377   -0.0031   -0.0003    0.0028   -0.0002    0.0002
          19    0.0043    0.2441   -0.2113   -0.0104   -0.0008   -0.0021   -0.0001    0.0002
          20   -0.0019   -0.0068   -0.0017    0.0068    0.0007    0.0012   -0.0001    0.0003
          21   -0.0012   -0.4292    0.3480    0.0314    0.0060    0.0083   -0.0005    0.0005
          22    0.0027    0.0006   -0.0002   -0.0002   -0.0031   -0.0391   -0.5809    0.6142
          23    0.6504   -0.0041    0.0008    0.0014   -0.0000   -0.0066   -0.1278   -0.0030
          24   -0.0751    0.0004    0.0006   -0.0004   -0.0022   -0.0209   -0.3152    0.3455
          25   -0.1262    0.0007    0.0006    0.0003    0.0009    0.0117    0.2075   -0.0694
          26   -0.2577    0.0030   -0.0018   -0.0002   -0.0004   -0.0049   -0.1227   -0.1391
          27   -0.0588    0.0023   -0.0001    0.0000    0.0004    0.0068    0.1248   -0.0290
          28    0.4918   -0.0033    0.0002    0.0014    0.0004   -0.0090   -0.2424   -0.3377
          29    0.3858   -0.0026   -0.0000    0.0013    0.0006    0.0279    0.6155    0.5589
          30    0.3065   -0.0023    0.0013    0.0023   -0.0003   -0.0063   -0.1805   -0.2275


          DESCRIPTION OF VIBRATIONS


 VIBRATION          1    1A           ATOM PAIR      ENERGY CONTRIBUTION    RADIAL
 FREQUENCY          -440.08         O  9 -- H 10         +57.3% (-99.9%)      4.3%
 TRANSITION DIPOLE   0.8430         H  8 -- O  9         +42.1% (-99.9%)      1.1%
 TRAVEL (Ang.)       0.5260         C  1 -- H  2          +0.2% ( -6.5%)      6.1%
 REDUCED MASS        0.5538         C  1 -- H  3          +0.1% ( -5.6%)     25.0%
 EFFECTIVE MASS      0.0970
 FORCE CONSTANT     -0.0632

 VIBRATION          2    2A           ATOM PAIR      ENERGY CONTRIBUTION    RADIAL
 FREQUENCY          -244.88         O  9 -- H 10         +53.3% (-99.9%)      2.1%
 TRANSITION DIPOLE   0.9482         H  8 -- O  9         +38.2% (-99.9%)      0.4%
 TRAVEL (Ang.)       0.6570         C  1 -- H  2          +2.7% (-34.0%)      7.6%
 REDUCED MASS        0.6379         C  1 -- H  3          +2.5% (-33.1%)     11.0%
 EFFECTIVE MASS      0.1808
 FORCE CONSTANT     -0.0225

 VIBRATION          3    3A           ATOM PAIR      ENERGY CONTRIBUTION    RADIAL
 FREQUENCY          -194.04         C  1 -- H  3         +34.3% (-99.9%)      0.9%
 TRANSITION DIPOLE   0.2618         C  1 -- H  2         +33.5% (-99.9%)      0.9%
 TRAVEL (Ang.)       0.8519         C  1 -- H  4         +29.3% (-99.9%)      0.0%
 REDUCED MASS        0.4789         C  1 -- N  5          +1.0% (-38.2%)      0.0%
 EFFECTIVE MASS      1.0057
 FORCE CONSTANT     -0.0106

 VIBRATION          4    4A           ATOM PAIR      ENERGY CONTRIBUTION    RADIAL
 FREQUENCY           -38.97         C  1 -- N  5         +26.5% (-99.9%)      0.0%
 TRANSITION DIPOLE   0.8504         C  1 -- H  4         +23.0% (-99.9%)     24.6%
 TRAVEL (Ang.)       0.8358         C  1 -- H  3         +22.0% (-99.9%)     36.0%
 REDUCED MASS        2.4771         C  1 -- H  2         +17.8% (-99.9%)     95.7%
 EFFECTIVE MASS   1085.1673
 FORCE CONSTANT     -0.0022

 VIBRATION          5    5A           ATOM PAIR      ENERGY CONTRIBUTION    RADIAL
 FREQUENCY            21.77         C  1 -- N  5         +27.1% (999.0%)      0.0%
 TRANSITION DIPOLE   0.6110         C  1 -- H  2         +25.2% (999.0%)      1.9%
 TRAVEL (Ang.)       0.0000         C  1 -- H  4         +19.7% (999.0%)     68.6%
 REDUCED MASS        2.7431         C  1 -- H  3         +19.5% (999.0%)     82.7%
 EFFECTIVE MASS   4437.7461
 FORCE CONSTANT      0.0008

 VIBRATION          6    6A           ATOM PAIR      ENERGY CONTRIBUTION    RADIAL
 FREQUENCY            99.11         O  9 -- H 10         +29.5% (419.3%)      1.0%
 TRANSITION DIPOLE   0.6663         C  1 -- N  5         +14.4% (293.1%)      2.5%
 TRAVEL (Ang.)       0.3104         O  6 -- O  7          +8.5% (225.0%)      0.0%
 REDUCED MASS        7.0624         C  1 -- H  4          +8.3% (222.2%)      9.9%
 EFFECTIVE MASS    209.2674
 FORCE CONSTANT      0.0409

 VIBRATION          7    7A           ATOM PAIR      ENERGY CONTRIBUTION    RADIAL
 FREQUENCY           214.01         O  9 -- H 10         +58.3% (103.1%)      0.1%
 TRANSITION DIPOLE   1.2380         C  1 -- N  5          +8.0% ( 38.2%)      1.2%
 TRAVEL (Ang.)       0.6076         O  6 -- O  7          +5.4% ( 31.4%)      0.2%
 REDUCED MASS        0.8534         H  8 -- O  9          +5.3% ( 31.3%)     15.7%
 EFFECTIVE MASS      3.9834
 FORCE CONSTANT      0.0230

 VIBRATION          8    8A           ATOM PAIR      ENERGY CONTRIBUTION    RADIAL
 FREQUENCY           443.21         C  1 -- N  5         +26.3% (130.3%)      0.0%
 TRANSITION DIPOLE   0.2663         O  6 -- O  7         +19.0% (110.7%)      0.0%
 TRAVEL (Ang.)       0.2599         N  5 -- O  7         +14.0% ( 94.9%)      0.0%
 REDUCED MASS        2.2527         N  5 -- O  6         +13.9% ( 94.7%)      0.0%
 EFFECTIVE MASS     15.4219         C  1 -- H  4         +10.5% ( 82.3%)     15.2%
 FORCE CONSTANT      0.2607

 VIBRATION          9    9A           ATOM PAIR      ENERGY CONTRIBUTION    RADIAL
 FREQUENCY           563.28         N  5 -- O  7         +27.3% ( 94.7%)      0.0%
 TRANSITION DIPOLE   0.5444         N  5 -- O  6         +26.9% ( 94.2%)      0.0%
 TRAVEL (Ang.)       0.1561         C  1 -- N  5         +21.3% ( 83.7%)      0.0%
 REDUCED MASS        4.9101         C  1 -- H  3         +13.0% ( 65.4%)      1.6%
 EFFECTIVE MASS     13.4540
 FORCE CONSTANT      0.9179

 VIBRATION         10   10A           ATOM PAIR      ENERGY CONTRIBUTION    RADIAL
 FREQUENCY           645.03         O  6 -- O  7         +18.8% ( 80.4%)     99.8%
 TRANSITION DIPOLE   2.1550         N  5 -- O  7         +15.3% ( 72.4%)      0.0%
 TRAVEL (Ang.)       0.1644         C  1 -- N  5         +15.3% ( 72.4%)     74.9%
 REDUCED MASS        3.8674         N  5 -- O  6         +14.3% ( 69.9%)      0.0%
 EFFECTIVE MASS     15.3121         C  1 -- H  3         +12.3% ( 64.9%)     12.7%
 FORCE CONSTANT      0.9480         C  1 -- H  4         +12.1% ( 64.4%)     19.0%
                            C  1 -- H  2         +11.9% ( 63.9%)      9.2%

 VIBRATION         11   11A           ATOM PAIR      ENERGY CONTRIBUTION    RADIAL
 FREQUENCY           903.23         C  1 -- H  4         +44.6% ( 88.4%)      5.2%
 TRANSITION DIPOLE   0.3035         C  1 -- N  5         +16.4% ( 53.6%)      0.8%
 TRAVEL (Ang.)       0.2369         C  1 -- H  2         +12.3% ( 46.4%)     26.8%
 REDUCED MASS        1.3298         C  1 -- H  3         +10.4% ( 42.8%)     15.2%
 EFFECTIVE MASS      5.9890
 FORCE CONSTANT      0.6392

 VIBRATION         12   12A           ATOM PAIR      ENERGY CONTRIBUTION    RADIAL
 FREQUENCY           986.84         C  1 -- H  4         +32.0% ( 68.6%)      0.2%
 TRANSITION DIPOLE   1.2938         C  1 -- H  2         +22.2% ( 57.2%)     13.4%
 TRAVEL (Ang.)       0.2523         C  1 -- H  3         +22.2% ( 57.2%)     22.3%
 REDUCED MASS        1.0738         C  1 -- N  5         +18.8% ( 52.7%)      8.8%
 EFFECTIVE MASS      4.8386
 FORCE CONSTANT      0.6161

 VIBRATION         13   13A           ATOM PAIR      ENERGY CONTRIBUTION    RADIAL
 FREQUENCY          1059.31         C  1 -- N  5         +27.7% ( 87.4%)     98.3%
 TRANSITION DIPOLE   1.5349         O  6 -- O  7         +15.5% ( 65.3%)     99.4%
 TRAVEL (Ang.)       0.1311         C  1 -- H  4         +14.4% ( 62.9%)      2.1%
 REDUCED MASS        3.7031         C  1 -- H  3         +14.1% ( 62.3%)     10.1%
 EFFECTIVE MASS     13.0494         C  1 -- H  2         +12.8% ( 59.4%)     30.1%
 FORCE CONSTANT      2.4483

 VIBRATION         14   14A           ATOM PAIR      ENERGY CONTRIBUTION    RADIAL
 FREQUENCY          1125.67         C  1 -- H  3         +45.0% ( 71.2%)      5.9%
 TRANSITION DIPOLE   0.4257         C  1 -- H  2         +34.0% ( 61.8%)      6.7%
 TRAVEL (Ang.)       0.3338         C  1 -- N  5          +9.3% ( 32.3%)      0.8%
 REDUCED MASS        0.5377         C  1 -- H  4          +3.8% ( 20.6%)     23.4%
 EFFECTIVE MASS      2.8683
 FORCE CONSTANT      0.4014

 VIBRATION         15   15A           ATOM PAIR      ENERGY CONTRIBUTION    RADIAL
 FREQUENCY          1167.48         C  1 -- H  2         +47.7% ( 68.1%)      1.6%
 TRANSITION DIPOLE   0.8264         C  1 -- H  3         +35.1% ( 58.4%)      0.9%
 TRAVEL (Ang.)       0.3218         C  1 -- N  5          +9.3% ( 30.0%)     14.8%
 REDUCED MASS        0.5577         C  1 -- H  4          +6.2% ( 24.6%)     72.3%
 EFFECTIVE MASS      2.3548
 FORCE CONSTANT      0.4479

 VIBRATION         16   16A           ATOM PAIR      ENERGY CONTRIBUTION    RADIAL
 FREQUENCY          1258.12         C  1 -- H  2         +44.2% ( 67.9%)      0.7%
 TRANSITION DIPOLE   0.9514         C  1 -- H  3         +36.0% ( 61.2%)      0.7%
 TRAVEL (Ang.)       0.3304         C  1 -- H  4          +7.6% ( 28.1%)      4.2%
 REDUCED MASS        0.4911         C  1 -- N  5          +6.7% ( 26.5%)     97.4%
 EFFECTIVE MASS      2.3711
 FORCE CONSTANT      0.4580

 VIBRATION         17   17A           ATOM PAIR      ENERGY CONTRIBUTION    RADIAL
 FREQUENCY          1422.68         O  9 -- H 10         +55.0% ( 57.0%)      8.1%
 TRANSITION DIPOLE   0.8435         H  8 -- O  9         +44.8% ( 51.5%)      9.2%
 TRAVEL (Ang.)       0.2963
 REDUCED MASS        0.5397
 EFFECTIVE MASS      1.6660
 FORCE CONSTANT      0.6436

 VIBRATION         18   18A           ATOM PAIR      ENERGY CONTRIBUTION    RADIAL
 FREQUENCY          1516.55         N  5 -- O  7         +32.7% ( 77.8%)     65.2%
 TRANSITION DIPOLE   3.7833         N  5 -- O  6         +31.2% ( 76.1%)     62.2%
 TRAVEL (Ang.)       0.0938         C  1 -- N  5         +17.6% ( 57.1%)     99.9%
 REDUCED MASS        5.0555         O  6 -- O  7         +16.5% ( 55.3%)    100.0%
 EFFECTIVE MASS     14.4504
 FORCE CONSTANT      6.8507

 VIBRATION         19   19A           ATOM PAIR      ENERGY CONTRIBUTION    RADIAL
 FREQUENCY          1639.63         N  5 -- O  6         +35.8% ( 84.6%)     89.3%
 TRANSITION DIPOLE  11.7576         N  5 -- O  7         +35.5% ( 84.3%)     88.3%
 TRAVEL (Ang.)       0.0781         C  1 -- N  5         +21.6% ( 65.8%)      0.0%
 REDUCED MASS        6.7376         O  6 -- O  7          +6.3% ( 35.6%)      0.0%
 EFFECTIVE MASS     14.3898
 FORCE CONSTANT     10.6720

 VIBRATION         20   20A           ATOM PAIR      ENERGY CONTRIBUTION    RADIAL
 FREQUENCY          1933.71         C  1 -- H  4         +90.7% ( 99.5%)    100.0%
 TRANSITION DIPOLE   1.1634         C  1 -- H  3          +3.1% ( 18.4%)     17.5%
 TRAVEL (Ang.)       0.1431         C  1 -- H  2          +3.1% ( 18.3%)     18.0%
 REDUCED MASS        1.7026         C  1 -- N  5          +2.8% ( 17.5%)      3.8%
 EFFECTIVE MASS      2.9200
 FORCE CONSTANT      3.7509

 VIBRATION         21   21A           ATOM PAIR      ENERGY CONTRIBUTION    RADIAL
 FREQUENCY          2590.54         C  1 -- H  3         +57.1% ( 78.3%)     98.3%
 TRANSITION DIPOLE   1.3222         C  1 -- H  2         +41.1% ( 66.5%)     97.3%
 TRAVEL (Ang.)       0.2252         C  1 -- N  5          +0.9% (  9.8%)      0.2%
 REDUCED MASS        0.5132         C  1 -- H  4          +0.9% (  9.7%)      0.0%
 EFFECTIVE MASS      1.4490
 FORCE CONSTANT      2.0293

 VIBRATION         22   22A           ATOM PAIR      ENERGY CONTRIBUTION    RADIAL
 FREQUENCY          2691.18         C  1 -- H  2         +58.3% ( 74.4%)     98.1%
 TRANSITION DIPOLE   1.0238         C  1 -- H  3         +40.2% ( 61.8%)     95.9%
 TRAVEL (Ang.)       0.2270         C  1 -- H  4          +0.5% (  6.8%)      1.0%
 REDUCED MASS        0.4862         C  1 -- N  5          +0.4% (  6.5%)     17.0%
 EFFECTIVE MASS      1.2289
 FORCE CONSTANT      2.0747

 VIBRATION         23   23A           ATOM PAIR      ENERGY CONTRIBUTION    RADIAL
 FREQUENCY          2695.06         O  9 -- H 10         +50.7% ( 73.1%)     96.3%
 TRANSITION DIPOLE   1.7824         H  8 -- O  9         +49.0% ( 71.9%)     96.4%
 TRAVEL (Ang.)       0.2201         C  1 -- H  2          +0.1% (  3.9%)     96.6%
 REDUCED MASS        0.5167         C  1 -- H  3          +0.1% (  3.6%)     96.9%
 EFFECTIVE MASS      1.5007
 FORCE CONSTANT      2.2110

 VIBRATION         24   24A           ATOM PAIR      ENERGY CONTRIBUTION    RADIAL
 FREQUENCY          2817.16         H  8 -- O  9         +51.1% ( 68.7%)     99.9%
 TRANSITION DIPOLE   0.8770         O  9 -- H 10         +48.9% ( 67.2%)    100.0%
 TRAVEL (Ang.)       0.2212
 REDUCED MASS        0.4891
 EFFECTIVE MASS      1.1692
 FORCE CONSTANT      2.2870

      SYMMETRY NUMBER FOR POINT-GROUP C1  =  1


          SYSTEM IS A GROUND STATE



 Title: ASE calculation


          MOLECULE IS NOT LINEAR

          THERE ARE 24 GENUINE VIBRATIONS IN THIS SYSTEM
          THIS THERMODYNAMICS CALCULATION IS LIMITED TO
          MOLECULES WHICH HAVE NO INTERNAL ROTATIONS




                    CALCULATED THERMODYNAMIC PROPERTIES
                                          *
   TEMP. (K)   PARTITION FUNCTION   H.O.F.    ENTHALPY  HEAT CAPACITY ENTROPY
                                   KCAL/MOL   CAL/MOLE    CAL/K/MOL  CAL/K/MOL


 298.00  VIB.     0.8490D+03                  3225.3672    18.2491    24.2252
         ROT.     0.1539D+06                   888.2803     2.9808    26.7155
         INT.     0.1306D+09                  4113.6475    21.2299    50.9407
         TRA.     0.6926D+27                  1480.4672     4.9680    39.0529
         TOT.                      -91.923    5594.1146    26.1979    89.9936

   *: NOTE: HEATS OF FORMATION ARE RELATIVE TO THE
            ELEMENTS IN THEIR STANDARD STATE AT 298K
              (=  Standard Enthalpy of Formation).

            Hvib:  Zero-point energy is not included.
                   frequencies of less than zero cm-1 are not included.
            Hrot = (3/2)RT
            Htra = (3/2)RT + pV = (5/2)RT

            Heat capacity is Cp, not Cv

          For more information, see: HTTP://OpenMOPAC.net/Manual/thermochemistry.html


           FORCE CONSTANT IN CARTESIAN COORDINATES (Millidynes/A)

    ATOM   CHEMICAL       X               Y               Z
   NUMBER   SYMBOL  FORCE CONSTANT  FORCE CONSTANT  FORCE CONSTANT

      1       C        6.581647        5.854757        6.738512
      2       H        3.922886        0.534663        0.685992
      3       H        0.774674        3.614224        0.636047
      4       H        0.860582        1.123576        3.208108
      5       N       11.681690        5.958959       11.728683
      6       O        9.338004        2.848332        1.570181
      7       O        4.138921        0.717960        8.961127
      8       H        3.226892        0.529203        0.962165
      9       O        3.554302        3.773861        1.205674
     10       H        1.066135        3.278751        0.507009

 **********************
 *                    *
 * JOB ENDED NORMALLY *
 *                    *
 **********************



 TOTAL JOB TIME:             0.44 SECONDS

 == MOPAC DONE ==
