 *******************************************************************************
 **                                                                           **
 **                              MOPAC v22.1.0                                **
 **                                                                           **
 *******************************************************************************
 **          Digital Object Identifier (DOI): 10.5281/zenodo.6511958          **
 **    Visit the DOI location for information on how to cite this program.    **
 *******************************************************************************

                              PM7 CALCULATION RESULTS

 *******************************************************************************
 *  CALCULATION DONE:                                Sat Mar 23 14:46:22 2024  *
 *  PM7        - The PM7 Hamiltonian to be used
 *  SINGLET    - SPIN STATE DEFINED AS A SINGLET
 *
 *
 *
 *                 CHARGE ON SYSTEM = -1
 *
 *
 *
 *  EPS=78.4   - USE ANDREAS KLAMT'S COSMO IMPLICIT SOLVATION MODEL
 *  THREADS    - USE A MAXIMUM OF 40 THREADS
 *  T=         - A TIME OF 14.0 DAYS REQUESTED
 *  DUMP=N     - RESTART FILE WRITTEN EVERY 30.0 MINUTES REQUESTED
 *  ITRY=      - DO A MAXIMUM OF 15000 ITERATIONS FOR SCF
 *  AUX        - OUTPUT AUXILIARY INFORMATION
 *  PL         - MONITOR CONVERGENCE IN DENSITY MATRIX
 *******************************************************************************
PM7 CHARGE=-1 SINGLET AUX DUMP=30M ITRY=15000 T=14D PL THREADS=40 EPS=78.4

 Mopac file generated by Gabedit
   ATOM   CHEMICAL          X               Y               Z
  NUMBER   SYMBOL      (ANGSTROMS)     (ANGSTROMS)     (ANGSTROMS)

     1       C          0.55471000  *  -0.89423000  *   0.52277000  *
     2       H          0.86397000  *  -1.57271000  *  -0.29130000  *
     3       H          1.10522000  *   0.06134000  *   0.39428000  *
     4       H          0.85007000  *  -1.32666000  *   1.49474000  *
     5       N         -0.89706000  *  -0.63766000  *   0.47668000  *
     6       O         -1.46942000  *  -0.40872000  *   1.52652000  *
     7       O         -1.44398000  *  -0.65528000  *  -0.61091000  *
     8       H          0.77806200  *   4.56737400  *  -0.16481400  *
     9       O          1.59949200  *   4.05787400  *  -0.10984400  *
    10       H          1.63207900  *   1.09832000  *   0.25489600  *
    11       O          1.30296800  *   1.50340700  *   0.82644300  *
    12       H          1.87888000  *   2.18931400  *   1.43738000  *
    13       H         -2.62946100  *   2.02831700  *   1.19093500  *
    14       O         -2.95857200  *   2.43340400  *   1.76248300  *
    15       H         -2.38266000  *   3.11931100  *   2.37341900  *
    16       H         -1.06343400  *   3.21783700  *   1.47099400  *
    17       O         -1.39254500  *   3.62292300  *   2.04254100  *
    18       H         -0.81663300  *   4.30883100  *   2.65347800  *
    19       H          0.10768100  *   0.74751400  *   0.53872500  *
    20       O         -0.22143000  *   1.15260000  *   1.11027200  *
    21       H          0.35448100  *   1.83850800  *   1.72120900  *
    22       H          3.42036000  *  -1.07511400  *  -0.73219600  *
    23       O          3.09124900  *  -0.67002800  *  -0.16064900  *
    24       H          3.66716100  *   0.01588000  *   0.45028800  *



          CARTESIAN COORDINATES 

    NO.       ATOM           X           Y           Z

     1         C          0.5547     -0.8942      0.5228
     2         H          0.8640     -1.5727     -0.2913
     3         H          1.1052      0.0613      0.3943
     4         H          0.8501     -1.3267      1.4947
     5         N         -0.8971     -0.6377      0.4767
     6         O         -1.4694     -0.4087      1.5265
     7         O         -1.4440     -0.6553     -0.6109
     8         H          0.7781      4.5674     -0.1648
     9         O          1.5995      4.0579     -0.1098
    10         H          1.6321      1.0983      0.2549
    11         O          1.3030      1.5034      0.8264
    12         H          1.8789      2.1893      1.4374
    13         H         -2.6295      2.0283      1.1909
    14         O         -2.9586      2.4334      1.7625
    15         H         -2.3827      3.1193      2.3734
    16         H         -1.0634      3.2178      1.4710
    17         O         -1.3925      3.6229      2.0425
    18         H         -0.8166      4.3088      2.6535
    19         H          0.1077      0.7475      0.5387
    20         O         -0.2214      1.1526      1.1103
    21         H          0.3545      1.8385      1.7212
    22         H          3.4204     -1.0751     -0.7322
    23         O          3.0912     -0.6700     -0.1606
    24         H          3.6672      0.0159      0.4503

 General Reference for PM7:
 "Optimization of Parameters for Semiempirical Methods VI: More Modifications to the 
 NDDO Approximations and Re-optimization of Parameters", J. J. P. Stewart, J. Mol. Mod., 1:32, 19 (2013)
 https://link.springer.com/article/10.1007/s00894-012-1667-x

           Empirical Formula: C H14 N O8  =    24 atoms



      MOLECULAR POINT GROUP   :   C1  


 SINGLET STATE CALCULATION


      RHF CALCULATION, NO. OF DOUBLY OCCUPIED LEVELS = 36


          Geometry optimization using EF
 ITERATION   1 PLS= 0.100E+01 0.000E+00 ENERGY     9227.272851 DELTAE 9127.2728511
 ITERATION   2 PLS= 0.124E+01 0.000E+00 ENERGY      127.332053 DELTAE-9099.9407985
 ITERATION   3 PLS= 0.117E+00 0.000E+00 ENERGY       19.005979 DELTAE -108.3260738
 ITERATION   4 PLS= 0.728E-01 0.000E+00 ENERGY     -154.054485 DELTAE -173.0604640
 ITERATION   5 PLS= 0.269E-01 0.000E+00 ENERGY      -56.516237 DELTAE   97.5382486
 ITERATION   6 PLS= 0.138E-01 0.000E+00 ENERGY      -58.783852 DELTAE   -2.2676150
 ITERATION   7 PLS= 0.325E-01 0.000E+00 ENERGY      -72.995018 DELTAE  -14.2111660
 ITERATION   8 PLS= 0.184E-01 0.000E+00 ENERGY      -62.560879 DELTAE   10.4341383
 ITERATION   9 PLS= 0.908E-02 0.000E+00 ENERGY      -62.711455 DELTAE   -0.1505761
 ITERATION  10 PLS= 0.387E-02 0.000E+00 ENERGY      -62.791840 DELTAE   -0.0803841
 ITERATION  11 PLS= 0.656E-03 0.000E+00 ENERGY      -62.755347 DELTAE    0.0364928
 ITERATION  12 PLS= 0.202E-03 0.000E+00 ENERGY      -62.755499 DELTAE   -0.0001524
 ITERATION   1 PLS= 0.109E-03 0.000E+00 ENERGY     -170.184744 DELTAE -270.1847437
 ITERATION   2 PLS= 0.534E-01 0.000E+00 ENERGY     -174.475178 DELTAE   -4.2904340
 ITERATION   3 PLS= 0.201E-01 0.000E+00 ENERGY     -175.228613 DELTAE   -0.7534351
 ITERATION   4 PLS= 0.941E-02 0.000E+00 ENERGY     -175.802452 DELTAE   -0.5738388
 ITERATION   5 PLS= 0.114E-02 0.000E+00 ENERGY     -175.529955 DELTAE    0.2724968
 ITERATION   6 PLS= 0.772E-03 0.000E+00 ENERGY     -175.532504 DELTAE   -0.0025487
 ITERATION   7 PLS= 0.513E-03 0.000E+00 ENERGY     -175.536638 DELTAE   -0.0041346
 ITERATION   8 PLS= 0.692E-04 0.000E+00 ENERGY     -175.534050 DELTAE    0.0025881

          DIAGONAL MATRIX USED AS START HESSIAN

 CYCLE:     1 TIME:   0.078 TIME LEFT:  2.00W  GRAD.:   702.757 HEAT: -175.5341
 ITERATION   1 PLS= 0.362E-04 0.000E+00 ENERGY     -265.845359 DELTAE -365.8453589
 ITERATION   2 PLS= 0.410E-01 0.000E+00 ENERGY     -280.193943 DELTAE  -14.3485844
 ITERATION   3 PLS= 0.174E-01 0.000E+00 ENERGY     -282.058009 DELTAE   -1.8640658
 ITERATION   4 PLS= 0.108E-01 0.000E+00 ENERGY     -283.401964 DELTAE   -1.3439545
 ITERATION   5 PLS= 0.163E-02 0.000E+00 ENERGY     -282.654191 DELTAE    0.7477731
 ITERATION   6 PLS= 0.838E-03 0.000E+00 ENERGY     -282.657744 DELTAE   -0.0035533
 CYCLE:     2 TIME:   0.043 TIME LEFT:  2.00W  GRAD.:   433.840 HEAT: -282.6597
 ITERATION   1 PLS= 0.505E-03 0.000E+00 ENERGY     -344.779519 DELTAE -444.7795187
 ITERATION   2 PLS= 0.484E-01 0.000E+00 ENERGY     -362.217440 DELTAE  -17.4379214
 ITERATION   3 PLS= 0.301E-01 0.000E+00 ENERGY     -365.226655 DELTAE   -3.0092147
 ITERATION   4 PLS= 0.177E-01 0.000E+00 ENERGY     -367.859506 DELTAE   -2.6328509
 ITERATION   5 PLS= 0.204E-02 0.000E+00 ENERGY     -366.342782 DELTAE    1.5167239
 ITERATION   6 PLS= 0.677E-03 0.000E+00 ENERGY     -366.347050 DELTAE   -0.0042678
 CYCLE:     3 TIME:   0.027 TIME LEFT:  2.00W  GRAD.:   227.955 HEAT: -366.3487
 ITERATION   1 PLS= 0.296E-03 0.000E+00 ENERGY     -350.955472 DELTAE -450.9554724
 ITERATION   2 PLS= 0.583E-01 0.000E+00 ENERGY     -389.642413 DELTAE  -38.6869408
 ITERATION   3 PLS= 0.228E-01 0.000E+00 ENERGY     -394.492018 DELTAE   -4.8496049
 ITERATION   4 PLS= 0.123E-01 0.000E+00 ENERGY     -397.014968 DELTAE   -2.5229495
 ITERATION   5 PLS= 0.222E-02 0.000E+00 ENERGY     -395.802533 DELTAE    1.2124343
 ITERATION   6 PLS= 0.134E-02 0.000E+00 ENERGY     -395.810303 DELTAE   -0.0077699
 CYCLE:     4 TIME:   0.031 TIME LEFT:  2.00W  GRAD.:   316.051 HEAT: -395.8200
 ITERATION   1 PLS= 0.887E-03 0.000E+00 ENERGY     -310.077665 DELTAE -410.0776651
 ITERATION   2 PLS= 0.148E+00 0.000E+00 ENERGY     -394.328072 DELTAE  -84.2504069
 ITERATION   3 PLS= 0.522E-01 0.000E+00 ENERGY     -402.766600 DELTAE   -8.4385277
 ITERATION   4 PLS= 0.250E-01 0.000E+00 ENERGY     -406.070685 DELTAE   -3.3040850
 ITERATION   5 PLS= 0.340E-02 0.000E+00 ENERGY     -404.732655 DELTAE    1.3380301
 ITERATION   6 PLS= 0.224E-02 0.000E+00 ENERGY     -404.749915 DELTAE   -0.0172609
 ITERATION   7 PLS= 0.137E-02 0.000E+00 ENERGY     -404.772550 DELTAE   -0.0226350
 ITERATION   8 PLS= 0.129E-03 0.000E+00 ENERGY     -404.758825 DELTAE    0.0137251
 CYCLE:     5 TIME:   0.031 TIME LEFT:  2.00W  GRAD.:   654.017 HEAT: -404.7588
 ITERATION   1 PLS= 0.427E-04 0.000E+00 ENERGY      -97.482773 DELTAE -197.4827727
 ITERATION   2 PLS= 0.257E+00 0.000E+00 ENERGY     -287.337038 DELTAE -189.8542650
 ITERATION   3 PLS= 0.297E-01 0.000E+00 ENERGY     -295.476805 DELTAE   -8.1397670
 ITERATION   4 PLS= 0.500E-01 0.000E+00 ENERGY     -328.976565 DELTAE  -33.4997599
 ITERATION   5 PLS= 0.619E-01 0.000E+00 ENERGY     -301.245727 DELTAE   27.7308375
 ITERATION   6 PLS= 0.228E-01 0.000E+00 ENERGY     -302.092680 DELTAE   -0.8469529
 ITERATION   7 PLS= 0.669E-02 0.000E+00 ENERGY     -302.334003 DELTAE   -0.2413234
 ITERATION   8 PLS= 0.156E-02 0.000E+00 ENERGY     -302.251744 DELTAE    0.0822592
 ITERATION   1 PLS= 0.970E-03 0.000E+00 ENERGY     -379.167835 DELTAE -479.1678355
 ITERATION   2 PLS= 0.952E-01 0.000E+00 ENERGY     -424.123408 DELTAE  -44.9555728
 ITERATION   3 PLS= 0.378E-01 0.000E+00 ENERGY     -428.299664 DELTAE   -4.1762553
 ITERATION   4 PLS= 0.214E-01 0.000E+00 ENERGY     -430.081384 DELTAE   -1.7817203
 ITERATION   5 PLS= 0.272E-02 0.000E+00 ENERGY     -429.227820 DELTAE    0.8535639
 ITERATION   6 PLS= 0.158E-02 0.000E+00 ENERGY     -429.234014 DELTAE   -0.0061937
 CYCLE:     6 TIME:   0.059 TIME LEFT:  2.00W  GRAD.:   367.668 HEAT: -429.2404
 ITERATION   1 PLS= 0.955E-03 0.000E+00 ENERGY     -404.680112 DELTAE -504.6801122
 ITERATION   2 PLS= 0.801E-01 0.000E+00 ENERGY     -430.828267 DELTAE  -26.1481553
 ITERATION   3 PLS= 0.298E-01 0.000E+00 ENERGY     -433.221574 DELTAE   -2.3933068
 ITERATION   4 PLS= 0.162E-01 0.000E+00 ENERGY     -434.312893 DELTAE   -1.0913182
 ITERATION   5 PLS= 0.241E-02 0.000E+00 ENERGY     -433.797060 DELTAE    0.5158324
 ITERATION   6 PLS= 0.179E-02 0.000E+00 ENERGY     -433.802277 DELTAE   -0.0052165
 CYCLE:     7 TIME:   0.031 TIME LEFT:  2.00W  GRAD.:   319.909 HEAT: -433.8110
 ITERATION   1 PLS= 0.118E-02 0.000E+00 ENERGY     -438.126068 DELTAE -538.1260679
 ITERATION   2 PLS= 0.329E-01 0.000E+00 ENERGY     -455.838260 DELTAE  -17.7121923
 ITERATION   3 PLS= 0.125E-01 0.000E+00 ENERGY     -457.996042 DELTAE   -2.1577821
 ITERATION   4 PLS= 0.738E-02 0.000E+00 ENERGY     -459.181675 DELTAE   -1.1856328
 ITERATION   5 PLS= 0.215E-02 0.000E+00 ENERGY     -458.588664 DELTAE    0.5930108
 ITERATION   6 PLS= 0.102E-02 0.000E+00 ENERGY     -458.591801 DELTAE   -0.0031364
 CYCLE:     8 TIME:   0.027 TIME LEFT:  2.00W  GRAD.:   165.055 HEAT: -458.5945
 ITERATION   1 PLS= 0.555E-03 0.000E+00 ENERGY     -435.692714 DELTAE -535.6927140
 ITERATION   2 PLS= 0.386E-01 0.000E+00 ENERGY     -459.601059 DELTAE  -23.9083454
 ITERATION   3 PLS= 0.186E-01 0.000E+00 ENERGY     -462.963388 DELTAE   -3.3623283
 ITERATION   4 PLS= 0.119E-01 0.000E+00 ENERGY     -465.095636 DELTAE   -2.1322485
 ITERATION   5 PLS= 0.299E-02 0.000E+00 ENERGY     -463.944807 DELTAE    1.1508287
 ITERATION   6 PLS= 0.137E-02 0.000E+00 ENERGY     -463.950678 DELTAE   -0.0058707
 CYCLE:     9 TIME:   0.031 TIME LEFT:  2.00W  GRAD.:   252.298 HEAT: -463.9544
 ITERATION   1 PLS= 0.739E-03 0.000E+00 ENERGY     -462.464991 DELTAE -562.4649907
 ITERATION   2 PLS= 0.279E-01 0.000E+00 ENERGY     -473.746600 DELTAE  -11.2816097
 ITERATION   3 PLS= 0.126E-01 0.000E+00 ENERGY     -475.118783 DELTAE   -1.3721826
 ITERATION   4 PLS= 0.683E-02 0.000E+00 ENERGY     -475.774257 DELTAE   -0.6554744
 ITERATION   5 PLS= 0.132E-02 0.000E+00 ENERGY     -475.437468 DELTAE    0.3367894
 ITERATION   6 PLS= 0.601E-03 0.000E+00 ENERGY     -475.439268 DELTAE   -0.0018005
 CYCLE:    10 TIME:   0.031 TIME LEFT:  2.00W  GRAD.:   129.412 HEAT: -475.4405
 ITERATION   1 PLS= 0.355E-03 0.000E+00 ENERGY     -435.555698 DELTAE -535.5556984
 ITERATION   2 PLS= 0.341E-01 0.000E+00 ENERGY     -461.369214 DELTAE  -25.8135160
 ITERATION   3 PLS= 0.100E-01 0.000E+00 ENERGY     -464.322352 DELTAE   -2.9531379
 ITERATION   4 PLS= 0.682E-02 0.000E+00 ENERGY     -465.730384 DELTAE   -1.4080313
 ITERATION   5 PLS= 0.217E-02 0.000E+00 ENERGY     -465.040222 DELTAE    0.6901619
 ITERATION   6 PLS= 0.919E-03 0.000E+00 ENERGY     -465.043863 DELTAE   -0.0036414
 ITERATION   1 PLS= 0.531E-03 0.000E+00 ENERGY     -471.719545 DELTAE -571.7195453
 ITERATION   2 PLS= 0.169E-01 0.000E+00 ENERGY     -478.358249 DELTAE   -6.6387040
 ITERATION   3 PLS= 0.668E-02 0.000E+00 ENERGY     -479.291917 DELTAE   -0.9336681
 ITERATION   4 PLS= 0.412E-02 0.000E+00 ENERGY     -479.831895 DELTAE   -0.5399776
 ITERATION   5 PLS= 0.136E-02 0.000E+00 ENERGY     -479.550505 DELTAE    0.2813903
 ITERATION   6 PLS= 0.547E-03 0.000E+00 ENERGY     -479.551598 DELTAE   -0.0010930
 CYCLE:    11 TIME:   0.055 TIME LEFT:  2.00W  GRAD.:   118.183 HEAT: -479.5524
 ITERATION   1 PLS= 0.259E-03 0.000E+00 ENERGY     -481.089376 DELTAE -581.0893763
 ITERATION   2 PLS= 0.142E-01 0.000E+00 ENERGY     -483.509696 DELTAE   -2.4203193
 ITERATION   3 PLS= 0.492E-02 0.000E+00 ENERGY     -483.800138 DELTAE   -0.2904419
 ITERATION   4 PLS= 0.222E-02 0.000E+00 ENERGY     -483.940643 DELTAE   -0.1405058
 ITERATION   5 PLS= 0.900E-03 0.000E+00 ENERGY     -483.874195 DELTAE    0.0664483
 CYCLE:    12 TIME:   0.031 TIME LEFT:  2.00W  GRAD.:    50.132 HEAT: -483.8746
 ITERATION   1 PLS= 0.367E-03 0.000E+00 ENERGY     -481.869773 DELTAE -581.8697733
 ITERATION   2 PLS= 0.224E-01 0.000E+00 ENERGY     -484.807331 DELTAE   -2.9375576
 ITERATION   3 PLS= 0.712E-02 0.000E+00 ENERGY     -485.238500 DELTAE   -0.4311695
 ITERATION   4 PLS= 0.404E-02 0.000E+00 ENERGY     -485.484510 DELTAE   -0.2460093
 ITERATION   5 PLS= 0.111E-02 0.000E+00 ENERGY     -485.361970 DELTAE    0.1225393
 ITERATION   6 PLS= 0.494E-03 0.000E+00 ENERGY     -485.362482 DELTAE   -0.0005118
 CYCLE:    13 TIME:   0.031 TIME LEFT:  2.00W  GRAD.:    90.440 HEAT: -485.3629
 ITERATION   1 PLS= 0.266E-03 0.000E+00 ENERGY     -486.638985 DELTAE -586.6389851
 ITERATION   2 PLS= 0.994E-02 0.000E+00 ENERGY     -488.584843 DELTAE   -1.9458577
 ITERATION   3 PLS= 0.476E-02 0.000E+00 ENERGY     -488.901512 DELTAE   -0.3166694
 ITERATION   4 PLS= 0.234E-02 0.000E+00 ENERGY     -489.071826 DELTAE   -0.1703134
 ITERATION   5 PLS= 0.735E-03 0.000E+00 ENERGY     -488.991871 DELTAE    0.0799544
 CYCLE:    14 TIME:   0.027 TIME LEFT:  2.00W  GRAD.:    68.488 HEAT: -488.9921
 ITERATION   1 PLS= 0.346E-03 0.000E+00 ENERGY     -485.931388 DELTAE -585.9313879
 ITERATION   2 PLS= 0.162E-01 0.000E+00 ENERGY     -491.068875 DELTAE   -5.1374868
 ITERATION   3 PLS= 0.778E-02 0.000E+00 ENERGY     -491.913567 DELTAE   -0.8446927
 ITERATION   4 PLS= 0.487E-02 0.000E+00 ENERGY     -492.384961 DELTAE   -0.4713935
 ITERATION   5 PLS= 0.113E-02 0.000E+00 ENERGY     -492.152217 DELTAE    0.2327438
 ITERATION   6 PLS= 0.650E-03 0.000E+00 ENERGY     -492.153247 DELTAE   -0.0010301
 CYCLE:    15 TIME:   0.027 TIME LEFT:  2.00W  GRAD.:    83.487 HEAT: -492.1542
 ITERATION   1 PLS= 0.384E-03 0.000E+00 ENERGY     -487.672691 DELTAE -587.6726914
 ITERATION   2 PLS= 0.222E-01 0.000E+00 ENERGY     -495.940605 DELTAE   -8.2679137
 ITERATION   3 PLS= 0.103E-01 0.000E+00 ENERGY     -497.368777 DELTAE   -1.4281716
 ITERATION   4 PLS= 0.472E-02 0.000E+00 ENERGY     -498.044421 DELTAE   -0.6756443
 ITERATION   5 PLS= 0.542E-03 0.000E+00 ENERGY     -497.739927 DELTAE    0.3044944
 ITERATION   6 PLS= 0.254E-03 0.000E+00 ENERGY     -497.740702 DELTAE   -0.0007754
 CYCLE:    16 TIME:   0.031 TIME LEFT:  2.00W  GRAD.:    54.996 HEAT: -497.7414
 ITERATION   1 PLS= 0.145E-03 0.000E+00 ENERGY     -477.633644 DELTAE -577.6336440
 ITERATION   2 PLS= 0.436E-01 0.000E+00 ENERGY     -496.196160 DELTAE  -18.5625163
 ITERATION   3 PLS= 0.166E-01 0.000E+00 ENERGY     -499.285580 DELTAE   -3.0894197
 ITERATION   4 PLS= 0.705E-02 0.000E+00 ENERGY     -500.644204 DELTAE   -1.3586235
 ITERATION   5 PLS= 0.717E-03 0.000E+00 ENERGY     -500.055346 DELTAE    0.5888572
 ITERATION   6 PLS= 0.400E-03 0.000E+00 ENERGY     -500.057052 DELTAE   -0.0017053
 CYCLE:    17 TIME:   0.027 TIME LEFT:  2.00W  GRAD.:    70.123 HEAT: -500.0585
 ITERATION   1 PLS= 0.233E-03 0.000E+00 ENERGY     -499.988579 DELTAE -599.9885790
 ITERATION   2 PLS= 0.139E-01 0.000E+00 ENERGY     -502.304452 DELTAE   -2.3158732
 ITERATION   3 PLS= 0.362E-02 0.000E+00 ENERGY     -502.612252 DELTAE   -0.3077997
 ITERATION   4 PLS= 0.183E-02 0.000E+00 ENERGY     -502.739778 DELTAE   -0.1275265
 ITERATION   5 PLS= 0.652E-03 0.000E+00 ENERGY     -502.691279 DELTAE    0.0484992
 CYCLE:    18 TIME:   0.031 TIME LEFT:  2.00W  GRAD.:    49.327 HEAT: -502.6917
 ITERATION   1 PLS= 0.304E-03 0.000E+00 ENERGY     -501.905150 DELTAE -601.9051499
 ITERATION   2 PLS= 0.106E-01 0.000E+00 ENERGY     -503.360558 DELTAE   -1.4554077
 ITERATION   3 PLS= 0.381E-02 0.000E+00 ENERGY     -503.558849 DELTAE   -0.1982913
 ITERATION   4 PLS= 0.191E-02 0.000E+00 ENERGY     -503.655559 DELTAE   -0.0967097
 ITERATION   5 PLS= 0.484E-03 0.000E+00 ENERGY     -503.611020 DELTAE    0.0445389
 CYCLE:    19 TIME:   0.027 TIME LEFT:  2.00W  GRAD.:    47.247 HEAT: -503.6112
 ITERATION   1 PLS= 0.181E-03 0.000E+00 ENERGY     -502.057446 DELTAE -602.0574465
 ITERATION   2 PLS= 0.200E-01 0.000E+00 ENERGY     -503.997698 DELTAE   -1.9402512
 ITERATION   3 PLS= 0.108E-01 0.000E+00 ENERGY     -504.344900 DELTAE   -0.3472022
 ITERATION   4 PLS= 0.582E-02 0.000E+00 ENERGY     -504.569042 DELTAE   -0.2241426
 ITERATION   5 PLS= 0.623E-03 0.000E+00 ENERGY     -504.450961 DELTAE    0.1180818
 ITERATION   6 PLS= 0.306E-03 0.000E+00 ENERGY     -504.451227 DELTAE   -0.0002663
 CYCLE:    20 TIME:   0.031 TIME LEFT:  2.00W  GRAD.:    43.156 HEAT: -504.4514
 ITERATION   1 PLS= 0.147E-03 0.000E+00 ENERGY     -503.834876 DELTAE -603.8348755
 ITERATION   2 PLS= 0.709E-02 0.000E+00 ENERGY     -504.904850 DELTAE   -1.0699745
 ITERATION   3 PLS= 0.304E-02 0.000E+00 ENERGY     -505.071499 DELTAE   -0.1666491
 ITERATION   4 PLS= 0.158E-02 0.000E+00 ENERGY     -505.160453 DELTAE   -0.0889541
 ITERATION   5 PLS= 0.346E-03 0.000E+00 ENERGY     -505.117405 DELTAE    0.0430482
 CYCLE:    21 TIME:   0.027 TIME LEFT:  2.00W  GRAD.:    44.278 HEAT: -505.1175
 ITERATION   1 PLS= 0.210E-03 0.000E+00 ENERGY     -504.152106 DELTAE -604.1521055
 ITERATION   2 PLS= 0.112E-01 0.000E+00 ENERGY     -505.363419 DELTAE   -1.2113132
 ITERATION   3 PLS= 0.494E-02 0.000E+00 ENERGY     -505.529275 DELTAE   -0.1658567
 ITERATION   4 PLS= 0.220E-02 0.000E+00 ENERGY     -505.596424 DELTAE   -0.0671483
 ITERATION   5 PLS= 0.339E-03 0.000E+00 ENERGY     -505.568422 DELTAE    0.0280021
 CYCLE:    22 TIME:   0.027 TIME LEFT:  2.00W  GRAD.:    29.258 HEAT: -505.5686
 ITERATION   1 PLS= 0.155E-03 0.000E+00 ENERGY     -505.429306 DELTAE -605.4293061
 ITERATION   2 PLS= 0.583E-02 0.000E+00 ENERGY     -506.044482 DELTAE   -0.6151762
 ITERATION   3 PLS= 0.201E-02 0.000E+00 ENERGY     -506.124224 DELTAE   -0.0797419
 ITERATION   4 PLS= 0.102E-02 0.000E+00 ENERGY     -506.159054 DELTAE   -0.0348299
 ITERATION   5 PLS= 0.238E-03 0.000E+00 ENERGY     -506.144009 DELTAE    0.0150454
 CYCLE:    23 TIME:   0.027 TIME LEFT:  2.00W  GRAD.:    25.251 HEAT: -506.1441
 ITERATION   1 PLS= 0.116E-03 0.000E+00 ENERGY     -506.032130 DELTAE -606.0321305
 ITERATION   2 PLS= 0.695E-02 0.000E+00 ENERGY     -506.603228 DELTAE   -0.5710970
 ITERATION   3 PLS= 0.316E-02 0.000E+00 ENERGY     -506.711158 DELTAE   -0.1079310
 ITERATION   4 PLS= 0.162E-02 0.000E+00 ENERGY     -506.768210 DELTAE   -0.0570515
 ITERATION   5 PLS= 0.184E-03 0.000E+00 ENERGY     -506.743003 DELTAE    0.0252071
 CYCLE:    24 TIME:   0.031 TIME LEFT:  2.00W  GRAD.:    17.595 HEAT: -506.7431
 ITERATION   1 PLS= 0.806E-04 0.000E+00 ENERGY     -505.947421 DELTAE -605.9474206
 ITERATION   2 PLS= 0.531E-02 0.000E+00 ENERGY     -506.860441 DELTAE   -0.9130199
 ITERATION   3 PLS= 0.268E-02 0.000E+00 ENERGY     -507.050484 DELTAE   -0.1900435
 ITERATION   4 PLS= 0.140E-02 0.000E+00 ENERGY     -507.167035 DELTAE   -0.1165506
 ITERATION   5 PLS= 0.218E-03 0.000E+00 ENERGY     -507.108564 DELTAE    0.0584711
 CYCLE:    25 TIME:   0.027 TIME LEFT:  2.00W  GRAD.:    14.747 HEAT: -507.1086
 ITERATION   1 PLS= 0.129E-03 0.000E+00 ENERGY     -506.749485 DELTAE -606.7494853
 ITERATION   2 PLS= 0.591E-02 0.000E+00 ENERGY     -507.222242 DELTAE   -0.4727566
 ITERATION   3 PLS= 0.304E-02 0.000E+00 ENERGY     -507.320098 DELTAE   -0.0978561
 ITERATION   4 PLS= 0.151E-02 0.000E+00 ENERGY     -507.377969 DELTAE   -0.0578711
 ITERATION   5 PLS= 0.204E-03 0.000E+00 ENERGY     -507.349704 DELTAE    0.0282655
 CYCLE:    26 TIME:   0.027 TIME LEFT:  2.00W  GRAD.:    13.225 HEAT: -507.3497
 ITERATION   1 PLS= 0.123E-03 0.000E+00 ENERGY     -507.037505 DELTAE -607.0375051
 ITERATION   2 PLS= 0.971E-02 0.000E+00 ENERGY     -507.690080 DELTAE   -0.6525745
 ITERATION   3 PLS= 0.440E-02 0.000E+00 ENERGY     -507.809050 DELTAE   -0.1189700
 ITERATION   4 PLS= 0.202E-02 0.000E+00 ENERGY     -507.872312 DELTAE   -0.0632627
 ITERATION   5 PLS= 0.208E-03 0.000E+00 ENERGY     -507.842754 DELTAE    0.0295585
 CYCLE:    27 TIME:   0.027 TIME LEFT:  2.00W  GRAD.:    16.127 HEAT: -507.8428
 ITERATION   1 PLS= 0.122E-03 0.000E+00 ENERGY     -506.052343 DELTAE -606.0523431
 ITERATION   2 PLS= 0.258E-01 0.000E+00 ENERGY     -508.861303 DELTAE   -2.8089604
 ITERATION   3 PLS= 0.118E-01 0.000E+00 ENERGY     -509.351472 DELTAE   -0.4901689
 ITERATION   4 PLS= 0.544E-02 0.000E+00 ENERGY     -509.601602 DELTAE   -0.2501293
 ITERATION   5 PLS= 0.408E-03 0.000E+00 ENERGY     -509.484930 DELTAE    0.1166721
 ITERATION   6 PLS= 0.231E-03 0.000E+00 ENERGY     -509.485124 DELTAE   -0.0001944
 CYCLE:    28 TIME:   0.031 TIME LEFT:  2.00W  GRAD.:    21.659 HEAT: -509.4853
 ITERATION   1 PLS= 0.123E-03 0.000E+00 ENERGY     -506.214039 DELTAE -606.2140395
 ITERATION   2 PLS= 0.217E-01 0.000E+00 ENERGY     -508.050984 DELTAE   -1.8369444
 ITERATION   3 PLS= 0.962E-02 0.000E+00 ENERGY     -508.348875 DELTAE   -0.2978910
 ITERATION   4 PLS= 0.432E-02 0.000E+00 ENERGY     -508.491463 DELTAE   -0.1425880
 ITERATION   5 PLS= 0.332E-03 0.000E+00 ENERGY     -508.426249 DELTAE    0.0652144
 ITERATION   1 PLS= 0.189E-03 0.000E+00 ENERGY     -507.980999 DELTAE -607.9809994
 ITERATION   2 PLS= 0.106E-01 0.000E+00 ENERGY     -508.421669 DELTAE   -0.4406692
 ITERATION   3 PLS= 0.460E-02 0.000E+00 ENERGY     -508.493482 DELTAE   -0.0718130
 ITERATION   4 PLS= 0.206E-02 0.000E+00 ENERGY     -508.527682 DELTAE   -0.0342006
 ITERATION   5 PLS= 0.165E-03 0.000E+00 ENERGY     -508.512122 DELTAE    0.0155596
 ITERATION   1 PLS= 0.929E-04 0.000E+00 ENERGY     -509.600487 DELTAE -609.6004872
 ITERATION   2 PLS= 0.562E-02 0.000E+00 ENERGY     -509.722774 DELTAE   -0.1222866
 ITERATION   3 PLS= 0.244E-02 0.000E+00 ENERGY     -509.743038 DELTAE   -0.0202646
 ITERATION   4 PLS= 0.109E-02 0.000E+00 ENERGY     -509.752838 DELTAE   -0.0097994
 CYCLE:    29 TIME:   0.082 TIME LEFT:  2.00W  GRAD.:    16.595 HEAT: -509.7484
 ITERATION   1 PLS= 0.857E-04 0.000E+00 ENERGY     -508.021372 DELTAE -608.0213722
 ITERATION   2 PLS= 0.965E-02 0.000E+00 ENERGY     -508.765367 DELTAE   -0.7439944
 ITERATION   3 PLS= 0.466E-02 0.000E+00 ENERGY     -508.888648 DELTAE   -0.1232816
 ITERATION   4 PLS= 0.240E-02 0.000E+00 ENERGY     -508.956326 DELTAE   -0.0676782
 ITERATION   5 PLS= 0.310E-03 0.000E+00 ENERGY     -508.923262 DELTAE    0.0330643
 ITERATION   1 PLS= 0.144E-03 0.000E+00 ENERGY     -508.588890 DELTAE -608.5888903
 ITERATION   2 PLS= 0.467E-02 0.000E+00 ENERGY     -508.774687 DELTAE   -0.1857967
 ITERATION   3 PLS= 0.230E-02 0.000E+00 ENERGY     -508.807404 DELTAE   -0.0327165
 ITERATION   4 PLS= 0.117E-02 0.000E+00 ENERGY     -508.825557 DELTAE   -0.0181530
 ITERATION   1 PLS= 0.142E-03 0.000E+00 ENERGY     -508.592429 DELTAE -608.5924287
 ITERATION   2 PLS= 0.238E-02 0.000E+00 ENERGY     -508.640191 DELTAE   -0.0477619
 ITERATION   3 PLS= 0.122E-02 0.000E+00 ENERGY     -508.648170 DELTAE   -0.0079796
 ITERATION   4 PLS= 0.628E-03 0.000E+00 ENERGY     -508.652693 DELTAE   -0.0045225
 ITERATION   1 PLS= 0.844E-04 0.000E+00 ENERGY     -508.574120 DELTAE -608.5741200
 ITERATION   2 PLS= 0.130E-02 0.000E+00 ENERGY     -508.587006 DELTAE   -0.0128862
 ITERATION   3 PLS= 0.623E-03 0.000E+00 ENERGY     -508.589054 DELTAE   -0.0020473
 ITERATION   4 PLS= 0.314E-03 0.000E+00 ENERGY     -508.590212 DELTAE   -0.0011584
 ITERATION   1 PLS= 0.466E-04 0.000E+00 ENERGY     -509.815094 DELTAE -609.8150937
 ITERATION   2 PLS= 0.676E-03 0.000E+00 ENERGY     -509.818340 DELTAE   -0.0032465
 ITERATION   3 PLS= 0.312E-03 0.000E+00 ENERGY     -509.818812 DELTAE   -0.0004716
 ITERATION   4 PLS= 0.145E-03 0.000E+00 ENERGY     -509.819052 DELTAE   -0.0002398
 CYCLE:    30 TIME:   0.125 TIME LEFT:  2.00W  GRAD.:    14.825 HEAT: -509.8189
 ITERATION   1 PLS= 0.219E-04 0.000E+00 ENERGY     -508.597606 DELTAE -608.5976065
 ITERATION   2 PLS= 0.172E-02 0.000E+00 ENERGY     -508.612722 DELTAE   -0.0151160
 ITERATION   3 PLS= 0.784E-03 0.000E+00 ENERGY     -508.614919 DELTAE   -0.0021970
 ITERATION   4 PLS= 0.363E-03 0.000E+00 ENERGY     -508.615976 DELTAE   -0.0010562
 ITERATION   1 PLS= 0.417E-04 0.000E+00 ENERGY     -508.589712 DELTAE -608.5897118
 ITERATION   2 PLS= 0.879E-03 0.000E+00 ENERGY     -508.593632 DELTAE   -0.0039204
 ITERATION   3 PLS= 0.399E-03 0.000E+00 ENERGY     -508.594208 DELTAE   -0.0005760
 ITERATION   4 PLS= 0.185E-03 0.000E+00 ENERGY     -508.594488 DELTAE   -0.0002799
 ITERATION   1 PLS= 0.220E-04 0.000E+00 ENERGY     -508.655506 DELTAE -608.6555057
 ITERATION   2 PLS= 0.419E-03 0.000E+00 ENERGY     -508.656392 DELTAE   -0.0008866
 ITERATION   3 PLS= 0.191E-03 0.000E+00 ENERGY     -508.656519 DELTAE   -0.0001268
 ITERATION   4 PLS= 0.877E-04 0.000E+00 ENERGY     -508.656577 DELTAE   -0.0000580
 ITERATION   1 PLS= 0.780E-05 0.000E+00 ENERGY     -509.834898 DELTAE -609.8348980
 ITERATION   2 PLS= 0.212E-03 0.000E+00 ENERGY     -509.835142 DELTAE   -0.0002441
 ITERATION   3 PLS= 0.971E-04 0.000E+00 ENERGY     -509.835179 DELTAE   -0.0000366
 ITERATION   4 PLS= 0.452E-04 0.000E+00 ENERGY     -509.835198 DELTAE   -0.0000191
 CYCLE:    31 TIME:   0.102 TIME LEFT:  2.00W  GRAD.:    14.450 HEAT: -509.8352
 ITERATION   1 PLS= 0.608E-05 0.000E+00 ENERGY     -508.580352 DELTAE -608.5803523
 ITERATION   2 PLS= 0.436E-03 0.000E+00 ENERGY     -508.581364 DELTAE   -0.0010115
 ITERATION   3 PLS= 0.198E-03 0.000E+00 ENERGY     -508.581506 DELTAE   -0.0001423
 ITERATION   4 PLS= 0.912E-04 0.000E+00 ENERGY     -508.581570 DELTAE   -0.0000634
 ITERATION   1 PLS= 0.783E-05 0.000E+00 ENERGY     -508.657109 DELTAE -608.6571088
 ITERATION   2 PLS= 0.241E-03 0.000E+00 ENERGY     -508.657370 DELTAE   -0.0002613
 ITERATION   3 PLS= 0.961E-04 0.000E+00 ENERGY     -508.657407 DELTAE   -0.0000369
 ITERATION   4 PLS= 0.435E-04 0.000E+00 ENERGY     -508.657423 DELTAE   -0.0000160
 ITERATION   1 PLS= 0.370E-05 0.000E+00 ENERGY     -509.843552 DELTAE -609.8435517
 ITERATION   2 PLS= 0.111E-03 0.000E+00 ENERGY     -509.843620 DELTAE   -0.0000678
 ITERATION   3 PLS= 0.509E-04 0.000E+00 ENERGY     -509.843630 DELTAE   -0.0000102
 ITERATION   4 PLS= 0.238E-04 0.000E+00 ENERGY     -509.843635 DELTAE   -0.0000052
 CYCLE:    32 TIME:   0.078 TIME LEFT:  2.00W  GRAD.:    14.261 HEAT: -509.8436
 ITERATION   1 PLS= 0.314E-05 0.000E+00 ENERGY     -508.657815 DELTAE -608.6578152
 ITERATION   2 PLS= 0.117E-03 0.000E+00 ENERGY     -508.657892 DELTAE   -0.0000768
 ITERATION   3 PLS= 0.538E-04 0.000E+00 ENERGY     -508.657903 DELTAE   -0.0000113
 ITERATION   4 PLS= 0.250E-04 0.000E+00 ENERGY     -508.657909 DELTAE   -0.0000057

     TRUST RADIUS NOW LESS THAN  0.00010 OPTIMIZATION TERMINATING
      THE GEOMETRY MAY NOT BE COMPLETELY OPTIMIZED
      (TO CONTINUE, ADD 'LET DDMIN=0.0' TO THE KEYWORD LINE)
 ITERATION   1 PLS= 0.336E-05 0.000E+00 ENERGY     -509.843541 DELTAE -609.8435413
 ITERATION   2 PLS= 0.117E-03 0.000E+00 ENERGY     -509.843618 DELTAE   -0.0000768
 ITERATION   3 PLS= 0.537E-04 0.000E+00 ENERGY     -509.843629 DELTAE   -0.0000113
 ITERATION   4 PLS= 0.250E-04 0.000E+00 ENERGY     -509.843635 DELTAE   -0.0000057

 -------------------------------------------------------------------------------
 PM7 CHARGE=-1 SINGLET AUX DUMP=30M ITRY=15000 T=14D PL THREADS=40 EPS=78.4

 Mopac file generated by Gabedit


     GEOMETRY OPTIMISED USING EIGENVECTOR FOLLOWING (EF).     
     SCF FIELD WAS ACHIEVED                                   


                              PM7 CALCULATION
                                                       MOPAC v22.1.0 Linux
                                                       Sat Mar 23 14:46:24 2024




          FINAL HEAT OF FORMATION =       -509.84363 KCAL/MOL =   -2133.18576 KJ/MOL
          VAN DER WAALS AREA      =        215.38 SQUARE ANGSTROMS



          DIELECTRIC ENERGY       =         -3.81873 EV
          COSMO AREA              =        215.38 SQUARE ANGSTROMS
          COSMO VOLUME            =        213.65 CUBIC ANGSTROMS

          GRADIENT NORM           =         14.26131          =       2.91108 PER ATOM
          IONIZATION POTENTIAL    =         10.621606 EV
          HOMO LUMO ENERGIES (EV) =        -10.622 -0.209
          NO. OF FILLED LEVELS    =         36
          MOLECULAR WEIGHT        =        168.1235         POINT GROUP:  C1  

          MOLECULAR DIMENSIONS (Angstroms)

            Atom       Atom       Distance
            H    22    H    15     8.10832
            O     9    O     6     6.32389
            O     7    H    18     3.37434


          SCF CALCULATIONS        =         48

          WALL-CLOCK TIME         =      1.383 SECONDS
          COMPUTATION TIME        =          1 MINUTE AND 40.177 SECONDS



       FINAL  POINT  AND  DERIVATIVES

   PARAMETER     ATOM    TYPE            VALUE        GRADIENT
      1          1  C    CARTESIAN X     0.457576      0.030552  KCAL/ANGSTROM
      2          1  C    CARTESIAN Y    -1.188661      0.144579  KCAL/ANGSTROM
      3          1  C    CARTESIAN Z     0.528151     -0.404028  KCAL/ANGSTROM
      4          2  H    CARTESIAN X     0.810333      0.109115  KCAL/ANGSTROM
      5          2  H    CARTESIAN Y    -1.901109     -0.374942  KCAL/ANGSTROM
      6          2  H    CARTESIAN Z    -0.246964     -0.094617  KCAL/ANGSTROM
      7          3  H    CARTESIAN X     1.002587     -0.106537  KCAL/ANGSTROM
      8          3  H    CARTESIAN Y    -0.230138     -0.231843  KCAL/ANGSTROM
      9          3  H    CARTESIAN Z     0.353330      0.117833  KCAL/ANGSTROM
     10          4  H    CARTESIAN X     0.771173      0.195011  KCAL/ANGSTROM
     11          4  H    CARTESIAN Y    -1.574906      0.464387  KCAL/ANGSTROM
     12          4  H    CARTESIAN Z     1.517328      0.206131  KCAL/ANGSTROM
     13          5  N    CARTESIAN X    -0.981730      0.653774  KCAL/ANGSTROM
     14          5  N    CARTESIAN Y    -0.986078      0.327382  KCAL/ANGSTROM
     15          5  N    CARTESIAN Z     0.450283     -0.688057  KCAL/ANGSTROM
     16          6  O    CARTESIAN X    -1.653383      1.106148  KCAL/ANGSTROM
     17          6  O    CARTESIAN Y    -1.107759      0.256304  KCAL/ANGSTROM
     18          6  O    CARTESIAN Z     1.462874     -0.605779  KCAL/ANGSTROM
     19          7  O    CARTESIAN X    -1.487280     -0.107819  KCAL/ANGSTROM
     20          7  O    CARTESIAN Y    -0.714519     -0.072167  KCAL/ANGSTROM
     21          7  O    CARTESIAN Z    -0.630575      0.480869  KCAL/ANGSTROM
     22          8  H    CARTESIAN X     0.890261     -0.000504  KCAL/ANGSTROM
     23          8  H    CARTESIAN Y     4.283630     -0.620085  KCAL/ANGSTROM
     24          8  H    CARTESIAN Z     0.282040     -0.171083  KCAL/ANGSTROM
     25          9  O    CARTESIAN X     1.731005     -0.388894  KCAL/ANGSTROM
     26          9  O    CARTESIAN Y     4.045319     -0.308559  KCAL/ANGSTROM
     27          9  O    CARTESIAN Z    -0.047777     -0.104778  KCAL/ANGSTROM
     28         10  H    CARTESIAN X     2.230446     -0.805740  KCAL/ANGSTROM
     29         10  H    CARTESIAN Y     1.250895      0.854567  KCAL/ANGSTROM
     30         10  H    CARTESIAN Z     0.270509     -1.237902  KCAL/ANGSTROM
     31         11  O    CARTESIAN X     1.883633     -0.560295  KCAL/ANGSTROM
     32         11  O    CARTESIAN Y     1.808842      4.101444  KCAL/ANGSTROM
     33         11  O    CARTESIAN Z     0.924525      1.707960  KCAL/ANGSTROM
     34         12  H    CARTESIAN X     1.847652      2.456266  KCAL/ANGSTROM
     35         12  H    CARTESIAN Y     2.958722     -5.696311  KCAL/ANGSTROM
     36         12  H    CARTESIAN Z     0.395191      1.987246  KCAL/ANGSTROM
     37         13  H    CARTESIAN X    -2.500411     -3.810232  KCAL/ANGSTROM
     38         13  H    CARTESIAN Y     1.687584     -1.785996  KCAL/ANGSTROM
     39         13  H    CARTESIAN Z     1.499118     -0.763339  KCAL/ANGSTROM
     40         14  O    CARTESIAN X    -3.195392     -0.236766  KCAL/ANGSTROM
     41         14  O    CARTESIAN Y     2.279382     -2.023685  KCAL/ANGSTROM
     42         14  O    CARTESIAN Z     1.794539     -0.537101  KCAL/ANGSTROM
     43         15  H    CARTESIAN X    -2.754131     -1.572043  KCAL/ANGSTROM
     44         15  H    CARTESIAN Y     3.105503      1.921358  KCAL/ANGSTROM
     45         15  H    CARTESIAN Z     2.038681      1.544154  KCAL/ANGSTROM
     46         16  H    CARTESIAN X    -0.903699     -3.682802  KCAL/ANGSTROM
     47         16  H    CARTESIAN Y     3.331853      3.671802  KCAL/ANGSTROM
     48         16  H    CARTESIAN Z     1.665123     -0.172880  KCAL/ANGSTROM
     49         17  O    CARTESIAN X    -1.178275      2.789663  KCAL/ANGSTROM
     50         17  O    CARTESIAN Y     4.220161      3.762513  KCAL/ANGSTROM
     51         17  O    CARTESIAN Z     1.951951      0.179305  KCAL/ANGSTROM
     52         18  H    CARTESIAN X    -0.707837      1.793127  KCAL/ANGSTROM
     53         18  H    CARTESIAN Y     4.381091      1.101755  KCAL/ANGSTROM
     54         18  H    CARTESIAN Z     2.780949      2.100479  KCAL/ANGSTROM
     55         19  H    CARTESIAN X     0.031492     -0.333094  KCAL/ANGSTROM
     56         19  H    CARTESIAN Y     1.769408     -2.565128  KCAL/ANGSTROM
     57         19  H    CARTESIAN Z     0.490670     -1.274964  KCAL/ANGSTROM
     58         20  O    CARTESIAN X    -0.588657      1.290457  KCAL/ANGSTROM
     59         20  O    CARTESIAN Y     1.691607     -3.851461  KCAL/ANGSTROM
     60         20  O    CARTESIAN Z     1.258128     -1.173107  KCAL/ANGSTROM
     61         21  H    CARTESIAN X     0.073547      3.136502  KCAL/ANGSTROM
     62         21  H    CARTESIAN Y     1.423303     -0.545538  KCAL/ANGSTROM
     63         21  H    CARTESIAN Z     1.931284     -1.906376  KCAL/ANGSTROM
     64         22  H    CARTESIAN X     3.551669      0.106768  KCAL/ANGSTROM
     65         22  H    CARTESIAN Y    -1.043799     -0.220413  KCAL/ANGSTROM
     66         22  H    CARTESIAN Z    -0.921897      0.575099  KCAL/ANGSTROM
     67         23  O    CARTESIAN X     3.074114     -1.166259  KCAL/ANGSTROM
     68         23  O    CARTESIAN Y    -0.605079      0.334439  KCAL/ANGSTROM
     69         23  O    CARTESIAN Z    -0.209666      0.064092  KCAL/ANGSTROM
     70         24  H    CARTESIAN X     3.762868     -0.894959  KCAL/ANGSTROM
     71         24  H    CARTESIAN Y    -0.226641      1.364270  KCAL/ANGSTROM
     72         24  H    CARTESIAN Z     0.349773      0.172834  KCAL/ANGSTROM




   ATOM   CHEMICAL          X               Y               Z
  NUMBER   SYMBOL      (ANGSTROMS)     (ANGSTROMS)     (ANGSTROMS)

     1       C          0.45757561  *  -1.18866096  *   0.52815145  *
     2       H          0.81033329  *  -1.90110859  *  -0.24696439  *
     3       H          1.00258651  *  -0.23013766  *   0.35332995  *
     4       H          0.77117287  *  -1.57490632  *   1.51732785  *
     5       N         -0.98173011  *  -0.98607789  *   0.45028326  *
     6       O         -1.65338327  *  -1.10775918  *   1.46287446  *
     7       O         -1.48728047  *  -0.71451898  *  -0.63057510  *
     8       H          0.89026052  *   4.28363004  *   0.28204016  *
     9       O          1.73100542  *   4.04531932  *  -0.04777657  *
    10       H          2.23044582  *   1.25089548  *   0.27050883  *
    11       O          1.88363348  *   1.80884239  *   0.92452473  *
    12       H          1.84765194  *   2.95872210  *   0.39519147  *
    13       H         -2.50041127  *   1.68758361  *   1.49911826  *
    14       O         -3.19539220  *   2.27938153  *   1.79453876  *
    15       H         -2.75413100  *   3.10550347  *   2.03868063  *
    16       H         -0.90369933  *   3.33185295  *   1.66512305  *
    17       O         -1.17827528  *   4.22016117  *   1.95195073  *
    18       H         -0.70783665  *   4.38109105  *   2.78094881  *
    19       H          0.03149165  *   1.76940808  *   0.49066965  *
    20       O         -0.58865689  *   1.69160679  *   1.25812838  *
    21       H          0.07354703  *   1.42330307  *   1.93128369  *
    22       H          3.55166920  *  -1.04379947  *  -0.92189732  *
    23       O          3.07411413  *  -0.60507852  *  -0.20966557  *
    24       H          3.76286845  *  -0.22664131  *   0.34977285  *

                             CARTESIAN COORDINATES

   1    C        0.457575611    -1.188660959     0.528151449
   2    H        0.810333295    -1.901108592    -0.246964386
   3    H        1.002586515    -0.230137660     0.353329951
   4    H        0.771172872    -1.574906316     1.517327849
   5    N       -0.981730113    -0.986077890     0.450283261
   6    O       -1.653383268    -1.107759182     1.462874464
   7    O       -1.487280466    -0.714518981    -0.630575097
   8    H        0.890260517     4.283630041     0.282040163
   9    O        1.731005419     4.045319318    -0.047776571
  10    H        2.230445820     1.250895479     0.270508828
  11    O        1.883633482     1.808842388     0.924524726
  12    H        1.847651942     2.958722096     0.395191471
  13    H       -2.500411272     1.687583607     1.499118258
  14    O       -3.195392197     2.279381525     1.794538755
  15    H       -2.754131005     3.105503470     2.038680633
  16    H       -0.903699332     3.331852949     1.665123053
  17    O       -1.178275279     4.220161172     1.951950734
  18    H       -0.707836655     4.381091047     2.780948808
  19    H        0.031491653     1.769408078     0.490669650
  20    O       -0.588656889     1.691606794     1.258128382
  21    H        0.073547028     1.423303068     1.931283687
  22    H        3.551669202    -1.043799469    -0.921897323
  23    O        3.074114127    -0.605078519    -0.209665568
  24    H        3.762868450    -0.226641308     0.349772848


           Empirical Formula: C H14 N O8  =    24 atoms



      MOLECULAR POINT GROUP   :   C1  


                  EIGENVALUES  
 -37.25889 -30.58939 -29.87622 -29.15900 -28.92001 -28.55397 -27.61085 -26.93828
 -25.46896 -22.84570 -18.33235 -18.10756 -18.02708 -17.82001 -17.60137 -17.55142
 -17.04296 -16.15519 -15.12035 -14.66077 -14.50609 -14.26364 -14.10849 -14.02488
 -13.59697 -13.35442 -12.35522 -12.32385 -12.23556 -12.18814 -11.85044 -11.74444
 -11.56839 -11.26936 -10.91905 -10.62161  -0.20853   0.76088   3.40016   4.15429
   4.19236   4.34625   4.77346   4.97100   5.06816   5.27784   5.70837   5.99437
   6.47987   6.73971   6.74623   6.86478   7.16921   8.04043


              NET ATOMIC CHARGES AND DIPOLE CONTRIBUTIONS

  ATOM NO.   TYPE          CHARGE      No. of ELECS.   s-Pop       p-Pop       
    1          C          -0.405987        4.4060     1.08657     3.31942
    2          H           0.216188        0.7838     0.78381
    3          H           0.238327        0.7617     0.76167
    4          H           0.206319        0.7937     0.79368
    5          N           0.707549        4.2925     1.44642     2.84603
    6          O          -0.473882        6.4739     1.93948     4.53441
    7          O          -0.489589        6.4896     1.93994     4.54965
    8          H           0.342339        0.6577     0.65766
    9          O          -1.021524        7.0215     1.85636     5.16517
   10          H           0.346647        0.6534     0.65335
   11          O          -1.083368        7.0834     1.86008     5.22329
   12          H           0.439986        0.5600     0.56001
   13          H           0.373930        0.6261     0.62607
   14          O          -0.767575        6.7676     1.81146     4.95611
   15          H           0.376229        0.6238     0.62377
   16          H           0.380215        0.6198     0.61978
   17          O          -0.777105        6.7771     1.81557     4.96154
   18          H           0.377337        0.6227     0.62266
   19          H           0.389888        0.6101     0.61011
   20          O          -0.762121        6.7621     1.83127     4.93085
   21          H           0.383436        0.6166     0.61656
   22          H           0.369900        0.6301     0.63010
   23          O          -0.737088        6.7371     1.81329     4.92380
   24          H           0.369949        0.6301     0.63005
 DIPOLE           X         Y         Z       TOTAL
 POINT-CHG.     4.164   -11.311     1.322    12.125
 HYBRID         0.497    -0.268    -0.033     0.565
 SUM            4.661   -11.579     1.289    12.548


          ATOMIC ORBITAL ELECTRON POPULATIONS

     Atom    s        px        py        pz   
    1  C   1.08657   0.85036   1.23398   1.23508
    2  H   0.78381
    3  H   0.76167
    4  H   0.79368
    5  N   1.44642   1.01704   0.88897   0.94002
    6  O   1.93948   1.68149   1.58032   1.27259
    7  O   1.93994   1.79530   1.56220   1.19215
    8  H   0.65766
    9  O   1.85636   1.55118   1.73349   1.88050
   10  H   0.65335
   11  O   1.86008   1.90268   1.65348   1.66713
   12  H   0.56001
   13  H   0.62607
   14  O   1.81146   1.55053   1.47967   1.92592
   15  H   0.62377
   16  H   0.61978
   17  O   1.81557   1.80311   1.57115   1.58728
   18  H   0.62266
   19  H   0.61011
   20  O   1.83127   1.52042   1.93197   1.47845
   21  H   0.61656
   22  H   0.63010
   23  O   1.81329   1.52438   1.82413   1.57529
   24  H   0.63005

 **********************
 *                    *
 * JOB ENDED NORMALLY *
 *                    *
 **********************



 TOTAL JOB TIME:             1.39 SECONDS

 == MOPAC DONE ==
