 *******************************************************************************
 **                                                                           **
 **                              MOPAC v22.0.6                                **
 **                                                                           **
 *******************************************************************************
 **          Digital Object Identifier (DOI): 10.5281/zenodo.6511958          **
 **    Visit the DOI location for information on how to cite this program.    **
 *******************************************************************************

                              PM7 CALCULATION RESULTS

 *******************************************************************************
 *  CALCULATION DONE:                                Sat Mar 23 22:13:11 2024  *
 *  PM7        - The PM7 Hamiltonian to be used
 *  SINGLET    - SPIN STATE DEFINED AS A SINGLET
 *
 *
 *
 *                 CHARGE ON SYSTEM = 0
 *
 *
 *
 *  EPS=78.4   - USE ANDREAS KLAMT'S COSMO IMPLICIT SOLVATION MODEL
 *  THREADS    - USE A MAXIMUM OF 30 THREADS
 *  T=         - A TIME OF 14.0 DAYS REQUESTED
 *  DUMP=N     - RESTART FILE WRITTEN EVERY 30.0 MINUTES REQUESTED
 *  RELSCF     - DEFAULT SCF CRITERION MULTIPLIED BY 1.0000
 *              (DEFAULT SCF CRITERION = 0.00010)
 *  ITRY=      - DO A MAXIMUM OF 15000 ITERATIONS FOR SCF
 *  AUX        - OUTPUT AUXILIARY INFORMATION
 *  BONDS      - FINAL BOND-ORDER MATRIX TO BE PRINTED
 *******************************************************************************
PM7 BONDS AUX DUMP=30M ITRY=15000 T=14D THREADS=30 CHARGE=0 SINGLET eps=78.4 RELSCF=1
 Title: ASE calculation

   ATOM   CHEMICAL          X               Y               Z
  NUMBER   SYMBOL      (ANGSTROMS)     (ANGSTROMS)     (ANGSTROMS)

     1       C          2.05046040  *   2.66417330  *  -1.26529028  *
     2       C          2.24589651  *   1.41125107  *  -0.69436084  *
     3       C          1.37648083  *   0.34148145  *  -0.96847376  *
     4       C          0.28673990  *   0.56883340  *  -1.82407220  *
     5       C          0.13591808  *   1.82300407  *  -2.39110013  *
     6       C          0.98482030  *   2.88736447  *  -2.13917669  *
     7       H          2.74009652  *   3.47986770  *  -1.03739780  *
     8       H          3.09607460  *   1.26417444  *  -0.02531665  *
     9       H         -0.41924658  *  -0.23508279  *  -2.04466892  *
    10      Cl         -1.17618931  *   2.05747475  *  -3.48000151  *
    11       H          0.84150291  *   3.86404782  *  -2.59934759  *
    12       C          1.61811800     -0.96265470     -0.37616200   
    13       C          2.08091255  *  -1.04951754  *   1.04185991  *
    14       H          2.61566267  *  -1.98956721  *   1.24907585  *
    15       H          1.23491639  *  -0.99724919  *   1.74459070  *
    16       H          2.76841421  *  -0.23380879  *   1.30659290  *
    17       N          1.17222724  *  -2.10188276  *  -0.96695429  *
    18       O          1.21952845  *  -3.20193635  *  -0.37085127  *
    19       O          0.79886385  *  -2.10876823  *  -2.16298965  *
    20       N          4.16346385  *  -0.45797538  *  -3.94036985  *
    21       C          4.01923463  *  -1.70197771  *  -4.78952378  *
    22       C          3.62220910  *  -1.31936212  *  -6.21576194  *
    23       C          2.31333185  *  -0.52289796  *  -6.21919140  *
    24       C          2.43944917  *   0.71131167  *  -5.32121755  *
    25       C          2.85420712  *   0.29773262  *  -3.90995020  *
    26       H          3.28431730     -1.23294831  *  -1.25418004  *
    27       H          4.98829121  *  -2.25298972  *  -4.77673106  *
    28       H          3.25715390  *  -2.37270481  *  -4.32916539  *
    29       H          3.51942899  *  -2.23619505  *  -6.83196577  *
    30       H          4.42966687  *  -0.73672854  *  -6.70315278  *
    31       H          2.05645379  *  -0.21739794  *  -7.25218692  *
    32       H          1.47165585  *  -1.16061437  *  -5.88181486  *
    33       H          1.47836688  *   1.26340124  *  -5.28221237  *
    34       H          3.16557138  *   1.43164956  *  -5.74864187  *
    35       H          2.97689317  *   1.19175908  *  -3.25460062  *
    36       H          2.07013070  *  -0.35365724  *  -3.44784172  *
    37       H          4.91614816  *   0.15067708  *  -4.32591070  *
    38       H          4.60618246  *  -0.50859333  *  -0.69568821  *
    39       H          4.45082049  *  -0.72143457  *  -2.94634620  *
    40       O          4.39968358     -1.21281445     -1.31476358   



          CARTESIAN COORDINATES 

    NO.       ATOM           X           Y           Z

     1         C          2.0505      2.6642     -1.2653
     2         C          2.2459      1.4113     -0.6944
     3         C          1.3765      0.3415     -0.9685
     4         C          0.2867      0.5688     -1.8241
     5         C          0.1359      1.8230     -2.3911
     6         C          0.9848      2.8874     -2.1392
     7         H          2.7401      3.4799     -1.0374
     8         H          3.0961      1.2642     -0.0253
     9         H         -0.4192     -0.2351     -2.0447
    10        Cl         -1.1762      2.0575     -3.4800
    11         H          0.8415      3.8640     -2.5993
    12         C          1.6181     -0.9627     -0.3762
    13         C          2.0809     -1.0495      1.0419
    14         H          2.6157     -1.9896      1.2491
    15         H          1.2349     -0.9972      1.7446
    16         H          2.7684     -0.2338      1.3066
    17         N          1.1722     -2.1019     -0.9670
    18         O          1.2195     -3.2019     -0.3709
    19         O          0.7989     -2.1088     -2.1630
    20         N          4.1635     -0.4580     -3.9404
    21         C          4.0192     -1.7020     -4.7895
    22         C          3.6222     -1.3194     -6.2158
    23         C          2.3133     -0.5229     -6.2192
    24         C          2.4394      0.7113     -5.3212
    25         C          2.8542      0.2977     -3.9100
    26         H          3.2843     -1.2329     -1.2542
    27         H          4.9883     -2.2530     -4.7767
    28         H          3.2572     -2.3727     -4.3292
    29         H          3.5194     -2.2362     -6.8320
    30         H          4.4297     -0.7367     -6.7032
    31         H          2.0565     -0.2174     -7.2522
    32         H          1.4717     -1.1606     -5.8818
    33         H          1.4784      1.2634     -5.2822
    34         H          3.1656      1.4316     -5.7486
    35         H          2.9769      1.1918     -3.2546
    36         H          2.0701     -0.3537     -3.4478
    37         H          4.9161      0.1507     -4.3259
    38         H          4.6062     -0.5086     -0.6957
    39         H          4.4508     -0.7214     -2.9463
    40         O          4.3997     -1.2128     -1.3148

 General Reference for PM7:
 "Optimization of Parameters for Semiempirical Methods VI: More Modifications to the 
 NDDO Approximations and Re-optimization of Parameters", J. J. P. Stewart, J. Mol. Mod., 1:32, 19 (2013)
 https://link.springer.com/article/10.1007/s00894-012-1667-x

           Empirical Formula: C13 H21 N2 O3 Cl  =    40 atoms



      MOLECULAR POINT GROUP   :   C1  


 SINGLET STATE CALCULATION


      RHF CALCULATION, NO. OF DOUBLY OCCUPIED LEVELS = 54


          Geometry optimization using L-BFGS
  SCF CRITERION =    0.1000E-03
 CYCLE:     1 TIME:   0.250 TIME LEFT:  2.00W  GRAD.:     7.638 HEAT: -108.5024
 CYCLE:     2 TIME:   0.086 TIME LEFT:  2.00W  GRAD.:     7.507 HEAT: -108.5031
 CYCLE:     3 TIME:   0.070 TIME LEFT:  2.00W  GRAD.:     4.389 HEAT: -108.5330
 CYCLE:     4 TIME:   0.078 TIME LEFT:  2.00W  GRAD.:     7.545 HEAT: -108.5030
 CYCLE:     5 TIME:   0.086 TIME LEFT:  2.00W  GRAD.:     4.472 HEAT: -108.5313
 CYCLE:     6 TIME:   0.078 TIME LEFT:  2.00W  GRAD.:     3.352 HEAT: -108.5385
 CYCLE:     7 TIME:   0.062 TIME LEFT:  2.00W  GRAD.:     2.457 HEAT: -108.5489
 CYCLE:     8 TIME:   0.070 TIME LEFT:  2.00W  GRAD.:     2.839 HEAT: -108.5599
 CYCLE:     9 TIME:   0.062 TIME LEFT:  2.00W  GRAD.:     2.392 HEAT: -108.5308
 CYCLE:    10 TIME:   0.070 TIME LEFT:  2.00W  GRAD.:     1.696 HEAT: -108.5339
 CYCLE:    11 TIME:   0.062 TIME LEFT:  2.00W  GRAD.:     1.595 HEAT: -108.5342
 CYCLE:    12 TIME:   0.086 TIME LEFT:  2.00W  GRAD.:     1.825 HEAT: -108.5319
 CYCLE:    13 TIME:   0.062 TIME LEFT:  2.00W  GRAD.:     1.690 HEAT: -108.5354
 CYCLE:    14 TIME:   0.070 TIME LEFT:  2.00W  GRAD.:     1.929 HEAT: -108.5331
 CYCLE:    15 TIME:   0.062 TIME LEFT:  2.00W  GRAD.:     1.715 HEAT: -108.5310
 CYCLE:    16 TIME:   0.078 TIME LEFT:  2.00W  GRAD.:     1.845 HEAT: -108.5283
 CYCLE:    17 TIME:   0.070 TIME LEFT:  2.00W  GRAD.:     2.377 HEAT: -108.5402
 CYCLE:    18 TIME:   0.078 TIME LEFT:  2.00W  GRAD.:     2.463 HEAT: -108.5360
 CYCLE:    19 TIME:   0.070 TIME LEFT:  2.00W  GRAD.:     2.932 HEAT: -108.5443
 CYCLE:    20 TIME:   0.062 TIME LEFT:  2.00W  GRAD.:     3.197 HEAT: -108.5650
 CYCLE:    21 TIME:   0.062 TIME LEFT:  2.00W  GRAD.:     3.458 HEAT: -108.5267
 CYCLE:    22 TIME:   0.070 TIME LEFT:  2.00W  GRAD.:     4.407 HEAT: -108.5384
 CYCLE:    23 TIME:   0.062 TIME LEFT:  2.00W  GRAD.:     5.026 HEAT: -108.5331
 CYCLE:    24 TIME:   0.062 TIME LEFT:  2.00W  GRAD.:    56.784 HEAT: -107.9318
 CYCLE:    25 TIME:   0.070 TIME LEFT:  2.00W  GRAD.:    24.764 HEAT: -108.4485
 CYCLE:    26 TIME:   0.070 TIME LEFT:  2.00W  GRAD.:    41.018 HEAT: -108.2940
 CYCLE:    27 TIME:   0.102 TIME LEFT:  2.00W  GRAD.:    33.015 HEAT: -108.3409
 CYCLE:    28 TIME:   0.078 TIME LEFT:  2.00W  GRAD.:    14.547 HEAT: -108.5045
 CYCLE:    29 TIME:   0.102 TIME LEFT:  2.00W  GRAD.:    78.823 HEAT: -107.3493
 CYCLE:    30 TIME:   0.070 TIME LEFT:  2.00W  GRAD.:    13.302 HEAT: -108.6829
 CYCLE:    31 TIME:   0.070 TIME LEFT:  2.00W  GRAD.:    10.173 HEAT: -108.4961
 CYCLE:    32 TIME:   0.062 TIME LEFT:  2.00W  GRAD.:    36.075 HEAT: -108.2545
 CYCLE:    33 TIME:   0.078 TIME LEFT:  2.00W  GRAD.:     6.617 HEAT: -108.5566
 CYCLE:    34 TIME:   0.070 TIME LEFT:  2.00W  GRAD.:    12.369 HEAT: -108.4994
 CYCLE:    35 TIME:   0.078 TIME LEFT:  2.00W  GRAD.:    11.288 HEAT: -108.6168
 CYCLE:    36 TIME:   0.078 TIME LEFT:  2.00W  GRAD.:   198.631 HEAT: -100.4680
 CYCLE:    37 TIME:   0.109 TIME LEFT:  2.00W  GRAD.:   164.607 HEAT: -102.8121
 CYCLE:    38 TIME:   0.102 TIME LEFT:  2.00W  GRAD.:   136.392 HEAT: -104.6429
 CYCLE:    39 TIME:   0.078 TIME LEFT:  2.00W  GRAD.:   302.373 HEAT: -86.26594
 CYCLE:    40 TIME:   0.086 TIME LEFT:  2.00W  GRAD.:   429.481 HEAT: -82.85262
 CYCLE:    41 TIME:   0.078 TIME LEFT:  2.00W  GRAD.:   265.630 HEAT: -94.75723
 CYCLE:    42 TIME:   0.109 TIME LEFT:  2.00W  GRAD.:   158.327 HEAT: -102.4079
 CYCLE:    43 TIME:   0.078 TIME LEFT:  2.00W  GRAD.:   172.332 HEAT: -100.7929
 CYCLE:    44 TIME:   0.164 TIME LEFT:  2.00W  GRAD.:   129.195 HEAT: -105.1506
 CYCLE:    45 TIME:   0.102 TIME LEFT:  2.00W  GRAD.:   138.019 HEAT: -103.7856
 CYCLE:    46 TIME:   0.086 TIME LEFT:  2.00W  GRAD.:    74.949 HEAT: -106.9526
 CYCLE:    47 TIME:   0.070 TIME LEFT:  2.00W  GRAD.:    21.462 HEAT: -108.2721
 CYCLE:    48 TIME:   0.070 TIME LEFT:  2.00W  GRAD.:     7.021 HEAT: -108.3656
 CYCLE:    49 TIME:   0.062 TIME LEFT:  2.00W  GRAD.:    10.704 HEAT: -108.3760
 CYCLE:    50 TIME:   0.062 TIME LEFT:  2.00W  GRAD.:     6.810 HEAT: -108.4346
 CYCLE:    51 TIME:   0.109 TIME LEFT:  2.00W  GRAD.:     3.478 HEAT: -108.4075
 CYCLE:    52 TIME:   0.062 TIME LEFT:  2.00W  GRAD.:     2.842 HEAT: -108.4485
 CYCLE:    53 TIME:   0.070 TIME LEFT:  2.00W  GRAD.:     2.936 HEAT: -108.4605
 CYCLE:    54 TIME:   0.062 TIME LEFT:  2.00W  GRAD.:     2.573 HEAT: -108.4653
 CYCLE:    55 TIME:   0.062 TIME LEFT:  2.00W  GRAD.:     3.207 HEAT: -108.4770
 CYCLE:    56 TIME:   0.070 TIME LEFT:  2.00W  GRAD.:     3.184 HEAT: -108.4870
 CYCLE:    57 TIME:   0.070 TIME LEFT:  2.00W  GRAD.:     3.590 HEAT: -108.5134
 CYCLE:    58 TIME:   0.070 TIME LEFT:  2.00W  GRAD.:    12.719 HEAT: -108.5579
 CYCLE:    59 TIME:   0.062 TIME LEFT:  2.00W  GRAD.:     2.183 HEAT: -108.5864
 CYCLE:    60 TIME:   0.070 TIME LEFT:  2.00W  GRAD.:     1.376 HEAT: -108.5905


           HEAT OF FORMATION IS ESSENTIALLY STATIONARY


          CURRENT BEST VALUE OF HEAT OF FORMATION =   -108.684952

 PM7 BONDS AUX DUMP=30M ITRY=15000 T=14D THREADS=30 CHARGE=0 SINGLET eps=78.4 RELSCF=1
 Title: ASE calculation

  C     2.08978701 +1   2.66604505 +1  -1.25243542 +1
  C     2.27630740 +1   1.40766536 +1  -0.68136599 +1
  C     1.40351937 +1   0.34644417 +1  -0.96832225 +1
  C     0.32528636 +1   0.57560467 +1  -1.83568770 +1
  C     0.18360548 +1   1.83466181 +1  -2.40027669 +1
  C     1.03416146 +1   2.89207424 +1  -2.13493239 +1
  H     2.77890885 +1   3.47717838 +1  -1.01357665 +1
  H     3.11936355 +1   1.25687376 +1  -0.00508407 +1
  H    -0.37583777 +1  -0.22762117 +1  -2.06755757 +1
 Cl    -1.12147455 +1   2.07492770 +1  -3.49489868 +1
  H     0.89789105 +1   3.87316087 +1  -2.59326989 +1
  C     1.61811800 +0  -0.96265470 +0  -0.37616200 +0
  C     2.06834843 +1  -1.06686493 +1   1.04395336 +1
  H     2.59137967 +1  -2.01510334 +1   1.24622740 +1
  H     1.22053703 +1  -1.01126708 +1   1.74231630 +1
  H     2.76442309 +1  -0.26123560 +1   1.31832090 +1
  N     1.23124268 +1  -2.09543003 +1  -1.00944563 +1
  O     1.27725722 +1  -3.20914506 +1  -0.43532656 +1
  O     0.90681867 +1  -2.08259282 +1  -2.22502871 +1
  N     4.17993298 +1  -0.44714830 +1  -3.98844818 +1
  C     4.02871016 +1  -1.69572074 +1  -4.83021305 +1
  C     3.61291653 +1  -1.32344835 +1  -6.25305510 +1
  C     2.30342722 +1  -0.52823488 +1  -6.24675919 +1
  C     2.43680146 +1   0.71062522 +1  -5.35628439 +1
  C     2.86888052 +1   0.30769017 +1  -3.94800147 +1
  H     3.28431730 +0  -1.25138159 +1  -1.26654532 +1
  H     5.00032498 +1  -2.24320789 +1  -4.82643447 +1
  H     3.27372197 +1  -2.36594784 +1  -4.35570399 +1
  H     3.50280896 +1  -2.24491529 +1  -6.86060537 +1
  H     4.41339991 +1  -0.74448999 +1  -6.75676515 +1
  H     2.03507358 +1  -0.22868766 +1  -7.27876314 +1
  H     1.46622154 +1  -1.16545810 +1  -5.89777644 +1
  H     1.47455691 +1   1.25956498 +1  -5.30957911 +1
  H     3.15504841 +1   1.43094766 +1  -5.79782677 +1
  H     2.99747458 +1   1.20623309 +1  -3.29945335 +1
  H     2.09206787 +1  -0.34343294 +1  -3.47147696 +1
  H     4.92769971 +1   0.16225419 +1  -4.38632511 +1
  H     4.59560257 +1  -0.51419810 +1  -0.68147722 +1
  H     4.47680928 +1  -0.70026617 +1  -3.00083964 +1
  O     4.39968358 +0  -1.21281445 +0  -1.31476358 +0



 -------------------------------------------------------------------------------
 PM7 BONDS AUX DUMP=30M ITRY=15000 T=14D THREADS=30 CHARGE=0 SINGLET eps=78.4 RELSCF=1
 Title: ASE calculation



     HERBERTS TEST WAS SATISFIED IN BFGS                      
     SCF FIELD WAS ACHIEVED                                   


                              PM7 CALCULATION
                                                       MOPAC v22.0.6 Linux
                                                       Sat Mar 23 22:13:16 2024




          FINAL HEAT OF FORMATION =       -108.68495 KCAL/MOL =    -454.73784 KJ/MOL
          VAN DER WAALS AREA      =        286.88 SQUARE ANGSTROMS



          DIELECTRIC ENERGY       =         -2.04184 EV
          COSMO AREA              =        286.88 SQUARE ANGSTROMS
          COSMO VOLUME            =        352.94 CUBIC ANGSTROMS

          GRADIENT NORM           =         13.30179          =       2.10320 PER ATOM
          IONIZATION POTENTIAL    =          8.563862 EV
          HOMO LUMO ENERGIES (EV) =         -8.564 -0.371
          NO. OF FILLED LEVELS    =         54
          MOLECULAR WEIGHT        =        288.7735         POINT GROUP:  C1  

          MOLECULAR DIMENSIONS (Angstroms)

            Atom       Atom       Distance
            H    31    H    15     9.09152
            H    27   Cl    10     7.46001
            H     7    O    18     6.15218


          SCF CALCULATIONS        =         63

          WALL-CLOCK TIME         =      4.961 SECONDS
          COMPUTATION TIME        =          7 MINUTES AND 35.330 SECONDS



       FINAL  POINT  AND  DERIVATIVES

   PARAMETER     ATOM    TYPE            VALUE        GRADIENT
      1          1  C    CARTESIAN X     2.089787     -1.633331  KCAL/ANGSTROM
      2          1  C    CARTESIAN Y     2.666045      4.989912  KCAL/ANGSTROM
      3          1  C    CARTESIAN Z    -1.252435     -2.760559  KCAL/ANGSTROM
      4          2  C    CARTESIAN X     2.276307     -0.284080  KCAL/ANGSTROM
      5          2  C    CARTESIAN Y     1.407665     -5.345059  KCAL/ANGSTROM
      6          2  C    CARTESIAN Z    -0.681366      1.497328  KCAL/ANGSTROM
      7          3  C    CARTESIAN X     1.403519      1.060898  KCAL/ANGSTROM
      8          3  C    CARTESIAN Y     0.346444      3.177138  KCAL/ANGSTROM
      9          3  C    CARTESIAN Z    -0.968322     -0.679305  KCAL/ANGSTROM
     10          4  C    CARTESIAN X     0.325286      0.275272  KCAL/ANGSTROM
     11          4  C    CARTESIAN Y     0.575605     -3.470441  KCAL/ANGSTROM
     12          4  C    CARTESIAN Z    -1.835688      1.516157  KCAL/ANGSTROM
     13          5  C    CARTESIAN X     0.183605      0.954910  KCAL/ANGSTROM
     14          5  C    CARTESIAN Y     1.834662      4.343213  KCAL/ANGSTROM
     15          5  C    CARTESIAN Z    -2.400277     -0.816287  KCAL/ANGSTROM
     16          6  C    CARTESIAN X     1.034161      0.267922  KCAL/ANGSTROM
     17          6  C    CARTESIAN Y     2.892074     -3.762102  KCAL/ANGSTROM
     18          6  C    CARTESIAN Z    -2.134932      1.346075  KCAL/ANGSTROM
     19          7  H    CARTESIAN X     2.778909     -0.440294  KCAL/ANGSTROM
     20          7  H    CARTESIAN Y     3.477178     -0.438927  KCAL/ANGSTROM
     21          7  H    CARTESIAN Z    -1.013577     -0.044677  KCAL/ANGSTROM
     22          8  H    CARTESIAN X     3.119364      0.093490  KCAL/ANGSTROM
     23          8  H    CARTESIAN Y     1.256874      0.183224  KCAL/ANGSTROM
     24          8  H    CARTESIAN Z    -0.005084     -0.240342  KCAL/ANGSTROM
     25          9  H    CARTESIAN X    -0.375838      0.561549  KCAL/ANGSTROM
     26          9  H    CARTESIAN Y    -0.227621      0.186720  KCAL/ANGSTROM
     27          9  H    CARTESIAN Z    -2.067558      0.142028  KCAL/ANGSTROM
     28         10 Cl    CARTESIAN X    -1.121475     -0.051502  KCAL/ANGSTROM
     29         10 Cl    CARTESIAN Y     2.074928     -0.352093  KCAL/ANGSTROM
     30         10 Cl    CARTESIAN Z    -3.494899      0.415402  KCAL/ANGSTROM
     31         11  H    CARTESIAN X     0.897891     -0.228389  KCAL/ANGSTROM
     32         11  H    CARTESIAN Y     3.873161      0.940692  KCAL/ANGSTROM
     33         11  H    CARTESIAN Z    -2.593270     -0.391572  KCAL/ANGSTROM
     34         13  C    CARTESIAN X     2.068348     -0.056045  KCAL/ANGSTROM
     35         13  C    CARTESIAN Y    -1.066865      0.001884  KCAL/ANGSTROM
     36         13  C    CARTESIAN Z     1.043953      0.569530  KCAL/ANGSTROM
     37         14  H    CARTESIAN X     2.591380      0.226539  KCAL/ANGSTROM
     38         14  H    CARTESIAN Y    -2.015103     -0.019860  KCAL/ANGSTROM
     39         14  H    CARTESIAN Z     1.246227     -0.110029  KCAL/ANGSTROM
     40         15  H    CARTESIAN X     1.220537      0.588834  KCAL/ANGSTROM
     41         15  H    CARTESIAN Y    -1.011267     -0.027939  KCAL/ANGSTROM
     42         15  H    CARTESIAN Z     1.742316     -0.109221  KCAL/ANGSTROM
     43         16  H    CARTESIAN X     2.764423      0.162083  KCAL/ANGSTROM
     44         16  H    CARTESIAN Y    -0.261236      0.044234  KCAL/ANGSTROM
     45         16  H    CARTESIAN Z     1.318321     -0.181565  KCAL/ANGSTROM
     46         17  N    CARTESIAN X     1.231243      2.359727  KCAL/ANGSTROM
     47         17  N    CARTESIAN Y    -2.095430     -1.988215  KCAL/ANGSTROM
     48         17  N    CARTESIAN Z    -1.009446      2.885526  KCAL/ANGSTROM
     49         18  O    CARTESIAN X     1.277257      0.193989  KCAL/ANGSTROM
     50         18  O    CARTESIAN Y    -3.209145      0.087430  KCAL/ANGSTROM
     51         18  O    CARTESIAN Z    -0.435327      0.523866  KCAL/ANGSTROM
     52         19  O    CARTESIAN X     0.906819     -1.010699  KCAL/ANGSTROM
     53         19  O    CARTESIAN Y    -2.082593      0.549216  KCAL/ANGSTROM
     54         19  O    CARTESIAN Z    -2.225029     -4.508273  KCAL/ANGSTROM
     55         20  N    CARTESIAN X     4.179933     -0.213796  KCAL/ANGSTROM
     56         20  N    CARTESIAN Y    -0.447148     -1.377644  KCAL/ANGSTROM
     57         20  N    CARTESIAN Z    -3.988448      0.532375  KCAL/ANGSTROM
     58         21  C    CARTESIAN X     4.028710     -0.083123  KCAL/ANGSTROM
     59         21  C    CARTESIAN Y    -1.695721      0.330268  KCAL/ANGSTROM
     60         21  C    CARTESIAN Z    -4.830213     -0.750295  KCAL/ANGSTROM
     61         22  C    CARTESIAN X     3.612917     -0.057847  KCAL/ANGSTROM
     62         22  C    CARTESIAN Y    -1.323448     -0.329878  KCAL/ANGSTROM
     63         22  C    CARTESIAN Z    -6.253055      0.418390  KCAL/ANGSTROM
     64         23  C    CARTESIAN X     2.303427      0.076508  KCAL/ANGSTROM
     65         23  C    CARTESIAN Y    -0.528235      0.111095  KCAL/ANGSTROM
     66         23  C    CARTESIAN Z    -6.246759     -0.039248  KCAL/ANGSTROM
     67         24  C    CARTESIAN X     2.436801     -0.150860  KCAL/ANGSTROM
     68         24  C    CARTESIAN Y     0.710625     -0.201980  KCAL/ANGSTROM
     69         24  C    CARTESIAN Z    -5.356284      0.527043  KCAL/ANGSTROM
     70         25  C    CARTESIAN X     2.868881     -0.421015  KCAL/ANGSTROM
     71         25  C    CARTESIAN Y     0.307690      0.331408  KCAL/ANGSTROM
     72         25  C    CARTESIAN Z    -3.948001     -0.433939  KCAL/ANGSTROM
     73         26  H    CARTESIAN Y    -1.251382     -0.005813  KCAL/ANGSTROM
     74         26  H    CARTESIAN Z    -1.266545     -0.195963  KCAL/ANGSTROM
     75         27  H    CARTESIAN X     5.000325      0.195669  KCAL/ANGSTROM
     76         27  H    CARTESIAN Y    -2.243208     -0.062230  KCAL/ANGSTROM
     77         27  H    CARTESIAN Z    -4.826434      0.061403  KCAL/ANGSTROM
     78         28  H    CARTESIAN X     3.273722     -0.218795  KCAL/ANGSTROM
     79         28  H    CARTESIAN Y    -2.365948     -0.045243  KCAL/ANGSTROM
     80         28  H    CARTESIAN Z    -4.355704      0.165946  KCAL/ANGSTROM
     81         29  H    CARTESIAN X     3.502809      0.009108  KCAL/ANGSTROM
     82         29  H    CARTESIAN Y    -2.244915      0.261453  KCAL/ANGSTROM
     83         29  H    CARTESIAN Z    -6.860605      0.161253  KCAL/ANGSTROM
     84         30  H    CARTESIAN X     4.413400      0.086417  KCAL/ANGSTROM
     85         30  H    CARTESIAN Y    -0.744490      0.010150  KCAL/ANGSTROM
     86         30  H    CARTESIAN Z    -6.756765     -0.117331  KCAL/ANGSTROM
     87         31  H    CARTESIAN X     2.035074     -0.057906  KCAL/ANGSTROM
     88         31  H    CARTESIAN Y    -0.228688      0.033117  KCAL/ANGSTROM
     89         31  H    CARTESIAN Z    -7.278763     -0.124856  KCAL/ANGSTROM
     90         32  H    CARTESIAN X     1.466222      0.007757  KCAL/ANGSTROM
     91         32  H    CARTESIAN Y    -1.165458     -0.014214  KCAL/ANGSTROM
     92         32  H    CARTESIAN Z    -5.897776     -0.027089  KCAL/ANGSTROM
     93         33  H    CARTESIAN X     1.474557      0.199386  KCAL/ANGSTROM
     94         33  H    CARTESIAN Y     1.259565     -0.157100  KCAL/ANGSTROM
     95         33  H    CARTESIAN Z    -5.309579     -0.021964  KCAL/ANGSTROM
     96         34  H    CARTESIAN X     3.155048      0.016228  KCAL/ANGSTROM
     97         34  H    CARTESIAN Y     1.430948      0.156568  KCAL/ANGSTROM
     98         34  H    CARTESIAN Z    -5.797827     -0.093829  KCAL/ANGSTROM
     99         35  H    CARTESIAN X     2.997475     -0.018486  KCAL/ANGSTROM
    100         35  H    CARTESIAN Y     1.206233      0.249220  KCAL/ANGSTROM
    101         35  H    CARTESIAN Z    -3.299453      0.148070  KCAL/ANGSTROM
    102         36  H    CARTESIAN X     2.092068      0.028057  KCAL/ANGSTROM
    103         36  H    CARTESIAN Y    -0.343433     -0.116226  KCAL/ANGSTROM
    104         36  H    CARTESIAN Z    -3.471477     -0.010029  KCAL/ANGSTROM
    105         37  H    CARTESIAN X     4.927700      0.199580  KCAL/ANGSTROM
    106         37  H    CARTESIAN Y     0.162254      0.494219  KCAL/ANGSTROM
    107         37  H    CARTESIAN Z    -4.386325     -0.339651  KCAL/ANGSTROM
    108         38  H    CARTESIAN X     4.595603     -0.255854  KCAL/ANGSTROM
    109         38  H    CARTESIAN Y    -0.514198      0.293442  KCAL/ANGSTROM
    110         38  H    CARTESIAN Z    -0.681477      0.132156  KCAL/ANGSTROM
    111         39  H    CARTESIAN X     4.476809      0.351006  KCAL/ANGSTROM
    112         39  H    CARTESIAN Y    -0.700266      0.391848  KCAL/ANGSTROM
    113         39  H    CARTESIAN Z    -3.000840      0.181627  KCAL/ANGSTROM




   ATOM   CHEMICAL          X               Y               Z
  NUMBER   SYMBOL      (ANGSTROMS)     (ANGSTROMS)     (ANGSTROMS)

     1       C          2.08978701  *   2.66604505  *  -1.25243542  *
     2       C          2.27630740  *   1.40766536  *  -0.68136599  *
     3       C          1.40351937  *   0.34644417  *  -0.96832225  *
     4       C          0.32528636  *   0.57560467  *  -1.83568770  *
     5       C          0.18360548  *   1.83466181  *  -2.40027669  *
     6       C          1.03416146  *   2.89207424  *  -2.13493239  *
     7       H          2.77890885  *   3.47717838  *  -1.01357665  *
     8       H          3.11936355  *   1.25687376  *  -0.00508407  *
     9       H         -0.37583777  *  -0.22762117  *  -2.06755757  *
    10      Cl         -1.12147455  *   2.07492770  *  -3.49489868  *
    11       H          0.89789105  *   3.87316087  *  -2.59326989  *
    12       C          1.61811800     -0.96265470     -0.37616200   
    13       C          2.06834843  *  -1.06686493  *   1.04395336  *
    14       H          2.59137967  *  -2.01510334  *   1.24622740  *
    15       H          1.22053703  *  -1.01126708  *   1.74231630  *
    16       H          2.76442309  *  -0.26123560  *   1.31832090  *
    17       N          1.23124268  *  -2.09543003  *  -1.00944563  *
    18       O          1.27725722  *  -3.20914506  *  -0.43532656  *
    19       O          0.90681867  *  -2.08259282  *  -2.22502871  *
    20       N          4.17993298  *  -0.44714830  *  -3.98844818  *
    21       C          4.02871016  *  -1.69572074  *  -4.83021305  *
    22       C          3.61291653  *  -1.32344835  *  -6.25305510  *
    23       C          2.30342722  *  -0.52823488  *  -6.24675919  *
    24       C          2.43680146  *   0.71062522  *  -5.35628439  *
    25       C          2.86888052  *   0.30769017  *  -3.94800147  *
    26       H          3.28431730     -1.25138159  *  -1.26654532  *
    27       H          5.00032498  *  -2.24320789  *  -4.82643447  *
    28       H          3.27372197  *  -2.36594784  *  -4.35570399  *
    29       H          3.50280896  *  -2.24491529  *  -6.86060537  *
    30       H          4.41339991  *  -0.74448999  *  -6.75676515  *
    31       H          2.03507358  *  -0.22868766  *  -7.27876314  *
    32       H          1.46622154  *  -1.16545810  *  -5.89777644  *
    33       H          1.47455691  *   1.25956498  *  -5.30957911  *
    34       H          3.15504841  *   1.43094766  *  -5.79782677  *
    35       H          2.99747458  *   1.20623309  *  -3.29945335  *
    36       H          2.09206787  *  -0.34343294  *  -3.47147696  *
    37       H          4.92769971  *   0.16225419  *  -4.38632511  *
    38       H          4.59560257  *  -0.51419810  *  -0.68147722  *
    39       H          4.47680928  *  -0.70026617  *  -3.00083964  *
    40       O          4.39968358     -1.21281445     -1.31476358   

                             CARTESIAN COORDINATES

   1    C        2.089787010     2.666045046    -1.252435424
   2    C        2.276307396     1.407665364    -0.681365986
   3    C        1.403519372     0.346444167    -0.968322255
   4    C        0.325286361     0.575604670    -1.835687704
   5    C        0.183605480     1.834661812    -2.400276689
   6    C        1.034161460     2.892074244    -2.134932386
   7    H        2.778908851     3.477178379    -1.013576649
   8    H        3.119363555     1.256873757    -0.005084069
   9    H       -0.375837773    -0.227621171    -2.067557574
  10   Cl       -1.121474554     2.074927699    -3.494898676
  11    H        0.897891049     3.873160874    -2.593269887
  12    C        1.618118000    -0.962654700    -0.376162000
  13    C        2.068348428    -1.066864935     1.043953356
  14    H        2.591379668    -2.015103336     1.246227399
  15    H        1.220537032    -1.011267082     1.742316304
  16    H        2.764423092    -0.261235603     1.318320904
  17    N        1.231242681    -2.095430033    -1.009445632
  18    O        1.277257224    -3.209145061    -0.435326563
  19    O        0.906818673    -2.082592818    -2.225028712
  20    N        4.179932975    -0.447148299    -3.988448177
  21    C        4.028710163    -1.695720739    -4.830213046
  22    C        3.612916535    -1.323448347    -6.253055104
  23    C        2.303427225    -0.528234884    -6.246759187
  24    C        2.436801463     0.710625223    -5.356284389
  25    C        2.868880518     0.307690170    -3.948001474
  26    H        3.284317300    -1.251381591    -1.266545321
  27    H        5.000324984    -2.243207888    -4.826434469
  28    H        3.273721968    -2.365947838    -4.355703988
  29    H        3.502808955    -2.244915292    -6.860605367
  30    H        4.413399912    -0.744489994    -6.756765155
  31    H        2.035073580    -0.228687655    -7.278763139
  32    H        1.466221537    -1.165458101    -5.897776438
  33    H        1.474556914     1.259564978    -5.309579109
  34    H        3.155048413     1.430947660    -5.797826775
  35    H        2.997474576     1.206233091    -3.299453354
  36    H        2.092067869    -0.343432939    -3.471476964
  37    H        4.927699706     0.162254189    -4.386325111
  38    H        4.595602572    -0.514198105    -0.681477221
  39    H        4.476809277    -0.700266170    -3.000839642
  40    O        4.399683580    -1.212814450    -1.314763580


           Empirical Formula: C13 H21 N2 O3 Cl  =    40 atoms



      MOLECULAR POINT GROUP   :   C1  


                  EIGENVALUES  
 -38.13099 -36.15979 -31.27062 -29.06109 -28.73116 -28.59392 -27.88976 -27.14521
 -26.80065 -25.78730 -24.94472 -24.12530 -23.23138 -21.84490 -21.82844 -20.98124
 -20.50109 -19.35140 -18.71652 -18.16138 -17.41967 -17.28027 -17.17503 -16.54013
 -16.42586 -16.33851 -15.73492 -15.60828 -15.04274 -14.88085 -14.83686 -14.65269
 -14.55227 -14.29830 -13.98294 -13.79946 -13.72440 -13.51956 -13.09202 -12.69102
 -12.55865 -12.42118 -12.35385 -12.07652 -11.86046 -11.79879 -11.72166 -11.45321
 -11.12099 -10.95486 -10.80709 -10.48411  -9.98274  -8.56386  -0.37118  -0.24024
   0.76838   0.95005   1.16912   1.76275   2.19629   2.88108   3.16844   3.42144
   3.48756   3.56255   3.77164   3.97889   4.19300   4.21999   4.48128   4.48498
   4.65853   4.72537   4.83762   4.88853   5.08573   5.17790   5.29001   5.39870
   5.41737   5.47030   5.53501   5.56761   5.59237   5.71712   5.77393   5.79686
   5.85769   6.00415   6.01836   6.10383   6.18072   6.22292   6.32149   6.43116
   6.97996  69.63013  69.67456  69.69780  69.92583  69.93357


              NET ATOMIC CHARGES AND DIPOLE CONTRIBUTIONS

  ATOM NO.   TYPE          CHARGE      No. of ELECS.   s-Pop       p-Pop       d-Pop       
    1          C          -0.102052        4.1021     1.08896     3.01309
    2          C          -0.222485        4.2225     1.08582     3.13667
    3          C           0.091641        3.9084     1.06119     2.84717
    4          C          -0.230309        4.2303     1.08459     3.14572
    5          C           0.048637        3.9514     1.09588     2.85548
    6          C          -0.223536        4.2235     1.08131     3.14223
    7          H           0.167849        0.8322     0.83215
    8          H           0.175040        0.8250     0.82496
    9          H           0.197549        0.8025     0.80245
   10         Cl          -0.131172        7.1312     1.98043     5.14408     0.00665
   11          H           0.181439        0.8186     0.81856
   12          C          -0.350251        4.3503     1.03865     3.31160
   13          C          -0.395434        4.3954     1.04282     3.35261
   14          H           0.161462        0.8385     0.83854
   15          H           0.156505        0.8435     0.84350
   16          H           0.155438        0.8446     0.84456
   17          N           0.690889        4.3091     1.42695     2.88216
   18          O          -0.657541        6.6575     1.94427     4.71327
   19          O          -0.660518        6.6605     1.94590     4.71461
   20          N          -0.186144        5.1861     1.51180     3.67434
   21          C          -0.159148        4.1591     1.08847     3.07068
   22          C          -0.298006        4.2980     1.06200     3.23601
   23          C          -0.265202        4.2652     1.05819     3.20702
   24          C          -0.294242        4.2942     1.06136     3.23288
   25          C          -0.178746        4.1787     1.09113     3.08762
   26          H           0.398509        0.6015     0.60149
   27          H           0.180446        0.8196     0.81955
   28          H           0.184805        0.8152     0.81519
   29          H           0.167542        0.8325     0.83246
   30          H           0.157309        0.8427     0.84269
   31          H           0.150460        0.8495     0.84954
   32          H           0.158147        0.8419     0.84185
   33          H           0.164594        0.8354     0.83541
   34          H           0.158951        0.8410     0.84105
   35          H           0.174210        0.8258     0.82579
   36          H           0.191975        0.8080     0.80803
   37          H           0.325090        0.6749     0.67491
   38          H           0.365968        0.6340     0.63403
   39          H           0.336495        0.6635     0.66351
   40          O          -0.786165        6.7862     1.85505     4.93112
 DIPOLE           X         Y         Z       TOTAL
 POINT-CHG.    13.086     9.371    -9.402    18.640
 HYBRID         0.099     0.081     0.063     0.143
 SUM           13.185     9.452    -9.339    18.719


          ATOMIC ORBITAL ELECTRON POPULATIONS

     Atom    s        px        py        pz      x^2-y^2     xz        z^2       yz        xy
    1  C   1.08896   1.00815   1.04162   0.96332
    2  C   1.08582   1.06943   0.99305   1.07419
    3  C   1.06119   0.94546   0.95656   0.94516
    4  C   1.08459   1.06333   1.03615   1.04624
    5  C   1.09588   0.91213   0.99493   0.94842
    6  C   1.08131   1.01327   1.07590   1.05306
    7  H   0.83215
    8  H   0.82496
    9  H   0.80245
   10 Cl   1.98043   1.51632   1.97618   1.65159   0.00117   0.00279   0.00059   0.00095   0.00116
   11  H   0.81856
   12  C   1.03865   1.37398   0.88798   1.04964
   13  C   1.04282   1.16420   1.18655   1.00186
   14  H   0.83854
   15  H   0.84350
   16  H   0.84456
   17  N   1.42695   0.95019   0.98286   0.94910
   18  O   1.94427   1.75003   1.23891   1.72433
   19  O   1.94590   1.69902   1.94113   1.07446
   20  N   1.51180   1.20385   1.20253   1.26796
   21  C   1.08847   1.18915   0.89817   0.98337
   22  C   1.06200   1.07648   1.14483   1.01471
   23  C   1.05819   1.05007   1.03497   1.12198
   24  C   1.06136   1.17538   1.07086   0.98664
   25  C   1.09113   0.90777   1.09666   1.08318
   26  H   0.60149
   27  H   0.81955
   28  H   0.81519
   29  H   0.83246
   30  H   0.84269
   31  H   0.84954
   32  H   0.84185
   33  H   0.83541
   34  H   0.84105
   35  H   0.82579
   36  H   0.80803
   37  H   0.67491
   38  H   0.63403
   39  H   0.66351
   40  O   1.85505   1.49154   1.70207   1.73751

          BONDING CONTRIBUTION OF EACH M.O.

  1.4562  1.4048  1.8863  1.8910  1.4057  1.0280  1.2811  1.2940  1.9614  1.6772
  1.1582  1.3856  1.9319  1.9700  1.8052  1.6681  1.9097  1.3995  1.9055  1.6891
  1.6525  1.7272  1.3998  1.9184  1.7058  1.6568  1.9023  1.7991  1.7939  1.8123
  1.9684  1.4869  1.8301  1.5444  1.9280  1.8023  1.7871  1.8700  1.9101  1.9117
  1.7472  0.5276  1.8594  1.1373  1.7551  1.6367  1.9288  0.2901  0.5429  0.5137
  0.4103  1.6635  1.5473  1.2863 -2.0983 -2.0573 -2.0155 -2.3779 -1.8774 -2.1240
 -2.0622 -1.8549 -1.8850 -1.8822 -1.9732 -1.9265 -1.9863 -1.9559 -1.9723 -1.9718
 -1.8697 -1.9526 -1.9959 -1.9970 -1.9740 -1.9401 -1.8942 -1.9048 -1.9189 -1.9402
 -1.9619 -1.9390 -1.9453 -1.9589 -1.9565 -1.9768 -1.9381 -1.9611 -1.9527 -1.9086
 -1.9005 -1.9184 -1.9051 -1.9412 -1.9282 -1.9324 -1.9077 -0.0037 -0.0099 -0.0065
 -0.0003 -0.0010





            (VALENCIES)   BOND ORDERS

     1  C     (3.968)     2  C 1.458     6  C 1.421     7  H 0.959     4  C 0.105    10 Cl 0.011

     2  C     (3.966)     1  C 1.458     3  C 1.386     8  H 0.953     5  C 0.106    12  C 0.013    17  N 0.012

     3  C     (3.988)     4  C 1.390     2  C 1.386    12  C 1.057     6  C 0.103    18  O 0.012    10 Cl 0.011

     4  C     (3.957)     5  C 1.429     3  C 1.390     9  H 0.944     1  C 0.105    10 Cl 0.025    12  C 0.014
                         17  N 0.011

     5  C     (3.958)     4  C 1.429     6  C 1.428    10 Cl 0.975     2  C 0.106

     6  C     (3.964)     5  C 1.428     1  C 1.421    11  H 0.953     3  C 0.103    10 Cl 0.024

     7  H     (0.972)     1  C 0.959

     8  H     (0.969)     2  C 0.953

     9  H     (0.961)     4  C 0.944

    10 Cl     (1.059)     5  C 0.975     4  C 0.025     6  C 0.024     1  C 0.011     3  C 0.011

    11  H     (0.967)     6  C 0.953

    12  C     (3.735)    17  N 1.277     3  C 1.057    13  C 0.997    18  O 0.143    19  O 0.142    26  H 0.052
                         40  O 0.016     4  C 0.014     2  C 0.013

    13  C     (3.919)    12  C 0.997    15  H 0.963    14  H 0.963    16  H 0.961    19  O 0.012

    14  H     (0.974)    13  C 0.963

    15  H     (0.976)    13  C 0.963

    16  H     (0.976)    13  C 0.961

    17  N     (3.805)    12  C 1.277    18  O 1.235    19  O 1.228     2  C 0.012     4  C 0.011

    18  O     (1.579)    17  N 1.235    19  O 0.169    12  C 0.143     3  C 0.012

    19  O     (1.577)    17  N 1.228    18  O 0.169    12  C 0.142    13  C 0.012

    20  N     (3.575)    25  C 0.921    21  C 0.916    37  H 0.869    39  H 0.823    40  O 0.018

    21  C     (3.873)    22  C 1.006    28  H 0.955    27  H 0.954    20  N 0.916    25  C 0.011

    22  C     (3.946)    21  C 1.006    23  C 1.002    30  H 0.963    29  H 0.956

    23  C     (3.951)    22  C 1.002    24  C 1.002    31  H 0.965    32  H 0.965

    24  C     (3.946)    25  C 1.006    23  C 1.002    34  H 0.963    33  H 0.957

    25  C     (3.876)    24  C 1.006    35  H 0.954    36  H 0.948    20  N 0.921    21  C 0.011

    26  H     (0.841)    40  O 0.771    12  C 0.052

    27  H     (0.967)    21  C 0.954

    28  H     (0.966)    21  C 0.955

    29  H     (0.972)    22  C 0.956

    30  H     (0.975)    22  C 0.963

    31  H     (0.977)    23  C 0.965

    32  H     (0.975)    23  C 0.965

    33  H     (0.973)    24  C 0.957

    34  H     (0.975)    24  C 0.963

    35  H     (0.970)    25  C 0.954

    36  H     (0.963)    25  C 0.948

    37  H     (0.894)    20  N 0.869

    38  H     (0.866)    40  O 0.860

    39  H     (0.887)    20  N 0.823    40  O 0.038

    40  O     (1.720)    38  H 0.860    26  H 0.771    39  H 0.038    20  N 0.018    12  C 0.016


 **********************
 *                    *
 * JOB ENDED NORMALLY *
 *                    *
 **********************



 TOTAL JOB TIME:             4.98 SECONDS

 == MOPAC DONE ==
