 *******************************************************************************
 **                                                                           **
 **                              MOPAC v22.0.6                                **
 **                                                                           **
 *******************************************************************************
 **          Digital Object Identifier (DOI): 10.5281/zenodo.6511958          **
 **    Visit the DOI location for information on how to cite this program.    **
 *******************************************************************************

                              PM7 CALCULATION RESULTS

 *******************************************************************************
 *  CALCULATION DONE:                                Sat Mar 23 22:13:34 2024  *
 *  PM7        - The PM7 Hamiltonian to be used
 *  SINGLET    - SPIN STATE DEFINED AS A SINGLET
 *
 *
 *
 *                 CHARGE ON SYSTEM = 0
 *
 *
 *
 *  EPS=78.4   - USE ANDREAS KLAMT'S COSMO IMPLICIT SOLVATION MODEL
 *  LET        - OVERRIDE SOME SAFETY CHECKS
 *  THREADS    - USE A MAXIMUM OF 30 THREADS
 *  T=         - A TIME OF 14.0 DAYS REQUESTED
 *  DUMP=N     - RESTART FILE WRITTEN EVERY 30.0 MINUTES REQUESTED
 *  RELSCF     - DEFAULT SCF CRITERION MULTIPLIED BY 1.0000
 *              (DEFAULT SCF CRITERION = 0.00010)
 *  ITRY=      - DO A MAXIMUM OF 15000 ITERATIONS FOR SCF
 *  AUX        - OUTPUT AUXILIARY INFORMATION
 *  ISOTOPE    - SAVE THE FORCE MATRIX FOR USE LATER
 *  BONDS      - FINAL BOND-ORDER MATRIX TO BE PRINTED
 *  LARGE      - EXPANDED OUTPUT TO BE PRINTED
 *  THERMO     - THERMODYNAMIC QUANTITIES TO BE CALCULATED
 *******************************************************************************
PM7 AUX LARGE THERMO(298,298) LET ISOTOPE BONDS DUMP=30M ITRY=15000 T=14D THREADS=30 CHARGE=0 SINGLET eps=78.4 RELSCF=1
 Title: ASE calculation

   ATOM   CHEMICAL          X               Y               Z
  NUMBER   SYMBOL      (ANGSTROMS)     (ANGSTROMS)     (ANGSTROMS)

     1       C          2.08978701  *   2.66604505  *  -1.25243542  *
     2       C          2.27630740  *   1.40766536  *  -0.68136599  *
     3       C          1.40351937  *   0.34644417  *  -0.96832226  *
     4       C          0.32528636  *   0.57560467  *  -1.83568770  *
     5       C          0.18360548  *   1.83466181  *  -2.40027669  *
     6       C          1.03416146  *   2.89207424  *  -2.13493239  *
     7       H          2.77890885  *   3.47717838  *  -1.01357665  *
     8       H          3.11936356  *   1.25687376  *  -0.00508407  *
     9       H         -0.37583777  *  -0.22762117  *  -2.06755757  *
    10      Cl         -1.12147455  *   2.07492770  *  -3.49489868  *
    11       H          0.89789105  *   3.87316087  *  -2.59326989  *
    12       C          1.61811800  *  -0.96265470  *  -0.37616200  *
    13       C          2.06834843  *  -1.06686493  *   1.04395336  *
    14       H          2.59137967  *  -2.01510334  *   1.24622740  *
    15       H          1.22053703  *  -1.01126708  *   1.74231630  *
    16       H          2.76442309  *  -0.26123560  *   1.31832090  *
    17       N          1.23124268  *  -2.09543003  *  -1.00944563  *
    18       O          1.27725722  *  -3.20914506  *  -0.43532656  *
    19       O          0.90681867  *  -2.08259282  *  -2.22502871  *
    20       N          4.17993297  *  -0.44714830  *  -3.98844818  *
    21       C          4.02871016  *  -1.69572074  *  -4.83021305  *
    22       C          3.61291654  *  -1.32344835  *  -6.25305510  *
    23       C          2.30342723  *  -0.52823488  *  -6.24675919  *
    24       C          2.43680146  *   0.71062522  *  -5.35628439  *
    25       C          2.86888052  *   0.30769017  *  -3.94800147  *
    26       D          3.28431730  *  -1.25138159  *  -1.26654532  *
    27       H          5.00032498  *  -2.24320789  *  -4.82643447  *
    28       H          3.27372197  *  -2.36594784  *  -4.35570399  *
    29       H          3.50280895  *  -2.24491529  *  -6.86060537  *
    30       H          4.41339991  *  -0.74448999  *  -6.75676516  *
    31       H          2.03507358  *  -0.22868765  *  -7.27876314  *
    32       H          1.46622154  *  -1.16545810  *  -5.89777644  *
    33       H          1.47455691  *   1.25956498  *  -5.30957911  *
    34       H          3.15504841  *   1.43094766  *  -5.79782677  *
    35       H          2.99747458  *   1.20623309  *  -3.29945335  *
    36       H          2.09206787  *  -0.34343294  *  -3.47147696  *
    37       H          4.92769971  *   0.16225419  *  -4.38632511  *
    38       H          4.59560257  *  -0.51419810  *  -0.68147722  *
    39       H          4.47680928  *  -0.70026617  *  -3.00083964  *
    40       O          4.39968358  *  -1.21281445  *  -1.31476358  *


                                Isotopes Used

              Atom:   26  H  Default mass  1.0079,  mass used:  2.0140 amu


          CARTESIAN COORDINATES 

    NO.       ATOM           X           Y           Z

     1         C          2.0898      2.6660     -1.2524
     2         C          2.2763      1.4077     -0.6814
     3         C          1.4035      0.3464     -0.9683
     4         C          0.3253      0.5756     -1.8357
     5         C          0.1836      1.8347     -2.4003
     6         C          1.0342      2.8921     -2.1349
     7         H          2.7789      3.4772     -1.0136
     8         H          3.1194      1.2569     -0.0051
     9         H         -0.3758     -0.2276     -2.0676
    10        Cl         -1.1215      2.0749     -3.4949
    11         H          0.8979      3.8732     -2.5933
    12         C          1.6181     -0.9627     -0.3762
    13         C          2.0683     -1.0669      1.0440
    14         H          2.5914     -2.0151      1.2462
    15         H          1.2205     -1.0113      1.7423
    16         H          2.7644     -0.2612      1.3183
    17         N          1.2312     -2.0954     -1.0094
    18         O          1.2773     -3.2091     -0.4353
    19         O          0.9068     -2.0826     -2.2250
    20         N          4.1799     -0.4471     -3.9884
    21         C          4.0287     -1.6957     -4.8302
    22         C          3.6129     -1.3234     -6.2531
    23         C          2.3034     -0.5282     -6.2468
    24         C          2.4368      0.7106     -5.3563
    25         C          2.8689      0.3077     -3.9480
    26         H          3.2843     -1.2514     -1.2665
    27         H          5.0003     -2.2432     -4.8264
    28         H          3.2737     -2.3659     -4.3557
    29         H          3.5028     -2.2449     -6.8606
    30         H          4.4134     -0.7445     -6.7568
    31         H          2.0351     -0.2287     -7.2788
    32         H          1.4662     -1.1655     -5.8978
    33         H          1.4746      1.2596     -5.3096
    34         H          3.1550      1.4309     -5.7978
    35         H          2.9975      1.2062     -3.2995
    36         H          2.0921     -0.3434     -3.4715
    37         H          4.9277      0.1623     -4.3863
    38         H          4.5956     -0.5142     -0.6815
    39         H          4.4768     -0.7003     -3.0008
    40         O          4.3997     -1.2128     -1.3148

 General Reference for PM7:
 "Optimization of Parameters for Semiempirical Methods VI: More Modifications to the 
 NDDO Approximations and Re-optimization of Parameters", J. J. P. Stewart, J. Mol. Mod., 1:32, 19 (2013)
 https://link.springer.com/article/10.1007/s00894-012-1667-x

           Empirical Formula: C13 H21 N2 O3 Cl  =    40 atoms



      MOLECULAR POINT GROUP   :   C1  


 SINGLET STATE CALCULATION


      RHF CALCULATION, NO. OF DOUBLY OCCUPIED LEVELS = 54

  SCF CRITERION =    0.1000E-03


          HEAT OF FORMATION =    -108.684794 KCALS/MOLE


          CARTESIAN COORDINATE DERIVATIVES

   NUMBER  ATOM         X            Y            Z

     1       C     -5.138522     0.490730    -0.178801
     2       C      4.709570     0.914326     0.067578
     3       C     -2.950301    -0.849205     0.204044
     4       C      4.551394    -0.100837    -0.124402
     5       C     -4.767487    -2.278198     0.115490
     6       C      3.975583     1.295829     0.114217
     7       H      0.290454     0.494020    -0.103262
     8       H     -0.231226    -0.014433     0.193267
     9       H     -0.078465    -0.639048     0.175169
    10      Cl      0.494725    -0.001654    -0.170782
    11       H     -1.028500     0.015979    -0.085029
    12       C     -0.281193    -4.973927     4.724182
    13       C      0.337388    -0.206639    -0.569252
    14       H      0.021410    -0.107950     0.237414
    15       H      0.042187    -0.355916     0.474914
    16       H     -0.113483    -0.117280     0.244388
    17       N      3.475994    -2.342103    -0.329548
    18       O     -0.208580    -0.708197    -0.452626
    19       O     -2.202382     2.929020     3.065039
    20       N      1.503888     0.364781    -0.132153
    21       C     -0.743913     0.467242     0.299280
    22       C      0.510460    -0.077755    -0.277711
    23       C     -0.086750    -0.028770     0.040467
    24       C      0.342419    -0.047230    -0.535251
    25       C     -0.456576     0.306462     0.079485
    26       H    -10.051354    60.195978   -42.854015
    27       H      0.091941    -0.243181     0.137907
    28       H      0.050051     0.124255    -0.253918
    29       H     -0.168738    -0.205807    -0.232504
    30       H     -0.051889    -0.018621     0.165906
    31       H     -0.057080     0.105653     0.052952
    32       H     -0.004242     0.010403     0.029726
    33       H      0.166619    -0.056695     0.123046
    34       H     -0.185705    -0.038976     0.068218
    35       H     -0.187305    -0.158574    -0.239542
    36       H      0.097527     0.023953     0.073208
    37       H     -0.524974    -0.124384     0.326759
    38       H     -0.166660    -0.062394    -0.382184
    39       H     -0.198515    -0.503632    -0.024892
    40       O      9.222405   -53.476606    35.933674

 DIPOLE           X         Y         Z       TOTAL
 POINT-CHG.   -10.561    -9.172    12.325    18.643
 HYBRID        -0.034    -0.139    -0.012     0.144
 SUM          -10.595    -9.311    12.313    18.723


          GRADIENT NORM = 100.09886



 ** GRADIENT IS VERY LARGE, BUT SINCE "LET" IS USED, CALCULATION WILL CONTINUE


                              **** WARNING ****

           GRADIENT IS VERY LARGE FOR A THERMO CALCULATION
           RESULTS ARE LIKELY TO BE INACCURATE IF THERE ARE
           ANY LOW-LYING VIBRATIONS (LESS THAN ABOUT 400CM-1)
           GRADIENT NORM SHOULD BE LESS THAN ABOUT 1.3 FOR THERMO
           TO GIVE ACCURATE RESULTS


          TIME FOR SCF CALCULATION =    0.14

          TIME FOR DERIVATIVES     =    0.05

          MOLECULAR WEIGHT =  289.78



          ROTATIONAL CONSTANTS IN CM(-1)

          A =    0.01059193   B =    0.01016661   C =    0.00698776



           PRINCIPAL MOMENTS OF INERTIA IN UNITS OF 10**(-40)*GRAM-CM**2

          A =     2642.8369   B =     2753.4016   C =     4005.9718


          ORIENTATION OF MOLECULE IN FORCE CALCULATION

    NO.       ATOM         X         Y         Z

     1          C      -1.8485   -1.7950   -1.5690
     2          C      -0.4541   -1.7950   -1.5690
     3          C       0.2693   -0.5921   -1.5690
     4          C      -0.4369    0.6197   -1.5812
     5          C      -1.8233    0.5802   -1.5605
     6          C      -2.5551   -0.5930   -1.5556
     7          H      -2.3905   -2.7417   -1.5714
     8          H       0.0717   -2.7512   -1.5655
     9          H       0.0992    1.5699   -1.5932
    10         Cl      -2.6630    2.0812   -1.5308
    11          H      -3.6464   -0.5940   -1.5402
    12          C       1.7219   -0.6078   -1.5557
    13          C       2.4578   -1.6238   -2.3659
    14          H       3.4663   -1.8215   -1.9691
    15          H       2.5802   -1.2979   -3.4091
    16          H       1.9362   -2.5914   -2.3902
    17          N       2.4331    0.3957   -0.9889
    18          O       3.6794    0.4583   -1.1106
    19          O       1.8803    1.2422   -0.2400
    20          N       0.1200   -1.0962    2.5762
    21          C       0.8818   -0.1423    3.4707
    22          C      -0.0925    0.7563    4.2318
    23          C      -0.9827    1.5387    3.2610
    24          C      -1.7181    0.5789    2.3211
    25          C      -0.7200   -0.3154    1.5888
    26          H       1.8407   -1.4210    0.1697
    27          H       1.5074   -0.7414    4.1732
    28          H       1.5800    0.4637    2.8465
    29          H       0.4756    1.4524    4.8822
    30          H      -0.7142    0.1588    4.9290
    31          H      -1.7115    2.1537    3.8243
    32          H      -0.3767    2.2607    2.6776
    33          H      -2.3231    1.1455    1.5846
    34          H      -2.4529   -0.0305    2.8854
    35          H      -1.2481   -1.0385    0.9235
    36          H      -0.0411    0.3008    0.9454
    37          H      -0.4929   -1.7129    3.1532
    38          H       1.5904   -3.0119    0.2781
    39          H       0.7926   -1.7284    2.0513
    40          O       1.9353   -2.3097    0.8398


    FIRST DERIVATIVES WILL BE USED IN THE CALCULATION OF SECOND DERIVATIVES

          ESTIMATED TIME TO COMPLETE CALCULATION =       46.88 SECONDS

    FOR POINT-GROUP C1   THERE ARE   1 UNIQUE SYMMETRY FUNCTIONS.

 STEP:   1 TIME =     0.12 SECS, INTEGRAL =      0.12 TIME LEFT:1209599.68
 STEP:   2 TIME =     0.13 SECS, INTEGRAL =      0.26 TIME LEFT:1209599.55
 STEP:   3 TIME =     0.13 SECS, INTEGRAL =      0.39 TIME LEFT:1209599.41
 STEP:   4 TIME =     0.13 SECS, INTEGRAL =      0.52 TIME LEFT:1209599.28
 STEP:   5 TIME =     0.14 SECS, INTEGRAL =      0.66 TIME LEFT:1209599.14
 STEP:   6 TIME =     0.13 SECS, INTEGRAL =      0.80 TIME LEFT:1209599.01
 STEP:   7 TIME =     0.14 SECS, INTEGRAL =      0.94 TIME LEFT:1209598.87
 STEP:   8 TIME =     0.13 SECS, INTEGRAL =      1.07 TIME LEFT:1209598.73
 STEP:   9 TIME =     0.13 SECS, INTEGRAL =      1.20 TIME LEFT:1209598.60
 STEP:  10 TIME =     0.13 SECS, INTEGRAL =      1.34 TIME LEFT:1209598.47
 STEP:  11 TIME =     0.13 SECS, INTEGRAL =      1.47 TIME LEFT:1209598.34
 STEP:  12 TIME =     0.13 SECS, INTEGRAL =      1.60 TIME LEFT:1209598.20
 STEP:  13 TIME =     0.13 SECS, INTEGRAL =      1.73 TIME LEFT:1209598.07
 STEP:  14 TIME =     0.13 SECS, INTEGRAL =      1.87 TIME LEFT:1209597.94
 STEP:  15 TIME =     0.14 SECS, INTEGRAL =      2.01 TIME LEFT:1209597.80
 STEP:  16 TIME =     0.16 SECS, INTEGRAL =      2.17 TIME LEFT:1209597.63
 STEP:  17 TIME =     0.13 SECS, INTEGRAL =      2.30 TIME LEFT:1209597.50
 STEP:  18 TIME =     0.13 SECS, INTEGRAL =      2.44 TIME LEFT:1209597.37
 STEP:  19 TIME =     0.18 SECS, INTEGRAL =      2.62 TIME LEFT:1209597.19
 STEP:  20 TIME =     0.18 SECS, INTEGRAL =      2.80 TIME LEFT:1209597.01
 STEP:  21 TIME =     0.15 SECS, INTEGRAL =      2.95 TIME LEFT:1209596.86
 STEP:  22 TIME =     0.14 SECS, INTEGRAL =      3.09 TIME LEFT:1209596.72
