
                                 *****************
                                 * O   R   C   A *
                                 *****************

                                            #,                                       
                                            ###                                      
                                            ####                                     
                                            #####                                    
                                            ######                                   
                                           ########,                                 
                                     ,,################,,,,,                         
                               ,,#################################,,                 
                          ,,##########################################,,             
                       ,#########################################, ''#####,          
                    ,#############################################,,   '####,        
                  ,##################################################,,,,####,       
                ,###########''''           ''''###############################       
              ,#####''   ,,,,##########,,,,          '''####'''          '####       
            ,##' ,,,,###########################,,,                        '##       
           ' ,,###''''                  '''############,,,                           
         ,,##''                                '''############,,,,        ,,,,,,###''
      ,#''                                            '''#######################'''  
     '                                                          ''''####''''         
             ,#######,   #######,   ,#######,      ##                                
            ,#'     '#,  ##    ##  ,#'     '#,    #''#        ######   ,####,        
            ##       ##  ##   ,#'  ##            #'  '#       #        #'  '#        
            ##       ##  #######   ##           ,######,      #####,   #    #        
            '#,     ,#'  ##    ##  '#,     ,#' ,#      #,         ##   #,  ,#        
             '#######'   ##     ##  '#######'  #'      '#     #####' # '####'        



                  #######################################################
                  #                        -***-                        #
                  #          Department of theory and spectroscopy      #
                  #    Directorship and core code : Frank Neese         #
                  #        Max Planck Institute fuer Kohlenforschung    #
                  #                Kaiser Wilhelm Platz 1               #
                  #                 D-45470 Muelheim/Ruhr               #
                  #                      Germany                        #
                  #                                                     #
                  #                  All rights reserved                #
                  #                        -***-                        #
                  #######################################################


                         Program Version 5.0.4 -  RELEASE  -


 With contributions from (in alphabetic order):
   Daniel Aravena         : Magnetic Suceptibility
   Michael Atanasov       : Ab Initio Ligand Field Theory (pilot matlab implementation)
   Alexander A. Auer      : GIAO ZORA, VPT2 properties, NMR spectrum
   Ute Becker             : Parallelization
   Giovanni Bistoni       : ED, misc. LED, open-shell LED, HFLD
   Martin Brehm           : Molecular dynamics
   Dmytro Bykov           : SCF Hessian
   Vijay G. Chilkuri      : MRCI spin determinant printing, contributions to CSF-ICE
   Dipayan Datta          : RHF DLPNO-CCSD density
   Achintya Kumar Dutta   : EOM-CC, STEOM-CC
   Dmitry Ganyushin       : Spin-Orbit,Spin-Spin,Magnetic field MRCI
   Miquel Garcia          : C-PCM and meta-GGA Hessian, CC/C-PCM, Gaussian charge scheme
   Yang Guo               : DLPNO-NEVPT2, F12-NEVPT2, CIM, IAO-localization
   Andreas Hansen         : Spin unrestricted coupled pair/coupled cluster methods
   Benjamin Helmich-Paris : MC-RPA, TRAH-SCF, COSX integrals
   Lee Huntington         : MR-EOM, pCC
   Robert Izsak           : Overlap fitted RIJCOSX, COSX-SCS-MP3, EOM
   Marcus Kettner         : VPT2
   Christian Kollmar      : KDIIS, OOCD, Brueckner-CCSD(T), CCSD density, CASPT2, CASPT2-K
   Simone Kossmann        : Meta GGA functionals, TD-DFT gradient, OOMP2, MP2 Hessian
   Martin Krupicka        : Initial AUTO-CI
   Lucas Lang             : DCDCAS
   Marvin Lechner         : AUTO-CI (C++ implementation), FIC-MRCC
   Dagmar Lenk            : GEPOL surface, SMD
   Dimitrios Liakos       : Extrapolation schemes; Compound Job, initial MDCI parallelization
   Dimitrios Manganas     : Further ROCIS development; embedding schemes
   Dimitrios Pantazis     : SARC Basis sets
   Anastasios Papadopoulos: AUTO-CI, single reference methods and gradients
   Taras Petrenko         : DFT Hessian,TD-DFT gradient, ASA, ECA, R-Raman, ABS, FL, XAS/XES, NRVS
   Peter Pinski           : DLPNO-MP2, DLPNO-MP2 Gradient
   Christoph Reimann      : Effective Core Potentials
   Marius Retegan         : Local ZFS, SOC
   Christoph Riplinger    : Optimizer, TS searches, QM/MM, DLPNO-CCSD(T), (RO)-DLPNO pert. Triples
   Tobias Risthaus        : Range-separated hybrids, TD-DFT gradient, RPA, STAB
   Michael Roemelt        : Original ROCIS implementation
   Masaaki Saitow         : Open-shell DLPNO-CCSD energy and density
   Barbara Sandhoefer     : DKH picture change effects
   Avijit Sen             : IP-ROCIS
   Kantharuban Sivalingam : CASSCF convergence, NEVPT2, FIC-MRCI
   Bernardo de Souza      : ESD, SOC TD-DFT
   Georgi Stoychev        : AutoAux, RI-MP2 NMR, DLPNO-MP2 response
   Willem Van den Heuvel  : Paramagnetic NMR
   Boris Wezisla          : Elementary symmetry handling
   Frank Wennmohs         : Technical directorship


 We gratefully acknowledge several colleagues who have allowed us to
 interface, adapt or use parts of their codes:
   Stefan Grimme, W. Hujo, H. Kruse, P. Pracht,  : VdW corrections, initial TS optimization,
                  C. Bannwarth, S. Ehlert          DFT functionals, gCP, sTDA/sTD-DF
   Ed Valeev, F. Pavosevic, A. Kumar             : LibInt (2-el integral package), F12 methods
   Garnet Chan, S. Sharma, J. Yang, R. Olivares  : DMRG
   Ulf Ekstrom                                   : XCFun DFT Library
   Mihaly Kallay                                 : mrcc  (arbitrary order and MRCC methods)
   Jiri Pittner, Ondrej Demel                    : Mk-CCSD
   Frank Weinhold                                : gennbo (NPA and NBO analysis)
   Christopher J. Cramer and Donald G. Truhlar   : smd solvation model
   Lars Goerigk                                  : TD-DFT with DH, B97 family of functionals
   V. Asgeirsson, H. Jonsson                     : NEB implementation
   FAccTs GmbH                                   : IRC, NEB, NEB-TS, DLPNO-Multilevel, CI-OPT
                                                   MM, QMMM, 2- and 3-layer-ONIOM, Crystal-QMMM,
                                                   LR-CPCM, SF, NACMEs, symmetry and pop. for TD-DFT,
                                                   nearIR, NL-DFT gradient (VV10), updates on ESD,
                                                   ML-optimized integration grids
   S Lehtola, MJT Oliveira, MAL Marques          : LibXC Library
   Liviu Ungur et al                             : ANISO software


 Your calculation uses the libint2 library for the computation of 2-el integrals
 For citations please refer to: http://libint.valeyev.net

 Your ORCA version has been built with support for libXC version: 5.1.0
 For citations please refer to: https://tddft.org/programs/libxc/

 This ORCA versions uses:
   CBLAS   interface :  Fast vector & matrix operations
   LAPACKE interface :  Fast linear algebra routines
   SCALAPACK package :  Parallel linear algebra routines
   Shared memory     :  Shared parallel matrices
   BLAS/LAPACK       :  OpenBLAS 0.3.15  USE64BITINT DYNAMIC_ARCH NO_AFFINITY Prescott SINGLE_THREADED
        Core in use  :  Prescott
   Copyright (c) 2011-2014, The OpenBLAS Project


Your calculation utilizes the atom-pairwise dispersion correction
with the Becke-Johnson damping scheme (D3BJ)
Cite in your paper:
S.Grimme, S.Ehrlich, L.Goerigk, J Comput Chem, (2011), 32, 1456–1465 
S.Grimme, J.Antony, S.Ehrlich and H.Krieg, J.Chem.Phys., 132, (2010), 154104 
   

================================================================================

----- Orbital basis set information -----
Your calculation utilizes the basis: def2-TZVP
   F. Weigend and R. Ahlrichs, Phys. Chem. Chem. Phys. 7, 3297 (2005).

----- AuxJ basis set information -----
Your calculation utilizes the auxiliary basis: def2/J
   F. Weigend, Phys. Chem. Chem. Phys. 8, 1057 (2006).

================================================================================
                                        WARNINGS
                       Please study these warnings very carefully!
================================================================================

WARNING: Gradients needed for Numerical Frequencies
  ===> : Setting RunTyp to EnGrad

INFO   : the flag for use of the SHARK integral package has been found!

================================================================================
                                       INPUT FILE
================================================================================
NAME = /home/rudenko/mop_saddle_orca_4_serv/for_orca/c6h5chno2ch3_piperidine/orca/start_freq_D/start_f_D.inp
|  1> !  NUMFREQ B3LYP def2-TZVP CPCM D3 
|  2> %pal nprocs 102 end
|  3> %cpcm epsilon 78.4 end 
|  4> *xyz 0 1 
|  5> C   1.97278847132873 3.14175462655493 1.96080427182245
|  6> C   2.21995752294298 1.84585538849494 1.52431474706321
|  7> C   1.53364154510296 0.76619619947279 2.08183417265771
|  8> C   0.59152174817605 1.00144271553625 3.08269943581718
|  9> C   0.3437075415987 2.2979341594359 3.51945019252842
| 10> C   1.03148384794749 3.37063667923028 2.95941429707152
| 11> H   2.52033159284424 3.9688459607183 1.52780047515187
| 12> H   2.95701288450119 1.66643774426048 0.75119154818221
| 13> H   0.05280706166881 0.17774940761637 3.52968026667994
| 14> H   0.84179817988249 4.37842445296515 3.30645052815572
| 15> C   1.83163244431157 -0.62583120836447 1.57033237967275
| 16> C   1.58949684062273 -1.7728527140015 2.53348853088561
| 17> H   1.85990645019438 -2.71814573760412 2.06242867823386
| 18> H   0.551454217962 -1.82345174289278 2.85404054170386
| 19> H   2.22211759295257 -1.63029112441361 3.40854012226734
| 20> N   0.96596490697778 -0.84513295743685 0.3170279757607
| 21> O   1.51888552816682 -0.78420640040723 -0.76932304021566
| 22> O   -0.22610690247135 -1.04918839073036 0.46882049112215
| 23> N   3.7831801342307 1.95511810485874 4.87384284124396
| 24> C   3.98456555465267 0.50804911298395 4.77694180087353
| 25> C   5.29912553833234 0.11644468410638 5.4442659393656
| 26> C   6.46823036335582 0.88496055386296 4.82255162086109
| 27> C   6.19209469179225 2.39059658939608 4.82270261128118
| 28> C   4.84019974515922 2.69430453693285 4.18340977291371
| 29> H   4.61753013165332 3.76157032511883 4.24382783759933
| 30> H   4.88187819675298 2.43227518422387 3.11227697619358
| 31> H   6.97965804426835 2.92470335176229 4.28476855532637
| 32> H   6.18860252550386 2.76301726290635 5.85216194025457
| 33> H   5.45318698379508 -0.96140805189043 5.34890860788359
| 34> H   5.23774810004979 0.34555991775822 6.51317989072351
| 35> H   4.01339734926404 0.17919348426777 3.72619416282635
| 36> H   2.84614974297623 -0.66087570731623 1.18174283694532 M = 2
| 37> H   2.8829246897749 2.19733902541888 4.47784044266294
| 38> H   3.14165225267681 0.00525194068173 5.25377990297623
| 39> H   7.39701785463324 0.66612865136767 5.35532457577052
| 40> H   6.60944459324662 0.54880054302496 3.78951520298085
| 41> H   -0.38372170683162 2.46949522906763 4.30260836994686
| 42> H   5.17522905069714 0.55997286915537 1.54915569577409
| 43> H   5.62868498884502 -0.85733572327867 1.87512129194391
| 44> O   5.28664948046037 -0.31455919284387 1.15349264909138
| 45> *
| 46> 
| 47>                          ****END OF INPUT****
================================================================================

                     *******************************
                     * Energy+Gradient Calculation *
                     *******************************

---------------------------------
CARTESIAN COORDINATES (ANGSTROEM)
---------------------------------
  C      1.972788    3.141755    1.960804
  C      2.219958    1.845855    1.524315
  C      1.533642    0.766196    2.081834
  C      0.591522    1.001443    3.082699
  C      0.343708    2.297934    3.519450
  C      1.031484    3.370637    2.959414
  H      2.520332    3.968846    1.527800
  H      2.957013    1.666438    0.751192
  H      0.052807    0.177749    3.529680
  H      0.841798    4.378424    3.306451
  C      1.831632   -0.625831    1.570332
  C      1.589497   -1.772853    2.533489
  H      1.859906   -2.718146    2.062429
  H      0.551454   -1.823452    2.854041
  H      2.222118   -1.630291    3.408540
  N      0.965965   -0.845133    0.317028
  O      1.518886   -0.784206   -0.769323
  O     -0.226107   -1.049188    0.468820
  N      3.783180    1.955118    4.873843
  C      3.984566    0.508049    4.776942
  C      5.299126    0.116445    5.444266
  C      6.468230    0.884961    4.822552
  C      6.192095    2.390597    4.822703
  C      4.840200    2.694305    4.183410
  H      4.617530    3.761570    4.243828
  H      4.881878    2.432275    3.112277
  H      6.979658    2.924703    4.284769
  H      6.188603    2.763017    5.852162
  H      5.453187   -0.961408    5.348909
  H      5.237748    0.345560    6.513180
  H      4.013397    0.179193    3.726194
  H      2.846150   -0.660876    1.181743
  H      2.882925    2.197339    4.477840
  H      3.141652    0.005252    5.253780
  H      7.397018    0.666129    5.355325
  H      6.609445    0.548801    3.789515
  H     -0.383722    2.469495    4.302608
  H      5.175229    0.559973    1.549156
  H      5.628685   -0.857336    1.875121
  O      5.286649   -0.314559    1.153493

----------------------------
CARTESIAN COORDINATES (A.U.)
----------------------------
  NO LB      ZA    FRAG     MASS         X           Y           Z
   0 C     6.0000    0    12.011    3.728030    5.937056    3.705383
   1 C     6.0000    0    12.011    4.195112    3.488161    2.880537
   2 C     6.0000    0    12.011    2.898163    1.447901    3.934096
   3 C     6.0000    0    12.011    1.117814    1.892452    5.825458
   4 C     6.0000    0    12.011    0.649513    4.342466    6.650797
   5 C     6.0000    0    12.011    1.949222    6.369580    5.592483
   6 H     1.0000    0     1.008    4.762736    7.500032    2.887124
   7 H     1.0000    0     1.008    5.587945    3.149111    1.419546
   8 H     1.0000    0     1.008    0.099791    0.335898    6.670129
   9 H     1.0000    0     1.008    1.590768    8.274023    6.248286
  10 C     6.0000    0    12.011    3.461284   -1.182650    2.967498
  11 C     6.0000    0    12.011    3.003714   -3.350206    4.787599
  12 H     1.0000    0     1.008    3.514714   -5.136551    3.897425
  13 H     1.0000    0     1.008    1.042097   -3.445824    5.393355
  14 H     1.0000    0     1.008    4.199194   -3.080804    6.441207
  15 N     7.0000    0    14.007    1.825409   -1.597070    0.599096
  16 O     8.0000    0    15.999    2.870278   -1.481935   -1.453810
  17 O     8.0000    0    15.999   -0.427280   -1.982679    0.885942
  18 N     7.0000    0    14.007    7.149174    3.694638    9.210228
  19 C     6.0000    0    12.011    7.529738    0.960074    9.027112
  20 C     6.0000    0    12.011   10.013896    0.220049   10.288172
  21 C     6.0000    0    12.011   12.223184    1.672333    9.113302
  22 C     6.0000    0    12.011   11.701363    4.517573    9.113587
  23 C     6.0000    0    12.011    9.146652    5.091498    7.905499
  24 H     1.0000    0     1.008    8.725867    7.108338    8.019672
  25 H     1.0000    0     1.008    9.225413    4.596334    5.881351
  26 H     1.0000    0     1.008   13.189642    5.526888    8.097039
  27 H     1.0000    0     1.008   11.694764    5.221346   11.058983
  28 H     1.0000    0     1.008   10.305030   -1.816798   10.107972
  29 H     1.0000    0     1.008    9.897909    0.653014   12.308126
  30 H     1.0000    0     1.008    7.584222    0.338627    7.041486
  31 H     1.0000    0     2.000    5.378444   -1.248874    2.233170
  32 H     1.0000    0     1.008    5.447938    4.152369    8.461892
  33 H     1.0000    0     1.008    5.936862    0.009925    9.928205
  34 H     1.0000    0     1.008   13.978338    1.258801   10.120097
  35 H     1.0000    0     1.008   12.490040    1.037083    7.161146
  36 H     1.0000    0     1.008   -0.725129    4.666670    8.130751
  37 H     1.0000    0     1.008    9.779766    1.058195    2.927480
  38 H     1.0000    0     1.008   10.636673   -1.620130    3.543466
  39 O     8.0000    0    15.999    9.990320   -0.594431    2.179785

--------------------------------
INTERNAL COORDINATES (ANGSTROEM)
--------------------------------
 C      0   0   0     0.000000000000     0.00000000     0.00000000
 C      1   0   0     1.389593638624     0.00000000     0.00000000
 C      2   1   0     1.395536275341   120.56549248     0.00000000
 C      3   2   1     1.394511351722   119.24008469     0.15382016
 C      4   3   2     1.390342824117   120.21076363   359.86281563
 C      1   2   3     1.391281197517   119.94849450   359.82751690
 H      1   2   3     1.082301174765   119.80269204   179.29960373
 H      2   1   3     1.083125467207   119.98208974   180.54700870
 H      4   3   2     1.080960703323   120.32639088   180.26011285
 H      6   1   2     1.082613040400   120.11694277   179.56713596
 C      3   2   1     1.512670805036   118.68395811   179.72812807
 C     11   3   2     1.517220404749   116.71853573   153.48320088
 H     12  11   3     1.090228252340   109.97605151   181.28709362
 H     12  11   3     1.087587394109   111.99943401    60.06384352
 H     12  11   3     1.089150178205   108.56473535   299.80293229
 N     11   3   2     1.538910481869   107.20031021   275.50539445
 O     16  11   3     1.220488340215   117.57758758   104.17738490
 O     16  11   3     1.218899005849   118.20158579   285.18087631
 N      1   2   3     3.629244813273    81.86403759    72.49909045
 C     19   1   2     1.464224902953   109.79302419   350.61208465
 C     20  19   1     1.525366672385   110.07788658   147.91254072
 C     21  20  19     1.530996873868   110.58302478   303.46702089
 C     22  21  20     1.530748445501   110.85130326    52.45900262
 C     19   1   2     1.463005420733    79.42112920    99.96853938
 H     24  19   1     1.091919576687   108.68687668    70.02681062
 H     24  19   1     1.103504392025   111.43212968   312.27649019
 H     23  22  21     1.093114411361   110.52261950   185.94304689
 H     23  22  21     1.094758358403   109.58911651    67.78484012
 H     21  20  19     1.092975054675   109.66275611   181.22983776
 H     21  20  19     1.094914615680   108.96948119    63.90352193
 H     20  19   1     1.101384535837   111.21215077    27.56641694
 H     11   3   2     1.086956898370   109.53756978    26.88404774
 H     19   1   2     1.012891277142    33.34652608   255.08329572
 H     20  19   1     1.091183947252   108.67614489   269.50873501
 H     22  21  20     1.092877224114   110.51745844   175.32500899
 H     22  21  20     1.095494980489   109.10700659   292.44631914
 H      5   4   3     1.082554036962   119.65681264   180.49834222
 H     26  24  19     2.456607176539   143.42821841   301.76460754
 H     38  26  24     1.523364534153   127.47983938   349.04589442
 O     39  38  26     0.965578867401    37.96845400   172.92679823

---------------------------
INTERNAL COORDINATES (A.U.)
---------------------------
 C      0   0   0     0.000000000000     0.00000000     0.00000000
 C      1   0   0     2.625951414439     0.00000000     0.00000000
 C      2   1   0     2.637181370348   120.56549248     0.00000000
 C      3   2   1     2.635244545398   119.24008469     0.15382016
 C      4   3   2     2.627367169844   120.21076363   359.86281563
 C      1   2   3     2.629140438581   119.94849450   359.82751690
 H      1   2   3     2.045252814728   119.80269204   179.29960373
 H      2   1   3     2.046810501697   119.98208974   180.54700870
 H      4   3   2     2.042719690812   120.32639088   180.26011285
 H      6   1   2     2.045842155368   120.11694277   179.56713596
 C      3   2   1     2.858533552296   118.68395811   179.72812807
 C     11   3   2     2.867131049773   116.71853573   153.48320088
 H     12  11   3     2.060232820387   109.97605151   181.28709362
 H     12  11   3     2.055242321571   111.99943401    60.06384352
 H     12  11   3     2.058195555519   108.56473535   299.80293229
 N     11   3   2     2.908119355352   107.20031021   275.50539445
 O     16  11   3     2.306388712650   117.57758758   104.17738490
 O     16  11   3     2.303385305963   118.20158579   285.18087631
 N      1   2   3     6.858278770039    81.86403759    72.49909045
 C     19   1   2     2.766984065049   109.79302419   350.61208465
 C     20  19   1     2.882525264618   110.07788658   147.91254072
 C     21  20  19     2.893164803501   110.58302478   303.46702089
 C     22  21  20     2.892695341923   110.85130326    52.45900262
 C     19   1   2     2.764679577627    79.42112920    99.96853938
 H     24  19   1     2.063428960205   108.68687668    70.02681062
 H     24  19   1     2.085321088506   111.43212968   312.27649019
 H     23  22  21     2.065686870514   110.52261950   185.94304689
 H     23  22  21     2.068793480203   109.58911651    67.78484012
 H     21  20  19     2.065423524543   109.66275611   181.22983776
 H     21  20  19     2.069088763662   108.96948119    63.90352193
 H     20  19   1     2.081315140868   111.21215077    27.56641694
 H     11   3   2     2.054050857295   109.53756978    26.88404774
 H     19   1   2     1.914087117237    33.34652608   255.08329572
 H     20  19   1     2.062038822037   108.67614489   269.50873501
 H     22  21  20     2.065238651575   110.51745844   175.32500899
 H     22  21  20     2.070185494210   109.10700659   292.44631914
 H      5   4   3     2.045730655029   119.65681264   180.49834222
 H     26  24  19     4.642314782283   143.42821841   301.76460754
 H     38  26  24     2.878741771678   127.47983938   349.04589442
 O     39  38  26     1.824679620090    37.96845400   172.92679823

---------------------
BASIS SET INFORMATION
---------------------
There are 4 groups of distinct atoms

 Group   1 Type C   : 11s6p2d1f contracted to 5s3p2d1f pattern {62111/411/11/1}
 Group   2 Type H   : 5s1p contracted to 3s1p pattern {311/1}
 Group   3 Type N   : 11s6p2d1f contracted to 5s3p2d1f pattern {62111/411/11/1}
 Group   4 Type O   : 11s6p2d1f contracted to 5s3p2d1f pattern {62111/411/11/1}

Atom   0C    basis set group =>   1
Atom   1C    basis set group =>   1
Atom   2C    basis set group =>   1
Atom   3C    basis set group =>   1
Atom   4C    basis set group =>   1
Atom   5C    basis set group =>   1
Atom   6H    basis set group =>   2
Atom   7H    basis set group =>   2
Atom   8H    basis set group =>   2
Atom   9H    basis set group =>   2
Atom  10C    basis set group =>   1
Atom  11C    basis set group =>   1
Atom  12H    basis set group =>   2
Atom  13H    basis set group =>   2
Atom  14H    basis set group =>   2
Atom  15N    basis set group =>   3
Atom  16O    basis set group =>   4
Atom  17O    basis set group =>   4
Atom  18N    basis set group =>   3
Atom  19C    basis set group =>   1
Atom  20C    basis set group =>   1
Atom  21C    basis set group =>   1
Atom  22C    basis set group =>   1
Atom  23C    basis set group =>   1
Atom  24H    basis set group =>   2
Atom  25H    basis set group =>   2
Atom  26H    basis set group =>   2
Atom  27H    basis set group =>   2
Atom  28H    basis set group =>   2
Atom  29H    basis set group =>   2
Atom  30H    basis set group =>   2
Atom  31H    basis set group =>   2
Atom  32H    basis set group =>   2
Atom  33H    basis set group =>   2
Atom  34H    basis set group =>   2
Atom  35H    basis set group =>   2
Atom  36H    basis set group =>   2
Atom  37H    basis set group =>   2
Atom  38H    basis set group =>   2
Atom  39O    basis set group =>   4
---------------------------------
AUXILIARY/J BASIS SET INFORMATION
---------------------------------
There are 4 groups of distinct atoms

 Group   1 Type C   : 12s5p4d2f1g contracted to 6s4p3d1f1g pattern {711111/2111/211/2/1}
 Group   2 Type H   : 5s2p1d contracted to 3s1p1d pattern {311/2/1}
 Group   3 Type N   : 12s5p4d2f1g contracted to 6s4p3d1f1g pattern {711111/2111/211/2/1}
 Group   4 Type O   : 12s5p4d2f1g contracted to 6s4p3d1f1g pattern {711111/2111/211/2/1}

Atom   0C    basis set group =>   1
Atom   1C    basis set group =>   1
Atom   2C    basis set group =>   1
Atom   3C    basis set group =>   1
Atom   4C    basis set group =>   1
Atom   5C    basis set group =>   1
Atom   6H    basis set group =>   2
Atom   7H    basis set group =>   2
Atom   8H    basis set group =>   2
Atom   9H    basis set group =>   2
Atom  10C    basis set group =>   1
Atom  11C    basis set group =>   1
Atom  12H    basis set group =>   2
Atom  13H    basis set group =>   2
Atom  14H    basis set group =>   2
Atom  15N    basis set group =>   3
Atom  16O    basis set group =>   4
Atom  17O    basis set group =>   4
Atom  18N    basis set group =>   3
Atom  19C    basis set group =>   1
Atom  20C    basis set group =>   1
Atom  21C    basis set group =>   1
Atom  22C    basis set group =>   1
Atom  23C    basis set group =>   1
Atom  24H    basis set group =>   2
Atom  25H    basis set group =>   2
Atom  26H    basis set group =>   2
Atom  27H    basis set group =>   2
Atom  28H    basis set group =>   2
Atom  29H    basis set group =>   2
Atom  30H    basis set group =>   2
Atom  31H    basis set group =>   2
Atom  32H    basis set group =>   2
Atom  33H    basis set group =>   2
Atom  34H    basis set group =>   2
Atom  35H    basis set group =>   2
Atom  36H    basis set group =>   2
Atom  37H    basis set group =>   2
Atom  38H    basis set group =>   2
Atom  39O    basis set group =>   4


           ************************************************************
           *        Program running with 102 parallel MPI-processes   *
           *              working on a common directory               *
           ************************************************************
------------------------------------------------------------------------------
                           ORCA GTO INTEGRAL CALCULATION
                           -- RI-GTO INTEGRALS CHOSEN --
------------------------------------------------------------------------------
------------------------------------------------------------------------------
                   ___                                                        
                  /   \      - P O W E R E D   B Y -                         
                 /     \                                                     
                 |  |  |   _    _      __       _____    __    __             
                 |  |  |  | |  | |    /  \     |  _  \  |  |  /  |          
                  \  \/   | |  | |   /    \    | | | |  |  | /  /          
                 / \  \   | |__| |  /  /\  \   | |_| |  |  |/  /          
                |  |  |   |  __  | /  /__\  \  |    /   |      \           
                |  |  |   | |  | | |   __   |  |    \   |  |\   \          
                \     /   | |  | | |  |  |  |  | |\  \  |  | \   \       
                 \___/    |_|  |_| |__|  |__|  |_| \__\ |__|  \__/        
                                                                              
                      - O R C A' S   B I G   F R I E N D -                    
                                      &                                       
                       - I N T E G R A L  F E E D E R -                       
                                                                              
 v1 FN, 2020, v2 2021                                                         
------------------------------------------------------------------------------


Reading SHARK input file /home/rudenko/mop_saddle_orca_4_serv/for_orca/c6h5chno2ch3_piperidine/orca/start_freq_D/start_f_D.SHARKINP.tmp ... ok
----------------------
SHARK INTEGRAL PACKAGE
----------------------

Number of atoms                             ...     40
Number of basis functions                   ...    690
Number of shells                            ...    286
Maximum angular momentum                    ...      3
Integral batch strategy                     ... SHARK/LIBINT Hybrid
RI-J (if used) integral strategy            ... SPLIT-RIJ (Revised 2003 algorithm where possible)
Printlevel                                  ...      1
Contraction scheme used                     ... SEGMENTED contraction
Coulomb Range Separation                    ... NOT USED
Exchange Range Separation                   ... NOT USED
Finite Nucleus Model                        ... NOT USED
Auxiliary Coulomb fitting basis             ... AVAILABLE
   # of basis functions in Aux-J            ...   1124
   # of shells in Aux-J                     ...    380
   Maximum angular momentum in Aux-J        ...      4
Auxiliary J/K fitting basis                 ... NOT available
Auxiliary Correlation fitting basis         ... NOT available
Auxiliary 'external' fitting basis          ... NOT available
Integral threshold                          ...     2.500000e-11
Primitive cut-off                           ...     2.500000e-12
Primitive pair pre-selection threshold      ...     2.500000e-12

Calculating pre-screening integrals         ... done (  0.1 sec) Dimension = 286
Organizing shell pair data                  ... done (  0.8 sec)
Shell pair information
Total number of shell pairs                 ...     41041
Shell pairs after pre-screening             ...     31141
Total number of primitive shell pairs       ...    121740
Primitive shell pairs kept                  ...     62144
          la=0 lb=0:   9184 shell pairs
          la=1 lb=0:   9228 shell pairs
          la=1 lb=1:   2391 shell pairs
          la=2 lb=0:   4148 shell pairs
          la=2 lb=1:   2143 shell pairs
          la=2 lb=2:    508 shell pairs
          la=3 lb=0:   1952 shell pairs
          la=3 lb=1:   1016 shell pairs
          la=3 lb=2:    460 shell pairs
          la=3 lb=3:    111 shell pairs

Calculating one electron integrals          ... done (  0.2 sec)
Calculating RI/J V-Matrix + Cholesky decomp.... done (  0.2 sec)
Calculating Nuclear repulsion               ... done (  0.0 sec) ENN=   1399.571688172327 Eh

SHARK setup successfully completed in   1.9 seconds

Maximum memory used throughout the entire GTOINT-calculation: 46.3 MB


           ************************************************************
           *        Program running with 102 parallel MPI-processes   *
           *              working on a common directory               *
           ************************************************************
-------------------------------------------------------------------------------
                                 ORCA SCF
-------------------------------------------------------------------------------

------------
SCF SETTINGS
------------
Hamiltonian:
 Density Functional     Method          .... DFT(GTOs)
 Exchange Functional    Exchange        .... B88
   X-Alpha parameter    XAlpha          ....  0.666667
   Becke's b parameter  XBeta           ....  0.004200
 Correlation Functional Correlation     .... LYP
 LDA part of GGA corr.  LDAOpt          .... VWN-5
 Gradients option       PostSCFGGA      .... off
 Hybrid DFT is turned on
   Fraction HF Exchange ScalHFX         ....  0.200000
   Scaling of DF-GGA-X  ScalDFX         ....  0.720000
   Scaling of DF-GGA-C  ScalDFC         ....  0.810000
   Scaling of DF-LDA-C  ScalLDAC        ....  1.000000
   Perturbative correction              ....  0.000000
   Density functional embedding theory  .... OFF
   NL short-range parameter             ....  4.800000
 RI-approximation to the Coulomb term is turned on
   Number of AuxJ basis functions       .... 1124
   RIJ-COSX (HFX calculated with COS-X)).... on


General Settings:
 Integral files         IntName         .... /home/rudenko/mop_saddle_orca_4_serv/for_orca/c6h5chno2ch3_piperidine/orca/start_freq_D/start_f_D
 Hartree-Fock type      HFTyp           .... RHF
 Total Charge           Charge          ....    0
 Multiplicity           Mult            ....    1
 Number of Electrons    NEL             ....  138
 Basis Dimension        Dim             ....  690
 Nuclear Repulsion      ENuc            ....   1399.5716881723 Eh

Convergence Acceleration:
 DIIS                   CNVDIIS         .... on
   Start iteration      DIISMaxIt       ....    12
   Startup error        DIISStart       ....  0.200000
   # of expansion vecs  DIISMaxEq       ....     5
   Bias factor          DIISBfac        ....   1.050
   Max. coefficient     DIISMaxC        ....  10.000
 Trust-Rad. Augm. Hess. CNVTRAH         .... auto
   Auto Start mean grad. ratio tolernc. ....  1.125000
   Auto Start start iteration           ....    20
   Auto Start num. interpolation iter.  ....    10
   Max. Number of Micro iterations      ....    16
   Max. Number of Macro iterations      .... Maxiter - #DIIS iter
   Number of Davidson start vectors     ....     2
   Converg. threshold I  (grad. norm)   ....   1.000e-05
   Converg. threshold II (energy diff.) ....   1.000e-08
   Grad. Scal. Fac. for Micro threshold ....   0.100
   Minimum threshold for Micro iter.    ....   0.010
   NR start threshold (gradient norm)   ....   0.001
   Initial trust radius                 ....   0.400
   Minimum AH scaling param. (alpha)    ....   1.000
   Maximum AH scaling param. (alpha)    .... 1000.000
   Orbital update algorithm             .... Taylor
   White noise on init. David. guess    .... on
   Maximum white noise                  ....   0.010
   Quad. conv. algorithm                .... NR
 SOSCF                  CNVSOSCF        .... on
   Start iteration      SOSCFMaxIt      ....   150
   Startup grad/error   SOSCFStart      ....  0.003300
 Level Shifting         CNVShift        .... on
   Level shift para.    LevelShift      ....    0.2500
   Turn off err/grad.   ShiftErr        ....    0.0010
 Zerner damping         CNVZerner       .... off
 Static damping         CNVDamp         .... on
   Fraction old density DampFac         ....    0.7000
   Max. Damping (<1)    DampMax         ....    0.9800
   Min. Damping (>=0)   DampMin         ....    0.0000
   Turn off err/grad.   DampErr         ....    0.1000
 Fernandez-Rico         CNVRico         .... off

SCF Procedure:
 Maximum # iterations   MaxIter         ....   125
 SCF integral mode      SCFMode         .... Direct
   Integral package                     .... SHARK and LIBINT hybrid scheme
 Reset frequency        DirectResetFreq ....    20
 Integral Threshold     Thresh          ....  2.500e-11 Eh
 Primitive CutOff       TCut            ....  2.500e-12 Eh

Convergence Tolerance:
 Convergence Check Mode ConvCheckMode   .... Total+1el-Energy
 Convergence forced     ConvForced      .... 0
 Energy Change          TolE            ....  1.000e-08 Eh
 1-El. energy change                    ....  1.000e-05 Eh
 Orbital Gradient       TolG            ....  1.000e-05
 Orbital Rotation angle TolX            ....  1.000e-05
 DIIS Error             TolErr          ....  5.000e-07


Diagonalization of the overlap matrix:
Smallest eigenvalue                        ... 6.955e-06
Time for diagonalization                   ...    0.310 sec
Threshold for overlap eigenvalues          ... 1.000e-08
Number of eigenvalues below threshold      ... 0
Time for construction of square roots      ...    0.419 sec
Total time needed                          ...    0.732 sec

Time for model grid setup =    0.276 sec

------------------------------
INITIAL GUESS: MODEL POTENTIAL
------------------------------
Loading Hartree-Fock densities                     ... done
Calculating cut-offs                               ... done
Initializing the effective Hamiltonian             ... done
Setting up the integral package (SHARK)            ... done
Starting the Coulomb interaction                   ... done (   0.1 sec)
Reading the grid                                   ... done
Mapping shells                                     ... done
Starting the XC term evaluation                    ... done (   0.1 sec)
  promolecular density results
     # of electrons  =    137.986417414
     EX              =   -111.133872054
     EC              =     -4.640280285
     EX+EC           =   -115.774152339
Transforming the Hamiltonian                       ... done (   0.4 sec)
Diagonalizing the Hamiltonian                      ... done (   0.3 sec)
Back transforming the eigenvectors                 ... done (   0.2 sec)
Now organizing SCF variables                       ... done
                      ------------------
                      INITIAL GUESS DONE (   1.5 sec)
                      ------------------
-------------------
DFT GRID GENERATION
-------------------

General Integration Accuracy     IntAcc      ... 4.388
Radial Grid Type                 RadialGrid  ... OptM3 with GC (2021)
Angular Grid (max. ang.)         AngularGrid ... 4 (Lebedev-302)
Angular grid pruning method      GridPruning ... 4 (adaptive)
Weight generation scheme         WeightScheme... Becke
Basis function cutoff            BFCut       ... 1.0000e-11
Integration weight cutoff        WCut        ... 1.0000e-14
Angular grids for H and He will be reduced by one unit
Partially contracted basis set               ... off
Rotationally invariant grid construction     ... off

Total number of grid points                  ...   177047
Total number of batches                      ...     2784
Average number of points per batch           ...       63
Average number of grid points per atom       ...     4426
Time for grid setup =    1.419 sec

--------------------
COSX GRID GENERATION
--------------------

GRIDX 1
-------
General Integration Accuracy     IntAcc      ... 3.816
Radial Grid Type                 RadialGrid  ... OptM3 with GC (2021)
Angular Grid (max. ang.)         AngularGrid ... 1 (Lebedev-50)
Angular grid pruning method      GridPruning ... 4 (adaptive)
Weight generation scheme         WeightScheme... Becke
Basis function cutoff            BFCut       ... 1.0000e-11
Integration weight cutoff        WCut        ... 1.0000e-14
Angular grids for H and He will be reduced by one unit
Partially contracted basis set               ... on
Rotationally invariant grid construction     ... off

Total number of grid points                  ...    22510
Total number of batches                      ...      374
Average number of points per batch           ...       60
Average number of grid points per atom       ...      563
UseSFitting                                  ... on

GRIDX 2
-------
General Integration Accuracy     IntAcc      ... 4.020
Radial Grid Type                 RadialGrid  ... OptM3 with GC (2021)
Angular Grid (max. ang.)         AngularGrid ... 2 (Lebedev-110)
Angular grid pruning method      GridPruning ... 4 (adaptive)
Weight generation scheme         WeightScheme... Becke
Basis function cutoff            BFCut       ... 1.0000e-11
Integration weight cutoff        WCut        ... 1.0000e-14
Angular grids for H and He will be reduced by one unit
Partially contracted basis set               ... on
Rotationally invariant grid construction     ... off

Total number of grid points                  ...    47623
Total number of batches                      ...      764
Average number of points per batch           ...       62
Average number of grid points per atom       ...     1191
UseSFitting                                  ... on

GRIDX 3
-------
General Integration Accuracy     IntAcc      ... 4.338
Radial Grid Type                 RadialGrid  ... OptM3 with GC (2021)
Angular Grid (max. ang.)         AngularGrid ... 3 (Lebedev-194)
Angular grid pruning method      GridPruning ... 4 (adaptive)
Weight generation scheme         WeightScheme... Becke
Basis function cutoff            BFCut       ... 1.0000e-11
Integration weight cutoff        WCut        ... 1.0000e-14
Angular grids for H and He will be reduced by one unit
Partially contracted basis set               ... on
Rotationally invariant grid construction     ... off

Total number of grid points                  ...   103459
Total number of batches                      ...     1639
Average number of points per batch           ...       63
Average number of grid points per atom       ...     2586
UseSFitting                                  ... on

Time for X-Grid setup             =    2.533 sec


--------------------
CPCM SOLVATION MODEL
--------------------
CPCM parameters:
  Epsilon                                         ...      78.4000
  Refrac                                          ...       1.3300
  Rsolv                                           ...       1.3000
  Surface type                                    ... GAUSSIAN VDW
  Epsilon function type                           ...         CPCM
Radii:
 Radius for C  used is    3.8550 Bohr (=   2.0400 Ang.)
 Radius for H  used is    2.4944 Bohr (=   1.3200 Ang.)
 Radius for N  used is    3.5149 Bohr (=   1.8600 Ang.)
 Radius for O  used is    3.4469 Bohr (=   1.8240 Ang.)
Calculating surface                               ...        done! (  0.0s)
GEPOL surface points                              ...         2250
GEPOL Volume                                      ...    2236.1003
GEPOL Surface-area                                ...    1189.6592
Calculating surface distance matrix               ...        done! (  0.3s)
Performing Cholesky decomposition & store         ...        done! (  0.8s)
Overall time for CPCM initialization              ...                 1.1s
--------------
SCF ITERATIONS
--------------
ITER       Energy         Delta-E        Max-DP      RMS-DP      [F,P]     Damp
               ***  Starting incremental Fock matrix formation  ***
  0   -842.9144301453   0.000000000000 0.12830270  0.00091143  0.3319866 0.7000
  1   -843.2243927723  -0.309962626963 0.13582879  0.00072444  0.1307153 0.7000
                               ***Turning on DIIS***
  2   -843.3381293678  -0.113736595518 0.18952292  0.00110952  0.0373717 0.0000
  3   -843.5250955398  -0.186966172002 0.11647702  0.00057150  0.0761901 0.0000
  4   -843.5642608327  -0.039165292940 0.03906804  0.00018057  0.0202861 0.0000
  5   -843.5665156415  -0.002254808733 0.01451841  0.00006910  0.0087267 0.0000
                      *** Initiating the SOSCF procedure ***
                           *** Shutting down DIIS ***
                      *** Re-Reading the Fockian *** 
                      *** Removing any level shift *** 
ITER      Energy       Delta-E        Grad      Rot      Max-DP    RMS-DP
  6   -843.56673876  -0.0002231189  0.000291  0.000291  0.002767  0.000029
               *** Restarting incremental Fock matrix formation ***
  7   -843.56676277  -0.0000240136  0.000173  0.000404  0.001572  0.000018
  8   -843.56676176   0.0000010167  0.000246  0.000171  0.000885  0.000008
  9   -843.56676555  -0.0000037905  0.000033  0.000114  0.000315  0.000002
 10   -843.56676549   0.0000000540  0.000077  0.000115  0.000131  0.000001
 11   -843.56676557  -0.0000000799  0.000031  0.000075  0.000203  0.000001
 12   -843.56676557   0.0000000052  0.000039  0.000045  0.000078  0.000001
 13   -843.56676558  -0.0000000078  0.000006  0.000010  0.000136  0.000001
 14   -843.56676555   0.0000000241  0.000008  0.000006  0.000061  0.000000
                  ***Gradient check signals convergence***
              ***Rediagonalizing the Fockian in SOSCF/NRSCF***

               *****************************************************
               *                     SUCCESS                       *
               *           SCF CONVERGED AFTER  15 CYCLES          *
               *****************************************************

Old exchange energy                            =    -22.625460470 Eh
New exchange energy                            =    -22.625474262 Eh
Exchange energy change after final integration =     -0.000013792 Eh
Total energy after final integration           =   -843.566779400 Eh
Final COS-X integration done in                =     3.583 sec

----------------
TOTAL SCF ENERGY
----------------

Total Energy       :         -843.56677940 Eh          -22954.61906 eV

Components:
Nuclear Repulsion  :         1399.57168817 Eh           38084.28180 eV
Electronic Energy  :        -2243.13846757 Eh          -61038.90086 eV
One Electron Energy:        -3925.80091094 Eh         -106826.47374 eV
Two Electron Energy:         1682.66244337 Eh           45787.57288 eV
Max COSX asymmetry :            0.00000151 Eh               0.00004 eV
CPCM Dielectric    :           -0.03056929 Eh              -0.83183 eV

Virial components:
Potential Energy   :        -1683.47689883 Eh          -45809.73534 eV
Kinetic Energy     :          839.91011943 Eh           22855.11628 eV
Virial Ratio       :            2.00435363


DFT components:
N(Alpha)           :       69.000143248756 electrons
N(Beta)            :       69.000143248756 electrons
N(Total)           :      138.000286497512 electrons
E(X)               :      -89.925800965836 Eh       
E(C)               :       -5.475258358142 Eh       
E(XC)              :      -95.401059323978 Eh       
DFET-embed. en.    :        0.000000000000 Eh       
CPCM Solvation Model Properties:
Surface-charge          :           -0.03410843
Charge-correction       :            0.00015744 Eh               0.00428 eV
Free-energy (cav+disp)  :  This term is not implemented in the current solvation scheme

---------------
SCF CONVERGENCE
---------------

  Last Energy change         ...   -5.6330e-08  Tolerance :   1.0000e-08
  Last MAX-Density change    ...    2.7756e-15  Tolerance :   1.0000e-07
  Last RMS-Density change    ...    1.3198e-17  Tolerance :   5.0000e-09
  Last Orbital Gradient      ...    5.2243e-07  Tolerance :   1.0000e-05
  Last Orbital Rotation      ...    2.1501e-06  Tolerance :   1.0000e-05

             **** THE GBW FILE WAS UPDATED (/home/rudenko/mop_saddle_orca_4_serv/for_orca/c6h5chno2ch3_piperidine/orca/start_freq_D/start_f_D.gbw) ****
             **** DENSITY /home/rudenko/mop_saddle_orca_4_serv/for_orca/c6h5chno2ch3_piperidine/orca/start_freq_D/start_f_D.scfp WAS UPDATED ****
             **** ENERGY FILE WAS UPDATED (/home/rudenko/mop_saddle_orca_4_serv/for_orca/c6h5chno2ch3_piperidine/orca/start_freq_D/start_f_D.en.tmp) ****
             **** THE GBW FILE WAS UPDATED (/home/rudenko/mop_saddle_orca_4_serv/for_orca/c6h5chno2ch3_piperidine/orca/start_freq_D/start_f_D.gbw) ****
             **** DENSITY /home/rudenko/mop_saddle_orca_4_serv/for_orca/c6h5chno2ch3_piperidine/orca/start_freq_D/start_f_D.scfp WAS UPDATED ****
----------------
ORBITAL ENERGIES
----------------

  NO   OCC          E(Eh)            E(eV) 
   0   2.0000     -19.171343      -521.6788 
   1   2.0000     -19.170923      -521.6673 
   2   2.0000     -19.125845      -520.4407 
   3   2.0000     -14.551821      -395.9752 
   4   2.0000     -14.289096      -388.8261 
   5   2.0000     -10.234925      -278.5065 
   6   2.0000     -10.194441      -277.4048 
   7   2.0000     -10.180500      -277.0255 
   8   2.0000     -10.180385      -277.0224 
   9   2.0000     -10.179214      -276.9905 
  10   2.0000     -10.178582      -276.9733 
  11   2.0000     -10.178514      -276.9715 
  12   2.0000     -10.178163      -276.9619 
  13   2.0000     -10.177657      -276.9481 
  14   2.0000     -10.170302      -276.7480 
  15   2.0000     -10.154014      -276.3048 
  16   2.0000     -10.153170      -276.2818 
  17   2.0000     -10.152944      -276.2757 
  18   2.0000      -1.240997       -33.7692 
  19   2.0000      -1.068266       -29.0690 
  20   2.0000      -1.008753       -27.4496 
  21   2.0000      -0.901232       -24.5238 
  22   2.0000      -0.876609       -23.8538 
  23   2.0000      -0.830996       -22.6126 
  24   2.0000      -0.776569       -21.1315 
  25   2.0000      -0.755020       -20.5451 
  26   2.0000      -0.745852       -20.2957 
  27   2.0000      -0.741877       -20.1875 
  28   2.0000      -0.700670       -19.0662 
  29   2.0000      -0.629039       -17.1170 
  30   2.0000      -0.626703       -17.0535 
  31   2.0000      -0.613056       -16.6821 
  32   2.0000      -0.610194       -16.6042 
  33   2.0000      -0.585300       -15.9268 
  34   2.0000      -0.550381       -14.9766 
  35   2.0000      -0.544137       -14.8067 
  36   2.0000      -0.541215       -14.7272 
  37   2.0000      -0.530349       -14.4315 
  38   2.0000      -0.525313       -14.2945 
  39   2.0000      -0.510548       -13.8927 
  40   2.0000      -0.503494       -13.7008 
  41   2.0000      -0.474771       -12.9192 
  42   2.0000      -0.456044       -12.4096 
  43   2.0000      -0.445854       -12.1323 
  44   2.0000      -0.443054       -12.0561 
  45   2.0000      -0.440460       -11.9855 
  46   2.0000      -0.425165       -11.5693 
  47   2.0000      -0.418665       -11.3924 
  48   2.0000      -0.410585       -11.1726 
  49   2.0000      -0.402029       -10.9398 
  50   2.0000      -0.398135       -10.8338 
  51   2.0000      -0.394464       -10.7339 
  52   2.0000      -0.391585       -10.6556 
  53   2.0000      -0.380771       -10.3613 
  54   2.0000      -0.375100       -10.2070 
  55   2.0000      -0.373001       -10.1499 
  56   2.0000      -0.352990        -9.6053 
  57   2.0000      -0.346750        -9.4355 
  58   2.0000      -0.339282        -9.2323 
  59   2.0000      -0.331749        -9.0273 
  60   2.0000      -0.320649        -8.7253 
  61   2.0000      -0.320469        -8.7204 
  62   2.0000      -0.315848        -8.5947 
  63   2.0000      -0.307515        -8.3679 
  64   2.0000      -0.305511        -8.3134 
  65   2.0000      -0.304068        -8.2741 
  66   2.0000      -0.264542        -7.1986 
  67   2.0000      -0.262879        -7.1533 
  68   2.0000      -0.224488        -6.1086 
  69   0.0000      -0.080769        -2.1978 
  70   0.0000      -0.025158        -0.6846 
  71   0.0000      -0.020211        -0.5500 
  72   0.0000       0.020118         0.5474 
  73   0.0000       0.049160         1.3377 
  74   0.0000       0.052204         1.4206 
  75   0.0000       0.056794         1.5454 
  76   0.0000       0.075095         2.0434 
  77   0.0000       0.081539         2.2188 
  78   0.0000       0.083300         2.2667 
  79   0.0000       0.087525         2.3817 
  80   0.0000       0.091034         2.4772 
  81   0.0000       0.095097         2.5877 
  82   0.0000       0.101308         2.7567 
  83   0.0000       0.108372         2.9489 
  84   0.0000       0.114784         3.1234 
  85   0.0000       0.120567         3.2808 
  86   0.0000       0.123057         3.3485 
  87   0.0000       0.128245         3.4897 
  88   0.0000       0.131920         3.5897 
  89   0.0000       0.132862         3.6154 
  90   0.0000       0.138684         3.7738 
  91   0.0000       0.146827         3.9954 
  92   0.0000       0.158081         4.3016 
  93   0.0000       0.161002         4.3811 
  94   0.0000       0.169073         4.6007 
  95   0.0000       0.170967         4.6522 
  96   0.0000       0.175208         4.7676 
  97   0.0000       0.180708         4.9173 
  98   0.0000       0.191226         5.2035 
  99   0.0000       0.194737         5.2991 
 100   0.0000       0.198985         5.4146 
 101   0.0000       0.203611         5.5405 
 102   0.0000       0.210367         5.7244 
 103   0.0000       0.218291         5.9400 
 104   0.0000       0.220330         5.9955 
 105   0.0000       0.222464         6.0536 
 106   0.0000       0.226648         6.1674 
 107   0.0000       0.232581         6.3288 
 108   0.0000       0.235369         6.4047 
 109   0.0000       0.244505         6.6533 
 110   0.0000       0.249678         6.7941 
 111   0.0000       0.251891         6.8543 
 112   0.0000       0.254685         6.9303 
 113   0.0000       0.260485         7.0882 
 114   0.0000       0.264327         7.1927 
 115   0.0000       0.269103         7.3227 
 116   0.0000       0.274143         7.4598 
 117   0.0000       0.285585         7.7712 
 118   0.0000       0.289256         7.8711 
 119   0.0000       0.300168         8.1680 
 120   0.0000       0.304180         8.2772 
 121   0.0000       0.313161         8.5216 
 122   0.0000       0.318594         8.6694 
 123   0.0000       0.326220         8.8769 
 124   0.0000       0.330319         8.9884 
 125   0.0000       0.341413         9.2903 
 126   0.0000       0.347033         9.4433 
 127   0.0000       0.355443         9.6721 
 128   0.0000       0.360537         9.8107 
 129   0.0000       0.365343         9.9415 
 130   0.0000       0.370205        10.0738 
 131   0.0000       0.371634        10.1127 
 132   0.0000       0.374347        10.1865 
 133   0.0000       0.381761        10.3882 
 134   0.0000       0.386731        10.5235 
 135   0.0000       0.394126        10.7247 
 136   0.0000       0.398091        10.8326 
 137   0.0000       0.405205        11.0262 
 138   0.0000       0.409451        11.1417 
 139   0.0000       0.412002        11.2111 
 140   0.0000       0.416067        11.3218 
 141   0.0000       0.422257        11.4902 
 142   0.0000       0.424770        11.5586 
 143   0.0000       0.428884        11.6705 
 144   0.0000       0.432444        11.7674 
 145   0.0000       0.437239        11.8979 
 146   0.0000       0.441593        12.0164 
 147   0.0000       0.443078        12.0568 
 148   0.0000       0.447817        12.1857 
 149   0.0000       0.452684        12.3182 
 150   0.0000       0.454366        12.3639 
 151   0.0000       0.459109        12.4930 
 152   0.0000       0.463159        12.6032 
 153   0.0000       0.468444        12.7470 
 154   0.0000       0.470585        12.8053 
 155   0.0000       0.474645        12.9158 
 156   0.0000       0.478200        13.0125 
 157   0.0000       0.481199        13.0941 
 158   0.0000       0.485737        13.2176 
 159   0.0000       0.491794        13.3824 
 160   0.0000       0.494715        13.4619 
 161   0.0000       0.497797        13.5458 
 162   0.0000       0.503374        13.6975 
 163   0.0000       0.506056        13.7705 
 164   0.0000       0.511996        13.9321 
 165   0.0000       0.516430        14.0528 
 166   0.0000       0.520504        14.1636 
 167   0.0000       0.525455        14.2984 
 168   0.0000       0.529748        14.4152 
 169   0.0000       0.537053        14.6140 
 170   0.0000       0.538995        14.6668 
 171   0.0000       0.552541        15.0354 
 172   0.0000       0.556884        15.1536 
 173   0.0000       0.561022        15.2662 
 174   0.0000       0.568944        15.4817 
 175   0.0000       0.576669        15.6920 
 176   0.0000       0.582482        15.8501 
 177   0.0000       0.588209        16.0060 
 178   0.0000       0.595000        16.1908 
 179   0.0000       0.602421        16.3927 
 180   0.0000       0.611945        16.6519 
 181   0.0000       0.625557        17.0223 
 182   0.0000       0.628846        17.1118 
 183   0.0000       0.638060        17.3625 
 184   0.0000       0.639875        17.4119 
 185   0.0000       0.651437        17.7265 
 186   0.0000       0.657506        17.8916 
 187   0.0000       0.665952        18.1215 
 188   0.0000       0.670197        18.2370 
 189   0.0000       0.681578        18.5467 
 190   0.0000       0.685066        18.6416 
 191   0.0000       0.689033        18.7495 
 192   0.0000       0.702150        19.1065 
 193   0.0000       0.715882        19.4801 
 194   0.0000       0.722042        19.6478 
 195   0.0000       0.726280        19.7631 
 196   0.0000       0.737714        20.0742 
 197   0.0000       0.746761        20.3204 
 198   0.0000       0.756248        20.5786 
 199   0.0000       0.759505        20.6672 
 200   0.0000       0.769138        20.9293 
 201   0.0000       0.777633        21.1605 
 202   0.0000       0.783177        21.3113 
 203   0.0000       0.787193        21.4206 
 204   0.0000       0.790503        21.5107 
 205   0.0000       0.799826        21.7644 
 206   0.0000       0.816039        22.2056 
 207   0.0000       0.821746        22.3608 
 208   0.0000       0.826909        22.5013 
 209   0.0000       0.831167        22.6172 
 210   0.0000       0.839698        22.8493 
 211   0.0000       0.855335        23.2748 
 212   0.0000       0.867651        23.6100 
 213   0.0000       0.877935        23.8898 
 214   0.0000       0.883858        24.0510 
 215   0.0000       0.890333        24.2272 
 216   0.0000       0.899405        24.4741 
 217   0.0000       0.913525        24.8583 
 218   0.0000       0.914805        24.8931 
 219   0.0000       0.929259        25.2864 
 220   0.0000       0.951150        25.8821 
 221   0.0000       0.959327        26.1046 
 222   0.0000       0.966238        26.2927 
 223   0.0000       0.969876        26.3917 
 224   0.0000       0.978171        26.6174 
 225   0.0000       0.996759        27.1232 
 226   0.0000       0.998689        27.1757 
 227   0.0000       1.009279        27.4639 
 228   0.0000       1.024991        27.8914 
 229   0.0000       1.034563        28.1519 
 230   0.0000       1.037913        28.2430 
 231   0.0000       1.044894        28.4330 
 232   0.0000       1.064310        28.9613 
 233   0.0000       1.078558        29.3491 
 234   0.0000       1.086733        29.5715 
 235   0.0000       1.091493        29.7010 
 236   0.0000       1.101226        29.9659 
 237   0.0000       1.119134        30.4532 
 238   0.0000       1.124827        30.6081 
 239   0.0000       1.132928        30.8285 
 240   0.0000       1.138273        30.9740 
 241   0.0000       1.146842        31.2072 
 242   0.0000       1.158794        31.5324 
 243   0.0000       1.166705        31.7477 
 244   0.0000       1.175528        31.9877 
 245   0.0000       1.176696        32.0195 
 246   0.0000       1.182245        32.1705 
 247   0.0000       1.189694        32.3732 
 248   0.0000       1.199193        32.6317 
 249   0.0000       1.212594        32.9963 
 250   0.0000       1.217892        33.1405 
 251   0.0000       1.219749        33.1910 
 252   0.0000       1.234931        33.6042 
 253   0.0000       1.243652        33.8415 
 254   0.0000       1.250893        34.0385 
 255   0.0000       1.259427        34.2707 
 256   0.0000       1.267200        34.4823 
 257   0.0000       1.275643        34.7120 
 258   0.0000       1.287715        35.0405 
 259   0.0000       1.298666        35.3385 
 260   0.0000       1.301219        35.4080 
 261   0.0000       1.306132        35.5417 
 262   0.0000       1.314154        35.7600 
 263   0.0000       1.326959        36.1084 
 264   0.0000       1.333672        36.2911 
 265   0.0000       1.341170        36.4951 
 266   0.0000       1.354100        36.8469 
 267   0.0000       1.359304        36.9885 
 268   0.0000       1.367868        37.2216 
 269   0.0000       1.391155        37.8552 
 270   0.0000       1.403339        38.1868 
 271   0.0000       1.414226        38.4830 
 272   0.0000       1.438139        39.1338 
 273   0.0000       1.446504        39.3614 
 274   0.0000       1.456618        39.6366 
 275   0.0000       1.465650        39.8824 
 276   0.0000       1.476597        40.1802 
 277   0.0000       1.483476        40.3674 
 278   0.0000       1.494383        40.6642 
 279   0.0000       1.501667        40.8624 
 280   0.0000       1.515130        41.2288 
 281   0.0000       1.521526        41.4028 
 282   0.0000       1.524609        41.4867 
 283   0.0000       1.531806        41.6826 
 284   0.0000       1.538342        41.8604 
 285   0.0000       1.549433        42.1622 
 286   0.0000       1.565103        42.5886 
 287   0.0000       1.569815        42.7168 
 288   0.0000       1.575815        42.8801 
 289   0.0000       1.583863        43.0991 
 290   0.0000       1.590011        43.2664 
 291   0.0000       1.596557        43.4445 
 292   0.0000       1.601540        43.5801 
 293   0.0000       1.606824        43.7239 
 294   0.0000       1.608278        43.7635 
 295   0.0000       1.613638        43.9093 
 296   0.0000       1.621589        44.1257 
 297   0.0000       1.626375        44.2559 
 298   0.0000       1.635157        44.4949 
 299   0.0000       1.645977        44.7893 
 300   0.0000       1.652010        44.9535 
 301   0.0000       1.660977        45.1975 
 302   0.0000       1.669466        45.4285 
 303   0.0000       1.675667        45.5972 
 304   0.0000       1.679342        45.6972 
 305   0.0000       1.685594        45.8674 
 306   0.0000       1.691216        46.0203 
 307   0.0000       1.698535        46.2195 
 308   0.0000       1.703198        46.3464 
 309   0.0000       1.710664        46.5495 
 310   0.0000       1.714703        46.6594 
 311   0.0000       1.720427        46.8152 
 312   0.0000       1.724500        46.9260 
 313   0.0000       1.740495        47.3613 
 314   0.0000       1.751371        47.6572 
 315   0.0000       1.761232        47.9255 
 316   0.0000       1.769013        48.1373 
 317   0.0000       1.774027        48.2737 
 318   0.0000       1.781990        48.4904 
 319   0.0000       1.793273        48.7974 
 320   0.0000       1.801419        49.0191 
 321   0.0000       1.820973        49.5512 
 322   0.0000       1.828897        49.7668 
 323   0.0000       1.839892        50.0660 
 324   0.0000       1.853531        50.4372 
 325   0.0000       1.857500        50.5452 
 326   0.0000       1.863916        50.7197 
 327   0.0000       1.882172        51.2165 
 328   0.0000       1.897471        51.6328 
 329   0.0000       1.907780        51.9133 
 330   0.0000       1.924196        52.3600 
 331   0.0000       1.925934        52.4073 
 332   0.0000       1.943555        52.8868 
 333   0.0000       1.953285        53.1516 
 334   0.0000       1.960104        53.3372 
 335   0.0000       1.975243        53.7491 
 336   0.0000       1.986260        54.0489 
 337   0.0000       1.990453        54.1630 
 338   0.0000       1.998877        54.3922 
 339   0.0000       2.003921        54.5295 
 340   0.0000       2.011857        54.7454 
 341   0.0000       2.019638        54.9571 
 342   0.0000       2.031874        55.2901 
 343   0.0000       2.047331        55.7107 
 344   0.0000       2.059413        56.0395 
 345   0.0000       2.063843        56.1600 
 346   0.0000       2.078175        56.5500 
 347   0.0000       2.080343        56.6090 
 348   0.0000       2.091865        56.9225 
 349   0.0000       2.099195        57.1220 
 350   0.0000       2.108911        57.3864 
 351   0.0000       2.113161        57.5020 
 352   0.0000       2.121509        57.7292 
 353   0.0000       2.128115        57.9090 
 354   0.0000       2.142603        58.3032 
 355   0.0000       2.148178        58.4549 
 356   0.0000       2.162888        58.8552 
 357   0.0000       2.169373        59.0316 
 358   0.0000       2.176849        59.2351 
 359   0.0000       2.188762        59.5593 
 360   0.0000       2.192544        59.6621 
 361   0.0000       2.207075        60.0576 
 362   0.0000       2.220434        60.4211 
 363   0.0000       2.227229        60.6060 
 364   0.0000       2.238816        60.9213 
 365   0.0000       2.249212        61.2042 
 366   0.0000       2.262467        61.5649 
 367   0.0000       2.265658        61.6517 
 368   0.0000       2.274122        61.8820 
 369   0.0000       2.276496        61.9466 
 370   0.0000       2.305237        62.7287 
 371   0.0000       2.322895        63.2092 
 372   0.0000       2.339117        63.6506 
 373   0.0000       2.347554        63.8802 
 374   0.0000       2.356525        64.1243 
 375   0.0000       2.360678        64.2373 
 376   0.0000       2.366341        64.3914 
 377   0.0000       2.374241        64.6064 
 378   0.0000       2.382863        64.8410 
 379   0.0000       2.392184        65.0946 
 380   0.0000       2.415190        65.7207 
 381   0.0000       2.423463        65.9458 
 382   0.0000       2.427627        66.0591 
 383   0.0000       2.440323        66.4046 
 384   0.0000       2.443202        66.4829 
 385   0.0000       2.457867        66.8820 
 386   0.0000       2.464631        67.0660 
 387   0.0000       2.470626        67.2291 
 388   0.0000       2.481558        67.5266 
 389   0.0000       2.499837        68.0240 
 390   0.0000       2.525701        68.7278 
 391   0.0000       2.534387        68.9642 
 392   0.0000       2.542647        69.1889 
 393   0.0000       2.552704        69.4626 
 394   0.0000       2.555859        69.5485 
 395   0.0000       2.560010        69.6614 
 396   0.0000       2.564504        69.7837 
 397   0.0000       2.567272        69.8590 
 398   0.0000       2.575771        70.0903 
 399   0.0000       2.582156        70.2640 
 400   0.0000       2.589524        70.4645 
 401   0.0000       2.590546        70.4923 
 402   0.0000       2.592806        70.5538 
 403   0.0000       2.597810        70.6900 
 404   0.0000       2.609795        71.0161 
 405   0.0000       2.613986        71.1302 
 406   0.0000       2.624603        71.4191 
 407   0.0000       2.628016        71.5119 
 408   0.0000       2.640605        71.8545 
 409   0.0000       2.644570        71.9624 
 410   0.0000       2.646277        72.0089 
 411   0.0000       2.649052        72.0844 
 412   0.0000       2.657845        72.3236 
 413   0.0000       2.666412        72.5568 
 414   0.0000       2.669731        72.6471 
 415   0.0000       2.679187        72.9044 
 416   0.0000       2.688884        73.1682 
 417   0.0000       2.697216        73.3950 
 418   0.0000       2.699274        73.4510 
 419   0.0000       2.708930        73.7137 
 420   0.0000       2.716350        73.9156 
 421   0.0000       2.724176        74.1286 
 422   0.0000       2.728029        74.2335 
 423   0.0000       2.733964        74.3949 
 424   0.0000       2.737115        74.4807 
 425   0.0000       2.741147        74.5904 
 426   0.0000       2.748565        74.7923 
 427   0.0000       2.757331        75.0308 
 428   0.0000       2.763944        75.2107 
 429   0.0000       2.775883        75.5356 
 430   0.0000       2.779263        75.6276 
 431   0.0000       2.786356        75.8206 
 432   0.0000       2.795332        76.0648 
 433   0.0000       2.804137        76.3044 
 434   0.0000       2.812405        76.5294 
 435   0.0000       2.814643        76.5903 
 436   0.0000       2.818998        76.7088 
 437   0.0000       2.830357        77.0179 
 438   0.0000       2.843342        77.3713 
 439   0.0000       2.855507        77.7023 
 440   0.0000       2.862763        77.8997 
 441   0.0000       2.864044        77.9346 
 442   0.0000       2.874509        78.2194 
 443   0.0000       2.880746        78.3891 
 444   0.0000       2.887235        78.5657 
 445   0.0000       2.905245        79.0557 
 446   0.0000       2.925034        79.5942 
 447   0.0000       2.934556        79.8533 
 448   0.0000       2.943398        80.0939 
 449   0.0000       2.953565        80.3706 
 450   0.0000       2.960835        80.5684 
 451   0.0000       2.973000        80.8994 
 452   0.0000       2.994926        81.4961 
 453   0.0000       2.997374        81.5627 
 454   0.0000       3.003045        81.7170 
 455   0.0000       3.008623        81.8688 
 456   0.0000       3.029385        82.4337 
 457   0.0000       3.054055        83.1051 
 458   0.0000       3.060965        83.2931 
 459   0.0000       3.067738        83.4774 
 460   0.0000       3.074739        83.6679 
 461   0.0000       3.082281        83.8731 
 462   0.0000       3.095585        84.2351 
 463   0.0000       3.099818        84.3503 
 464   0.0000       3.103290        84.4448 
 465   0.0000       3.121627        84.9438 
 466   0.0000       3.130351        85.1812 
 467   0.0000       3.135542        85.3224 
 468   0.0000       3.141683        85.4895 
 469   0.0000       3.144837        85.5754 
 470   0.0000       3.150515        85.7299 
 471   0.0000       3.162086        86.0447 
 472   0.0000       3.168845        86.2286 
 473   0.0000       3.174469        86.3817 
 474   0.0000       3.183143        86.6177 
 475   0.0000       3.194896        86.9376 
 476   0.0000       3.195851        86.9635 
 477   0.0000       3.205068        87.2143 
 478   0.0000       3.220975        87.6472 
 479   0.0000       3.221424        87.6594 
 480   0.0000       3.224760        87.7502 
 481   0.0000       3.239421        88.1491 
 482   0.0000       3.245541        88.3157 
 483   0.0000       3.263656        88.8086 
 484   0.0000       3.267042        88.9007 
 485   0.0000       3.272361        89.0455 
 486   0.0000       3.288538        89.4857 
 487   0.0000       3.302048        89.8533 
 488   0.0000       3.306837        89.9836 
 489   0.0000       3.311755        90.1174 
 490   0.0000       3.319468        90.3273 
 491   0.0000       3.323146        90.4274 
 492   0.0000       3.334430        90.7344 
 493   0.0000       3.342314        90.9490 
 494   0.0000       3.355884        91.3182 
 495   0.0000       3.362999        91.5118 
 496   0.0000       3.378361        91.9299 
 497   0.0000       3.378905        91.9447 
 498   0.0000       3.382864        92.0524 
 499   0.0000       3.392512        92.3150 
 500   0.0000       3.396384        92.4203 
 501   0.0000       3.416933        92.9795 
 502   0.0000       3.423645        93.1621 
 503   0.0000       3.435265        93.4783 
 504   0.0000       3.437722        93.5452 
 505   0.0000       3.445605        93.7597 
 506   0.0000       3.454315        93.9967 
 507   0.0000       3.465787        94.3089 
 508   0.0000       3.473656        94.5230 
 509   0.0000       3.484140        94.8083 
 510   0.0000       3.488258        94.9203 
 511   0.0000       3.492457        95.0346 
 512   0.0000       3.494753        95.0971 
 513   0.0000       3.511112        95.5422 
 514   0.0000       3.518467        95.7423 
 515   0.0000       3.523260        95.8728 
 516   0.0000       3.534996        96.1921 
 517   0.0000       3.540657        96.3462 
 518   0.0000       3.544107        96.4401 
 519   0.0000       3.548660        96.5640 
 520   0.0000       3.567168        97.0676 
 521   0.0000       3.569984        97.1442 
 522   0.0000       3.575585        97.2966 
 523   0.0000       3.603516        98.0567 
 524   0.0000       3.612129        98.2910 
 525   0.0000       3.628612        98.7395 
 526   0.0000       3.639801        99.0440 
 527   0.0000       3.658546        99.5541 
 528   0.0000       3.670044        99.8670 
 529   0.0000       3.677251       100.0631 
 530   0.0000       3.684535       100.2613 
 531   0.0000       3.698953       100.6536 
 532   0.0000       3.729596       101.4875 
 533   0.0000       3.735154       101.6387 
 534   0.0000       3.747845       101.9841 
 535   0.0000       3.758724       102.2801 
 536   0.0000       3.764848       102.4467 
 537   0.0000       3.772241       102.6479 
 538   0.0000       3.792922       103.2106 
 539   0.0000       3.815429       103.8231 
 540   0.0000       3.820116       103.9506 
 541   0.0000       3.843255       104.5803 
 542   0.0000       3.884808       105.7110 
 543   0.0000       3.894097       105.9638 
 544   0.0000       3.897939       106.0683 
 545   0.0000       3.915778       106.5537 
 546   0.0000       3.934261       107.0567 
 547   0.0000       3.943823       107.3169 
 548   0.0000       3.950001       107.4850 
 549   0.0000       3.960743       107.7773 
 550   0.0000       3.969500       108.0156 
 551   0.0000       3.981669       108.3467 
 552   0.0000       3.997870       108.7876 
 553   0.0000       4.014740       109.2466 
 554   0.0000       4.023853       109.4946 
 555   0.0000       4.035640       109.8153 
 556   0.0000       4.041188       109.9663 
 557   0.0000       4.049425       110.1904 
 558   0.0000       4.067148       110.6727 
 559   0.0000       4.083853       111.1273 
 560   0.0000       4.102740       111.6412 
 561   0.0000       4.107865       111.7807 
 562   0.0000       4.131530       112.4246 
 563   0.0000       4.155579       113.0791 
 564   0.0000       4.160741       113.2195 
 565   0.0000       4.193442       114.1093 
 566   0.0000       4.200620       114.3047 
 567   0.0000       4.206042       114.4522 
 568   0.0000       4.214968       114.6951 
 569   0.0000       4.217135       114.7541 
 570   0.0000       4.234146       115.2170 
 571   0.0000       4.250259       115.6554 
 572   0.0000       4.274215       116.3073 
 573   0.0000       4.275542       116.3434 
 574   0.0000       4.279427       116.4491 
 575   0.0000       4.301805       117.0581 
 576   0.0000       4.309376       117.2641 
 577   0.0000       4.317857       117.4949 
 578   0.0000       4.324057       117.6636 
 579   0.0000       4.337503       118.0295 
 580   0.0000       4.343681       118.1976 
 581   0.0000       4.354672       118.4967 
 582   0.0000       4.366612       118.8216 
 583   0.0000       4.391007       119.4854 
 584   0.0000       4.418731       120.2398 
 585   0.0000       4.425278       120.4179 
 586   0.0000       4.445265       120.9618 
 587   0.0000       4.502403       122.5166 
 588   0.0000       4.509285       122.7039 
 589   0.0000       4.522162       123.0543 
 590   0.0000       4.532805       123.3439 
 591   0.0000       4.566781       124.2684 
 592   0.0000       4.595940       125.0619 
 593   0.0000       4.612974       125.5254 
 594   0.0000       4.622532       125.7855 
 595   0.0000       4.636108       126.1549 
 596   0.0000       4.662423       126.8710 
 597   0.0000       4.679193       127.3273 
 598   0.0000       4.684426       127.4697 
 599   0.0000       4.704000       128.0023 
 600   0.0000       4.717263       128.3632 
 601   0.0000       4.723259       128.5264 
 602   0.0000       4.746974       129.1717 
 603   0.0000       4.779622       130.0601 
 604   0.0000       4.800468       130.6274 
 605   0.0000       4.810601       130.9031 
 606   0.0000       4.813756       130.9889 
 607   0.0000       4.853350       132.0664 
 608   0.0000       4.874087       132.6307 
 609   0.0000       4.877155       132.7141 
 610   0.0000       4.888079       133.0114 
 611   0.0000       4.912964       133.6886 
 612   0.0000       4.933830       134.2563 
 613   0.0000       4.952747       134.7711 
 614   0.0000       4.975925       135.4018 
 615   0.0000       5.037444       137.0758 
 616   0.0000       5.058833       137.6579 
 617   0.0000       5.070544       137.9765 
 618   0.0000       5.083802       138.3373 
 619   0.0000       5.099820       138.7731 
 620   0.0000       5.100760       138.7987 
 621   0.0000       5.122613       139.3934 
 622   0.0000       5.131411       139.6328 
 623   0.0000       5.138289       139.8199 
 624   0.0000       5.149959       140.1375 
 625   0.0000       5.153211       140.2260 
 626   0.0000       5.196001       141.3904 
 627   0.0000       5.215448       141.9196 
 628   0.0000       5.234807       142.4463 
 629   0.0000       5.266835       143.3179 
 630   0.0000       5.290139       143.9520 
 631   0.0000       5.316275       144.6632 
 632   0.0000       5.344346       145.4270 
 633   0.0000       5.382678       146.4701 
 634   0.0000       5.386651       146.5782 
 635   0.0000       5.390832       146.6920 
 636   0.0000       5.399559       146.9295 
 637   0.0000       5.405597       147.0938 
 638   0.0000       5.413411       147.3064 
 639   0.0000       5.442529       148.0987 
 640   0.0000       5.455763       148.4588 
 641   0.0000       5.514317       150.0522 
 642   0.0000       5.566673       151.4769 
 643   0.0000       5.591019       152.1394 
 644   0.0000       5.614670       152.7829 
 645   0.0000       5.636303       153.3716 
 646   0.0000       5.668473       154.2470 
 647   0.0000       5.699267       155.0849 
 648   0.0000       5.942827       161.7125 
 649   0.0000       5.946403       161.8099 
 650   0.0000       6.023076       163.8962 
 651   0.0000       6.227265       169.4525 
 652   0.0000       6.240206       169.8047 
 653   0.0000       6.302899       171.5106 
 654   0.0000       6.336374       172.4215 
 655   0.0000       6.346112       172.6865 
 656   0.0000       6.368849       173.3052 
 657   0.0000       6.375818       173.4948 
 658   0.0000       6.415707       174.5803 
 659   0.0000       6.438950       175.2127 
 660   0.0000       6.446582       175.4204 
 661   0.0000       6.673337       181.5907 
 662   0.0000       6.849159       186.3751 
 663   0.0000       6.874139       187.0548 
 664   0.0000       6.910675       188.0490 
 665   0.0000       6.924533       188.4261 
 666   0.0000       7.032739       191.3706 
 667   0.0000       7.095625       193.0818 
 668   0.0000       7.250929       197.3078 
 669   0.0000       7.295831       198.5297 
 670   0.0000       7.379093       200.7953 
 671   0.0000       7.410410       201.6475 
 672   0.0000      22.216433       604.5399 
 673   0.0000      22.411281       609.8420 
 674   0.0000      22.444982       610.7590 
 675   0.0000      22.492459       612.0509 
 676   0.0000      22.513789       612.6313 
 677   0.0000      22.528990       613.0450 
 678   0.0000      22.574136       614.2735 
 679   0.0000      22.619313       615.5028 
 680   0.0000      22.640135       616.0694 
 681   0.0000      22.705078       617.8366 
 682   0.0000      22.767581       619.5374 
 683   0.0000      22.820835       620.9865 
 684   0.0000      23.222142       631.9066 
 685   0.0000      32.398400       881.6053 
 686   0.0000      32.479833       883.8212 
 687   0.0000      43.478384      1183.1070 
 688   0.0000      43.982521      1196.8252 
 689   0.0000      44.020524      1197.8593 

                    ********************************
                    * MULLIKEN POPULATION ANALYSIS *
                    ********************************

-----------------------
MULLIKEN ATOMIC CHARGES
-----------------------
   0 C :   -0.135532
   1 C :   -0.189879
   2 C :    0.076406
   3 C :   -0.194505
   4 C :   -0.144060
   5 C :   -0.149054
   6 H :    0.142183
   7 H :    0.146845
   8 H :    0.147131
   9 H :    0.143927
  10 C :    0.044377
  11 C :   -0.377550
  12 H :    0.145910
  13 H :    0.140050
  14 H :    0.151526
  15 N :    0.438352
  16 O :   -0.346595
  17 O :   -0.348984
  18 N :   -0.367038
  19 C :   -0.131003
  20 C :   -0.145126
  21 C :   -0.162196
  22 C :   -0.143737
  23 C :   -0.122494
  24 H :    0.104709
  25 H :    0.075832
  26 H :    0.095542
  27 H :    0.073018
  28 H :    0.095999
  29 H :    0.073625
  30 H :    0.055221
  31 H :    0.142876
  32 H :    0.203387
  33 H :    0.109904
  34 H :    0.097922
  35 H :    0.072161
  36 H :    0.143529
  37 H :    0.355162
  38 H :    0.358331
  39 O :   -0.676171
Sum of atomic charges:    0.0000000

--------------------------------
MULLIKEN REDUCED ORBITAL CHARGES
[...]
       cm**-1   L/(mol*cm) km/mol    a.u.
----------------------------------------------------------------------------
  6:     16.34   0.000927    4.68  0.017706  ( 0.120668 -0.015334 -0.053945)
  7:     26.31   0.000344    1.74  0.004085  (-0.063340 -0.000458 -0.008520)
  8:     31.41   0.000133    0.67  0.001319  (-0.031872  0.016520 -0.005515)
  9:     32.91   0.000073    0.37  0.000691  ( 0.012941  0.016844 -0.015498)
 10:     45.76   0.001882    9.51  0.012831  (-0.110471  0.021200  0.013310)
 11:     49.50   0.000394    1.99  0.002486  ( 0.048802 -0.009905  0.002427)
 12:     55.29   0.001148    5.80  0.006479  ( 0.062210  0.038495 -0.033575)
 13:     60.57   0.007358   37.19  0.037908  (-0.179983 -0.057547  0.046932)
 14:     64.39   0.003199   16.16  0.015501  ( 0.122145 -0.018888 -0.014988)
 15:     75.95   0.010062   50.85  0.041343  ( 0.195667 -0.029396 -0.046832)
 16:     87.65   0.002354   11.89  0.008380  ( 0.086321 -0.029018 -0.009281)
 17:    100.81   0.003489   17.63  0.010801  ( 0.073790 -0.071849 -0.013931)
 18:    105.69   0.001867    9.43  0.005513  ( 0.073387  0.008032  0.007900)
 19:    179.09   0.025490  128.82  0.044416  (-0.022541 -0.196125  0.073779)
 20:    220.24   0.000384    1.94  0.000544  (-0.015737 -0.016141  0.005973)
 21:    233.01   0.001978   10.00  0.002649  (-0.021344 -0.039609  0.024989)
 22:    251.95   0.013609   68.77  0.016856  ( 0.122137  0.019388 -0.039534)
 23:    260.74   0.000937    4.74  0.001122  ( 0.027884  0.016439 -0.008603)
 24:    263.85   0.000116    0.59  0.000137  (-0.007838  0.008638  0.001201)
 25:    275.05   0.036091  182.39  0.040948  (-0.194400 -0.018267  0.053134)
 26:    293.14   0.000821    4.15  0.000875  (-0.013364  0.004030  0.026071)
 27:    372.09   0.000218    1.10  0.000183  ( 0.005867 -0.010287 -0.006554)
 28:    412.96   0.000672    3.39  0.000508  (-0.016566 -0.002774 -0.015014)
 29:    417.22   0.000479    2.42  0.000359  (-0.018499  0.004017 -0.000536)
 30:    437.66   0.001672    8.45  0.001192  ( 0.016368 -0.024902  0.017442)
 31:    444.98   0.001409    7.12  0.000988  ( 0.023532 -0.016174 -0.013137)
 32:    456.50   0.000312    1.58  0.000213  ( 0.009105  0.011083 -0.002707)
 33:    498.02   0.002032   10.27  0.001273  (-0.020223  0.024696 -0.015945)
 34:    558.66   0.006825   34.49  0.003812  ( 0.032956 -0.028844 -0.043523)
 35:    588.72   0.003910   19.76  0.002073  ( 0.016539  0.014073  0.040015)
 36:    633.21   0.000682    3.44  0.000336  (-0.012963 -0.000704 -0.012936)
 37:    655.30   0.007091   35.84  0.003377  (-0.042824 -0.004708 -0.038999)
 38:    713.33   0.011057   55.88  0.004837  (-0.048954  0.013539 -0.047513)
 39:    734.59   0.008927   45.12  0.003792  ( 0.043309 -0.002079  0.043732)
 40:    772.61   0.002097   10.60  0.000847  (-0.023054  0.006591 -0.016501)
 41:    785.20   0.027154  137.22  0.010792  (-0.052412  0.044660  0.077783)
 42:    820.90   0.001385    7.00  0.000526  (-0.019912  0.001287 -0.011325)
 43:    821.86   0.000473    2.39  0.000180  ( 0.009844 -0.008892  0.001923)
 44:    822.15   0.000117    0.59  0.000045  ( 0.002042  0.004976 -0.003948)
 45:    861.70   0.002305   11.65  0.000835  ( 0.024444  0.004203  0.014822)
 46:    863.37   0.004571   23.10  0.001652  (-0.026767 -0.006208 -0.029952)
 47:    871.54   0.004905   24.79  0.001756  ( 0.018248 -0.014745 -0.034728)
 48:    880.05   0.000124    0.63  0.000044  ( 0.001820  0.006304 -0.000900)
 49:    887.64   0.002995   15.13  0.001053  ( 0.002503 -0.012000 -0.030042)
 50:    913.99   0.002521   12.74  0.000861  (-0.010563 -0.004789 -0.026950)
 51:    945.29   0.001472    7.44  0.000486  (-0.013261  0.002084  0.017482)
 52:    960.51   0.001945    9.83  0.000632  ( 0.023865  0.006438  0.004558)
 53:    979.05   0.000304    1.53  0.000097  ( 0.003889  0.007738 -0.004665)
 54:    994.18   0.000055    0.28  0.000017  ( 0.002265  0.003202  0.001413)
 55:   1012.44   0.000005    0.02  0.000001  ( 0.000957 -0.000165  0.000743)
 56:   1025.35   0.000158    0.80  0.000048  ( 0.002666 -0.005396 -0.003423)
 57:   1048.33   0.000967    4.89  0.000288  ( 0.010853 -0.002160 -0.012858)
 58:   1050.20   0.002383   12.04  0.000708  (-0.000717  0.024781  0.009668)
 59:   1059.71   0.001077    5.44  0.000317  ( 0.006582  0.015749 -0.005092)
 60:   1064.45   0.004503   22.76  0.001320  ( 0.000325 -0.010696 -0.034724)
 61:   1086.57   0.004606   23.28  0.001323  ( 0.027842  0.003916 -0.023072)
 62:   1119.11   0.003111   15.72  0.000867  (-0.008109 -0.014803 -0.024136)
 63:   1125.84   0.007183   36.30  0.001991  (-0.015727 -0.039815  0.012586)
 64:   1131.54   0.000108    0.55  0.000030  ( 0.002865 -0.004587 -0.000805)
 65:   1138.11   0.000411    2.08  0.000113  ( 0.003478  0.000453  0.010022)
 66:   1166.51   0.000595    3.01  0.000159  (-0.001296  0.008555  0.009186)
 67:   1168.50   0.001239    6.26  0.000331  (-0.005818  0.005658  0.016282)
 68:   1177.48   0.000298    1.50  0.000079  (-0.003645 -0.007969  0.001456)
 69:   1177.64   0.002751   13.90  0.000729  ( 0.009656  0.024070 -0.007517)
 70:   1203.61   0.000107    0.54  0.000028  (-0.000917 -0.005102  0.000914)
 71:   1269.45   0.005242   26.49  0.001289  ( 0.014257 -0.032459  0.005637)
 72:   1280.94   0.001041    5.26  0.000254  ( 0.009705  0.002761  0.012320)
 73:   1289.17   0.000264    1.34  0.000064  ( 0.001627  0.007518 -0.002188)
 74:   1307.67   0.001082    5.47  0.000258  ( 0.007495 -0.008513 -0.011381)
 75:   1328.03   0.000127    0.64  0.000030  ( 0.004739  0.002665  0.000515)
 76:   1342.84   0.006267   31.67  0.001456  (-0.015330 -0.033375  0.010371)
 77:   1361.86   0.000440    2.22  0.000101  ( 0.003538  0.009339 -0.001062)
 78:   1361.94   0.000402    2.03  0.000092  (-0.004526 -0.000556  0.008450)
 79:   1373.01   0.000189    0.96  0.000043  ( 0.001785  0.005777 -0.002534)
 80:   1376.60   0.000123    0.62  0.000028  (-0.002064  0.001236 -0.004695)
 81:   1394.58   0.019641   99.26  0.004395  ( 0.032827  0.032580  0.047497)
 82:   1416.13   0.000958    4.84  0.000211  ( 0.010131 -0.001445  0.010317)
 83:   1421.52   0.022294  112.67  0.004894  (-0.013005 -0.014125 -0.067272)
 84:   1467.08   0.001340    6.77  0.000285  ( 0.007363  0.015087  0.001760)
 85:   1474.56   0.002737   13.83  0.000579  (-0.005030 -0.000085  0.023537)
 86:   1474.71   0.003099   15.66  0.000656  (-0.023445  0.006797  0.007746)
 87:   1482.31   0.002537   12.82  0.000534  ( 0.009256  0.011509 -0.017777)
 88:   1487.15   0.000770    3.89  0.000161  (-0.007002  0.010419  0.001974)
 89:   1489.31   0.001179    5.96  0.000247  (-0.013730  0.004191 -0.006393)
 90:   1491.35   0.002587   13.08  0.000541  (-0.019207 -0.009332 -0.009241)
 91:   1498.00   0.000037    0.19  0.000008  ( 0.000337 -0.001895 -0.002007)
 92:   1506.95   0.000784    3.96  0.000162  (-0.007529  0.001866 -0.010113)
 93:   1531.84   0.002741   13.85  0.000558  (-0.008523  0.021689  0.003907)
 94:   1557.05   0.129829  656.10  0.026020  (-0.130264 -0.019016  0.093220)
 95:   1609.33   0.031939  161.41  0.006193  (-0.012159 -0.023939 -0.073976)
 96:   1621.67   0.000364    1.84  0.000070  (-0.008119 -0.001629  0.001240)
 97:   1640.51   0.000043    0.21  0.000008  (-0.000312 -0.002815 -0.000256)
 98:   2311.08   0.000687    3.47  0.000093  (-0.009530 -0.000846  0.001130)
 99:   2910.36   0.034269  173.18  0.003674  ( 0.007715  0.004879 -0.059926)
100:   2941.12   0.029875  150.97  0.003170  (-0.010427 -0.031116 -0.045748)
101:   3015.29   0.006685   33.78  0.000692  (-0.022844  0.012657  0.003121)
102:   3016.49   0.009052   45.74  0.000936  ( 0.011632  0.021003 -0.018974)
103:   3017.24   0.014057   71.04  0.001454  ( 0.004225  0.016912  0.033912)
104:   3055.39   0.021609  109.20  0.002207  (-0.038137  0.027428 -0.000546)
105:   3058.73   0.015537   78.52  0.001585  ( 0.020861  0.033821 -0.002484)
106:   3058.82   0.001167    5.90  0.000119  ( 0.007623 -0.006378  0.004501)
107:   3063.18   0.015551   78.59  0.001584  (-0.005761 -0.025456  0.030051)
108:   3064.40   0.030528  154.28  0.003109  (-0.005936 -0.030883 -0.046041)
109:   3072.69   0.013038   65.89  0.001324  (-0.024162 -0.008633  0.025803)
110:   3127.61   0.003700   18.70  0.000369  (-0.003340  0.014332  0.012352)
111:   3145.13   0.001525    7.71  0.000151  ( 0.012256 -0.000890 -0.000558)
112:   3172.04   0.000097    0.49  0.000010  (-0.001767  0.001420  0.002107)
113:   3177.81   0.000421    2.13  0.000041  (-0.000025 -0.006433  0.000077)
114:   3185.49   0.003348   16.92  0.000328  (-0.011619  0.007039  0.011975)
115:   3194.71   0.003141   15.88  0.000307  (-0.005101 -0.016550  0.002634)
116:   3203.46   0.001732    8.75  0.000169  ( 0.009312  0.002992 -0.008548)
117:   3519.66   0.008813   44.54  0.000781  ( 0.021178 -0.000311  0.018243)
118:   3759.20   0.008243   41.66  0.000684  ( 0.004039  0.010400  0.023661)
119:   3839.06   0.025107  126.88  0.002041  (-0.015194  0.042228 -0.005175)

* The epsilon (eps) is given for a Dirac delta lineshape.
** The dipole moment derivative (T) already includes vibrational overlap.

The first frequency considered to be a vibration is 6
The total number of vibrations considered is 114


--------------------------
THERMOCHEMISTRY AT 298.15K
--------------------------

Temperature         ... 298.15 K
Pressure            ... 1.00 atm
Total Mass          ... 255.32 AMU

Throughout the following assumptions are being made:
  (1) The electronic state is orbitally nondegenerate
  (2) There are no thermally accessible electronically excited states
  (3) Hindered rotations indicated by low frequency modes are not
      treated as such but are treated as vibrations and this may
      cause some error
  (4) All equations used are the standard statistical mechanics
      equations for an ideal gas
  (5) All vibrations are strictly harmonic

freq.      16.34  E(vib)   ...       0.57 
freq.      26.31  E(vib)   ...       0.56 
freq.      31.41  E(vib)   ...       0.55 
freq.      32.91  E(vib)   ...       0.55 
freq.      45.76  E(vib)   ...       0.53 
freq.      49.50  E(vib)   ...       0.52 
freq.      55.29  E(vib)   ...       0.52 
freq.      60.57  E(vib)   ...       0.51 
freq.      64.39  E(vib)   ...       0.51 
freq.      75.95  E(vib)   ...       0.49 
freq.      87.65  E(vib)   ...       0.48 
freq.     100.81  E(vib)   ...       0.46 
freq.     105.69  E(vib)   ...       0.45 
freq.     179.09  E(vib)   ...       0.37 
freq.     220.24  E(vib)   ...       0.33 
freq.     233.01  E(vib)   ...       0.32 
freq.     251.95  E(vib)   ...       0.30 
freq.     260.74  E(vib)   ...       0.30 
freq.     263.85  E(vib)   ...       0.29 
freq.     275.05  E(vib)   ...       0.28 
freq.     293.14  E(vib)   ...       0.27 
freq.     372.09  E(vib)   ...       0.21 
freq.     412.96  E(vib)   ...       0.19 
freq.     417.22  E(vib)   ...       0.18 
freq.     437.66  E(vib)   ...       0.17 
freq.     444.98  E(vib)   ...       0.17 
freq.     456.50  E(vib)   ...       0.16 
freq.     498.02  E(vib)   ...       0.14 
freq.     558.66  E(vib)   ...       0.12 
freq.     588.72  E(vib)   ...       0.10 
freq.     633.21  E(vib)   ...       0.09 
freq.     655.30  E(vib)   ...       0.08 
freq.     713.33  E(vib)   ...       0.07 
freq.     734.59  E(vib)   ...       0.06 
freq.     772.61  E(vib)   ...       0.05 
freq.     785.20  E(vib)   ...       0.05 
freq.     820.90  E(vib)   ...       0.05 
freq.     821.86  E(vib)   ...       0.05 
freq.     822.15  E(vib)   ...       0.05 
freq.     861.70  E(vib)   ...       0.04 
freq.     863.37  E(vib)   ...       0.04 
freq.     871.54  E(vib)   ...       0.04 
freq.     880.05  E(vib)   ...       0.04 
freq.     887.64  E(vib)   ...       0.04 
freq.     913.99  E(vib)   ...       0.03 
freq.     945.29  E(vib)   ...       0.03 
freq.     960.51  E(vib)   ...       0.03 
freq.     979.05  E(vib)   ...       0.03 
freq.     994.18  E(vib)   ...       0.02 
freq.    1012.44  E(vib)   ...       0.02 
freq.    1025.35  E(vib)   ...       0.02 
freq.    1048.33  E(vib)   ...       0.02 
freq.    1050.20  E(vib)   ...       0.02 
freq.    1059.71  E(vib)   ...       0.02 
freq.    1064.45  E(vib)   ...       0.02 
freq.    1086.57  E(vib)   ...       0.02 
freq.    1119.11  E(vib)   ...       0.01 
freq.    1125.84  E(vib)   ...       0.01 
freq.    1131.54  E(vib)   ...       0.01 
freq.    1138.11  E(vib)   ...       0.01 
freq.    1166.51  E(vib)   ...       0.01 
freq.    1168.50  E(vib)   ...       0.01 
freq.    1177.48  E(vib)   ...       0.01 
freq.    1177.64  E(vib)   ...       0.01 
freq.    1203.61  E(vib)   ...       0.01 
freq.    1269.45  E(vib)   ...       0.01 
freq.    1280.94  E(vib)   ...       0.01 
freq.    1289.17  E(vib)   ...       0.01 
freq.    1307.67  E(vib)   ...       0.01 
freq.    1328.03  E(vib)   ...       0.01 
freq.    1342.84  E(vib)   ...       0.01 
freq.    1361.86  E(vib)   ...       0.01 
freq.    1361.94  E(vib)   ...       0.01 
freq.    1373.01  E(vib)   ...       0.01 
freq.    1376.60  E(vib)   ...       0.01 
freq.    1394.58  E(vib)   ...       0.00 
freq.    1416.13  E(vib)   ...       0.00 
freq.    1421.52  E(vib)   ...       0.00 
freq.    1467.08  E(vib)   ...       0.00 
freq.    1474.56  E(vib)   ...       0.00 
freq.    1474.71  E(vib)   ...       0.00 
freq.    1482.31  E(vib)   ...       0.00 
freq.    1487.15  E(vib)   ...       0.00 
freq.    1489.31  E(vib)   ...       0.00 
freq.    1491.35  E(vib)   ...       0.00 
freq.    1498.00  E(vib)   ...       0.00 
freq.    1506.95  E(vib)   ...       0.00 
freq.    1531.84  E(vib)   ...       0.00 
freq.    1557.05  E(vib)   ...       0.00 
freq.    1609.33  E(vib)   ...       0.00 
freq.    1621.67  E(vib)   ...       0.00 
freq.    1640.51  E(vib)   ...       0.00 
freq.    2311.08  E(vib)   ...       0.00 
freq.    2910.36  E(vib)   ...       0.00 
freq.    2941.12  E(vib)   ...       0.00 
freq.    3015.29  E(vib)   ...       0.00 
freq.    3016.49  E(vib)   ...       0.00 
freq.    3017.24  E(vib)   ...       0.00 
freq.    3055.39  E(vib)   ...       0.00 
freq.    3058.73  E(vib)   ...       0.00 
freq.    3058.82  E(vib)   ...       0.00 
freq.    3063.18  E(vib)   ...       0.00 
freq.    3064.40  E(vib)   ...       0.00 
freq.    3072.69  E(vib)   ...       0.00 
freq.    3127.61  E(vib)   ...       0.00 
freq.    3145.13  E(vib)   ...       0.00 
freq.    3172.04  E(vib)   ...       0.00 
freq.    3177.81  E(vib)   ...       0.00 
freq.    3185.49  E(vib)   ...       0.00 
freq.    3194.71  E(vib)   ...       0.00 
freq.    3203.46  E(vib)   ...       0.00 
freq.    3519.66  E(vib)   ...       0.00 
freq.    3759.20  E(vib)   ...       0.00 
freq.    3839.06  E(vib)   ...       0.00 

------------
INNER ENERGY
------------

The inner energy is: U= E(el) + E(ZPE) + E(vib) + E(rot) + E(trans)
    E(el)   - is the total energy from the electronic structure calculation
              = E(kin-el) + E(nuc-el) + E(el-el) + E(nuc-nuc)
    E(ZPE)  - the the zero temperature vibrational energy from the frequency calculation
    E(vib)  - the the finite temperature correction to E(ZPE) due to population
              of excited vibrational states
    E(rot)  - is the rotational thermal energy
    E(trans)- is the translational thermal energy

Summary of contributions to the inner energy U:
Electronic energy                ...   -843.64377071 Eh
Zero point energy                ...      0.33797266 Eh     212.08 kcal/mol
Thermal vibrational correction   ...      0.01886547 Eh      11.84 kcal/mol
Thermal rotational correction    ...      0.00141627 Eh       0.89 kcal/mol
Thermal translational correction ...      0.00141627 Eh       0.89 kcal/mol
-----------------------------------------------------------------------
Total thermal energy                   -843.28410004 Eh


Summary of corrections to the electronic energy:
(perhaps to be used in another calculation)
Total thermal correction                  0.02169801 Eh      13.62 kcal/mol
Non-thermal (ZPE) correction              0.33797266 Eh     212.08 kcal/mol
-----------------------------------------------------------------------
Total correction                          0.35967067 Eh     225.70 kcal/mol


--------
ENTHALPY
--------

The enthalpy is H = U + kB*T
                kB is Boltzmann's constant
Total free energy                 ...   -843.28410004 Eh 
Thermal Enthalpy correction       ...      0.00094421 Eh       0.59 kcal/mol
-----------------------------------------------------------------------
Total Enthalpy                    ...   -843.28315584 Eh


Note: Only C1 symmetry has been detected, increase convergence thresholds 
      if your molecule has a higher symmetry. Symmetry factor of 1.0 is   
      used for the rotational entropy correction. 
 

Note: Rotational entropy computed according to Herzberg 
Infrared and Raman Spectra, Chapter V,1, Van Nostrand Reinhold, 1945 
Point Group:  C1, Symmetry Number:   1  
Rotational constants in cm-1:     0.018327     0.008500     0.007219 

Vibrational entropy computed according to the QRRHO of S. Grimme
Chem.Eur.J. 2012 18 9955


-------
ENTROPY
-------

The entropy contributions are T*S = T*(S(el)+S(vib)+S(rot)+S(trans))
     S(el)   - electronic entropy
     S(vib)  - vibrational entropy
     S(rot)  - rotational entropy
     S(trans)- translational entropy
The entropies will be listed as multiplied by the temperature to get
units of energy

Electronic entropy                ...      0.00000000 Eh      0.00 kcal/mol
Vibrational entropy               ...      0.03506053 Eh     22.00 kcal/mol
Rotational entropy                ...      0.01597750 Eh     10.03 kcal/mol
Translational entropy             ...      0.02019879 Eh     12.67 kcal/mol
-----------------------------------------------------------------------
Final entropy term                ...      0.07123682 Eh     44.70 kcal/mol

In case the symmetry of your molecule has not been determined correctly
or in case you have a reason to use a different symmetry number we print 
out the resulting rotational entropy values for sn=1,12 :
 --------------------------------------------------------
|  sn= 1 | S(rot)=       0.01597750 Eh     10.03 kcal/mol|
|  sn= 2 | S(rot)=       0.01532305 Eh      9.62 kcal/mol|
|  sn= 3 | S(rot)=       0.01494021 Eh      9.38 kcal/mol|
|  sn= 4 | S(rot)=       0.01466859 Eh      9.20 kcal/mol|
|  sn= 5 | S(rot)=       0.01445790 Eh      9.07 kcal/mol|
|  sn= 6 | S(rot)=       0.01428576 Eh      8.96 kcal/mol|
|  sn= 7 | S(rot)=       0.01414021 Eh      8.87 kcal/mol|
|  sn= 8 | S(rot)=       0.01401413 Eh      8.79 kcal/mol|
|  sn= 9 | S(rot)=       0.01390292 Eh      8.72 kcal/mol|
|  sn=10 | S(rot)=       0.01380345 Eh      8.66 kcal/mol|
|  sn=11 | S(rot)=       0.01371346 Eh      8.61 kcal/mol|
|  sn=12 | S(rot)=       0.01363130 Eh      8.55 kcal/mol|
 --------------------------------------------------------


-------------------
GIBBS FREE ENERGY
-------------------

The Gibbs free energy is G = H - T*S

Total enthalpy                    ...   -843.28315584 Eh 
Total entropy correction          ...     -0.07123682 Eh    -44.70 kcal/mol
-----------------------------------------------------------------------
Final Gibbs free energy         ...   -843.35439266 Eh

For completeness - the Gibbs free energy minus the electronic energy
G-E(el)                           ...      0.28937805 Eh    181.59 kcal/mol



Timings for individual modules:

Sum of individual times         ...     4625.226 sec (=  77.087 min)
GTO integral calculation        ...       11.250 sec (=   0.188 min)   0.2 %
SCF iterations                  ...      178.768 sec (=   2.979 min)   3.9 %
SCF Gradient evaluation         ...       35.986 sec (=   0.600 min)   0.8 %
Numerical frequency calculation ...     4399.222 sec (=  73.320 min)  95.1 %
                             ****ORCA TERMINATED NORMALLY****
TOTAL RUN TIME: 0 days 1 hours 15 minutes 17 seconds 47 msec
