 *******************************************************************************
 **                                                                           **
 **                              MOPAC v22.0.6                                **
 **                                                                           **
 *******************************************************************************
 **          Digital Object Identifier (DOI): 10.5281/zenodo.6511958          **
 **    Visit the DOI location for information on how to cite this program.    **
 *******************************************************************************

                              PM7 CALCULATION RESULTS

 *******************************************************************************
 *  CALCULATION DONE:                                Sat Mar 23 14:24:45 2024  *
 *  PM7        - The PM7 Hamiltonian to be used
 *  SINGLET    - SPIN STATE DEFINED AS A SINGLET
 *
 *
 *
 *                 CHARGE ON SYSTEM = -1
 *
 *
 *
 *  EPS=78.4   - USE ANDREAS KLAMT'S COSMO IMPLICIT SOLVATION MODEL
 *  T=         - A TIME OF 14.0 DAYS REQUESTED
 *  DUMP=N     - RESTART FILE WRITTEN EVERY 30.0 MINUTES REQUESTED
 *  RELSCF     - DEFAULT SCF CRITERION MULTIPLIED BY 1.0000
 *              (DEFAULT SCF CRITERION = 0.00010)
 *  ITRY=      - DO A MAXIMUM OF 15000 ITERATIONS FOR SCF
 *  AUX        - OUTPUT AUXILIARY INFORMATION
 *  BONDS      - FINAL BOND-ORDER MATRIX TO BE PRINTED
 *******************************************************************************
PM7 BONDS AUX DUMP=30M ITRY=15000 T=14D CHARGE=-1 SINGLET eps=78.4 RELSCF=1
 Title: ASE calculation

   ATOM   CHEMICAL          X               Y               Z
  NUMBER   SYMBOL      (ANGSTROMS)     (ANGSTROMS)     (ANGSTROMS)

     1       C         -1.18440281     -0.14150689      0.01476582   
     2       H          0.93741192     -1.02871177  *  -0.48003706  *
     3       H         -1.17980690  *  -0.25491158  *   1.08238861  *
     4       H         -1.12027216  *  -1.04948791  *  -0.55573250  *
     5       N         -1.32490405  *   1.03364800  *  -0.55860860  *
     6       O         -1.43024107  *   2.09466577  *   0.12336660  *
     7       O         -1.35191638  *   1.16348966  *  -1.81640783  *
     8       C          4.84443251  *  -0.77752491  *   0.95978975  *
     9       O          5.70413310  *  -0.86139723  *   1.80919280  *
    10       O          3.57443922  *  -0.86186162  *   1.36144701  *
    11       C          5.12483641  *  -0.55541326  *  -0.49727288  *
    12      Cl          4.54346026  *   1.06148209  *  -0.90143961  *
    13       H          4.62858467  *  -1.29142213  *  -1.16396077  *
    14       H          6.21219997  *  -0.60040557  *  -0.72430076  *
    15       H          2.06779255  *  -0.34259811  *  -1.23426933  *
    16       O          1.91476650     -1.06505477     -0.60017101   
    17       H          2.85306918  *  -0.89433383  *   0.61327856  *



          CARTESIAN COORDINATES 

    NO.       ATOM           X           Y           Z

     1         C         -1.1844     -0.1415      0.0148
     2         H          0.9374     -1.0287     -0.4800
     3         H         -1.1798     -0.2549      1.0824
     4         H         -1.1203     -1.0495     -0.5557
     5         N         -1.3249      1.0336     -0.5586
     6         O         -1.4302      2.0947      0.1234
     7         O         -1.3519      1.1635     -1.8164
     8         C          4.8444     -0.7775      0.9598
     9         O          5.7041     -0.8614      1.8092
    10         O          3.5744     -0.8619      1.3614
    11         C          5.1248     -0.5554     -0.4973
    12        Cl          4.5435      1.0615     -0.9014
    13         H          4.6286     -1.2914     -1.1640
    14         H          6.2122     -0.6004     -0.7243
    15         H          2.0678     -0.3426     -1.2343
    16         O          1.9148     -1.0651     -0.6002
    17         H          2.8531     -0.8943      0.6133

 General Reference for PM7:
 "Optimization of Parameters for Semiempirical Methods VI: More Modifications to the 
 NDDO Approximations and Re-optimization of Parameters", J. J. P. Stewart, J. Mol. Mod., 1:32, 19 (2013)
 https://link.springer.com/article/10.1007/s00894-012-1667-x

           Empirical Formula: C3 H7 N O5 Cl  =    17 atoms



      MOLECULAR POINT GROUP   :   C1  


 SINGLET STATE CALCULATION


      RHF CALCULATION, NO. OF DOUBLY OCCUPIED LEVELS = 31


          Geometry optimization using EF
  SCF CRITERION =    0.1000E-03

          DIAGONAL MATRIX USED AS START HESSIAN

 CYCLE:     1 TIME:   0.070 TIME LEFT:  2.00W  GRAD.:     5.689 HEAT: -300.1243
 CYCLE:     2 TIME:   0.039 TIME LEFT:  2.00W  GRAD.:    17.543 HEAT: -300.1659
 CYCLE:     3 TIME:   0.039 TIME LEFT:  2.00W  GRAD.:    15.732 HEAT: -300.1733
 CYCLE:     4 TIME:   0.039 TIME LEFT:  2.00W  GRAD.:     8.351 HEAT: -300.2651
 CYCLE:     5 TIME:   0.027 TIME LEFT:  2.00W  GRAD.:     5.616 HEAT: -300.2871
 CYCLE:     6 TIME:   0.012 TIME LEFT:  2.00W  GRAD.:     3.863 HEAT: -300.3014
 CYCLE:     7 TIME:   0.090 TIME LEFT:  2.00W  GRAD.:     3.587 HEAT: -300.3020
 CYCLE:     8 TIME:   0.016 TIME LEFT:  2.00W  GRAD.:    12.610 HEAT: -300.3447
 CYCLE:     9 TIME:   0.043 TIME LEFT:  2.00W  GRAD.:     9.255 HEAT: -300.3680
 CYCLE:    10 TIME:   0.031 TIME LEFT:  2.00W  GRAD.:     3.379 HEAT: -300.3833
 CYCLE:    11 TIME:   0.016 TIME LEFT:  2.00W  GRAD.:     3.787 HEAT: -300.3948
 CYCLE:    12 TIME:   0.043 TIME LEFT:  2.00W  GRAD.:     2.543 HEAT: -300.3984
 CYCLE:    13 TIME:   0.012 TIME LEFT:  2.00W  GRAD.:     9.216 HEAT: -300.4273
 CYCLE:    14 TIME:   0.086 TIME LEFT:  2.00W  GRAD.:     7.227 HEAT: -300.4406
 CYCLE:    15 TIME:   0.047 TIME LEFT:  2.00W  GRAD.:     6.327 HEAT: -300.4443

     TRUST RADIUS NOW LESS THAN  0.00010 OPTIMIZATION TERMINATING
      THE GEOMETRY MAY NOT BE COMPLETELY OPTIMIZED
      (TO CONTINUE, ADD 'LET DDMIN=0.0' TO THE KEYWORD LINE)

 -------------------------------------------------------------------------------
 PM7 BONDS AUX DUMP=30M ITRY=15000 T=14D CHARGE=-1 SINGLET eps=78.4 RELSCF=1
 Title: ASE calculation



     GEOMETRY OPTIMISED USING EIGENVECTOR FOLLOWING (EF).     
     SCF FIELD WAS ACHIEVED                                   


                              PM7 CALCULATION
                                                       MOPAC v22.0.6 Linux
                                                       Sat Mar 23 14:24:46 2024




          FINAL HEAT OF FORMATION =       -300.44430 KCAL/MOL =   -1257.05894 KJ/MOL
          VAN DER WAALS AREA      =        202.25 SQUARE ANGSTROMS



          DIELECTRIC ENERGY       =         -3.38020 EV
          COSMO AREA              =        202.25 SQUARE ANGSTROMS
          COSMO VOLUME            =        190.54 CUBIC ANGSTROMS

          GRADIENT NORM           =          6.32689          =       1.53450 PER ATOM
          IONIZATION POTENTIAL    =          9.270409 EV
          HOMO LUMO ENERGIES (EV) =         -9.270 -0.358
          NO. OF FILLED LEVELS    =         31
          MOLECULAR WEIGHT        =        172.5450         POINT GROUP:  C1  

          MOLECULAR DIMENSIONS (Angstroms)

            Atom       Atom       Distance
            O     9    O     7     8.21945
            H     3    H    14     5.08198
            O     6    H     4     3.15590


          SCF CALCULATIONS        =         43

          WALL-CLOCK TIME         =      0.676 SECONDS
          COMPUTATION TIME        =     16.426 SECONDS



       FINAL  POINT  AND  DERIVATIVES

   PARAMETER     ATOM    TYPE            VALUE        GRADIENT
      1          2  H    CARTESIAN Y    -0.946324      1.126597  KCAL/ANGSTROM
      2          2  H    CARTESIAN Z    -0.402357      0.400399  KCAL/ANGSTROM
      3          3  H    CARTESIAN X    -1.159905     -0.009875  KCAL/ANGSTROM
      4          3  H    CARTESIAN Y    -0.254161     -0.015848  KCAL/ANGSTROM
      5          3  H    CARTESIAN Z     1.082356      0.043420  KCAL/ANGSTROM
      6          4  H    CARTESIAN X    -1.135492      0.493131  KCAL/ANGSTROM
      7          4  H    CARTESIAN Y    -1.050223      0.010081  KCAL/ANGSTROM
      8          4  H    CARTESIAN Z    -0.555857     -0.003072  KCAL/ANGSTROM
      9          5  N    CARTESIAN X    -1.316228      0.080804  KCAL/ANGSTROM
     10          5  N    CARTESIAN Y     1.034767     -1.237504  KCAL/ANGSTROM
     11          5  N    CARTESIAN Z    -0.557829     -0.849203  KCAL/ANGSTROM
     12          6  O    CARTESIAN X    -1.404697     -0.780987  KCAL/ANGSTROM
     13          6  O    CARTESIAN Y     2.097183      1.155185  KCAL/ANGSTROM
     14          6  O    CARTESIAN Z     0.126646      1.160531  KCAL/ANGSTROM
     15          7  O    CARTESIAN X    -1.350233      0.103938  KCAL/ANGSTROM
     16          7  O    CARTESIAN Y     1.164539     -0.353466  KCAL/ANGSTROM
     17          7  O    CARTESIAN Z    -1.815223     -0.316482  KCAL/ANGSTROM
     18          8  C    CARTESIAN X     4.863736     -2.874924  KCAL/ANGSTROM
     19          8  C    CARTESIAN Y    -0.764798     -0.098086  KCAL/ANGSTROM
     20          8  C    CARTESIAN Z     1.010867      0.593292  KCAL/ANGSTROM
     21          9  O    CARTESIAN X     5.728853      0.964652  KCAL/ANGSTROM
     22          9  O    CARTESIAN Y    -0.828791     -0.670596  KCAL/ANGSTROM
     23          9  O    CARTESIAN Z     1.855264      1.255924  KCAL/ANGSTROM
     24         10  O    CARTESIAN X     3.593133     -0.174307  KCAL/ANGSTROM
     25         10  O    CARTESIAN Y    -0.858632      0.177965  KCAL/ANGSTROM
     26         10  O    CARTESIAN Z     1.415628     -2.731955  KCAL/ANGSTROM
     27         11  C    CARTESIAN X     5.114130     -0.531538  KCAL/ANGSTROM
     28         11  C    CARTESIAN Y    -0.564360      0.393020  KCAL/ANGSTROM
     29         11  C    CARTESIAN Z    -0.456028     -1.177302  KCAL/ANGSTROM
     30         12 Cl    CARTESIAN X     4.521830      0.022064  KCAL/ANGSTROM
     31         12 Cl    CARTESIAN Y     1.046631      0.226181  KCAL/ANGSTROM
     32         12 Cl    CARTESIAN Z    -0.868096      0.016616  KCAL/ANGSTROM
     33         13  H    CARTESIAN X     4.596431     -0.073062  KCAL/ANGSTROM
     34         13  H    CARTESIAN Y    -1.311254     -0.212481  KCAL/ANGSTROM
     35         13  H    CARTESIAN Z    -1.095688     -0.277477  KCAL/ANGSTROM
     36         14  H    CARTESIAN X     6.195960      1.091655  KCAL/ANGSTROM
     37         14  H    CARTESIAN Y    -0.615795      0.114201  KCAL/ANGSTROM
     38         14  H    CARTESIAN Z    -0.708639     -0.200255  KCAL/ANGSTROM
     39         15  H    CARTESIAN X     2.064940     -1.612427  KCAL/ANGSTROM
     40         15  H    CARTESIAN Y    -0.391458      1.343770  KCAL/ANGSTROM
     41         15  H    CARTESIAN Z    -1.284544     -0.293289  KCAL/ANGSTROM
     42         17  H    CARTESIAN X     2.888736      1.854156  KCAL/ANGSTROM
     43         17  H    CARTESIAN Y    -0.898059      0.056397  KCAL/ANGSTROM
     44         17  H    CARTESIAN Z     0.668290      1.509387  KCAL/ANGSTROM




   ATOM   CHEMICAL          X               Y               Z
  NUMBER   SYMBOL      (ANGSTROMS)     (ANGSTROMS)     (ANGSTROMS)

     1       C         -1.18440281     -0.14150689      0.01476582   
     2       H          0.93741192     -0.94632417  *  -0.40235652  *
     3       H         -1.15990521  *  -0.25416062  *   1.08235557  *
     4       H         -1.13549159  *  -1.05022294  *  -0.55585743  *
     5       N         -1.31622815  *   1.03476687  *  -0.55782942  *
     6       O         -1.40469676  *   2.09718328  *   0.12664623  *
     7       O         -1.35023329  *   1.16453858  *  -1.81522270  *
     8       C          4.86373558  *  -0.76479777  *   1.01086731  *
     9       O          5.72885318  *  -0.82879109  *   1.85526433  *
    10       O          3.59313281  *  -0.85863156  *   1.41562778  *
    11       C          5.11412995  *  -0.56435985  *  -0.45602783  *
    12      Cl          4.52183044  *   1.04663098  *  -0.86809623  *
    13       H          4.59643124  *  -1.31125432  *  -1.09568831  *
    14       H          6.19595987  *  -0.61579453  *  -0.70863936  *
    15       H          2.06493983  *  -0.39145826  *  -1.28454444  *
    16       O          1.91476650     -1.06505477     -0.60017101   
    17       H          2.88873623  *  -0.89805902  *   0.66829028  *

                             CARTESIAN COORDINATES

   1    C       -1.184402810    -0.141506890     0.014765820
   2    H        0.937411920    -0.946324166    -0.402356522
   3    H       -1.159905208    -0.254160623     1.082355569
   4    H       -1.135491591    -1.050222936    -0.555857426
   5    N       -1.316228153     1.034766873    -0.557829424
   6    O       -1.404696763     2.097183285     0.126646230
   7    O       -1.350233289     1.164538579    -1.815222700
   8    C        4.863735575    -0.764797769     1.010867314
   9    O        5.728853178    -0.828791089     1.855264329
  10    O        3.593132809    -0.858631558     1.415627785
  11    C        5.114129947    -0.564359846    -0.456027835
  12   Cl        4.521830437     1.046630981    -0.868096232
  13    H        4.596431244    -1.311254323    -1.095688310
  14    H        6.195959870    -0.615794528    -0.708639359
  15    H        2.064939832    -0.391458262    -1.284544441
  16    O        1.914766500    -1.065054770    -0.600171010
  17    H        2.888736234    -0.898059020     0.668290276


           Empirical Formula: C3 H7 N O5 Cl  =    17 atoms



      MOLECULAR POINT GROUP   :   C1  


                  EIGENVALUES  
 -35.80674 -31.88624 -30.65236 -29.53560 -27.89416 -27.87463 -26.17108 -24.31257
 -21.30340 -20.89285 -18.32786 -17.99655 -17.44382 -16.98284 -16.66443 -16.46522
 -15.99965 -15.38928 -14.77858 -14.25067 -14.13436 -13.51470 -12.77143 -12.59520
 -12.19470 -11.48945 -11.28370 -11.06746 -10.91740 -10.74155  -9.27041  -0.35839
   0.94281   1.20329   1.49799   2.17669   2.54125   3.54339   4.13419   4.71108
   4.85871   5.23195   5.64556   5.79026   6.02780   6.52034   6.76212  69.13391
  69.17521  69.29314  69.50986  69.53143


              NET ATOMIC CHARGES AND DIPOLE CONTRIBUTIONS

  ATOM NO.   TYPE          CHARGE      No. of ELECS.   s-Pop       p-Pop       d-Pop       
    1          C          -0.620768        4.6208     1.06897     3.55180
    2          H           0.384965        0.6150     0.61504
    3          H           0.187654        0.8123     0.81235
    4          H           0.183108        0.8169     0.81689
    5          N           0.735249        4.2648     1.40597     2.85878
    6          O          -0.740420        6.7404     1.94637     4.79405
    7          O          -0.734305        6.7343     1.94594     4.78836
    8          C           0.692496        3.3075     1.10266     2.20484
    9          O          -0.568607        6.5686     1.87646     4.69215
   10          O          -0.594992        6.5950     1.83480     4.76019
   11          C          -0.325349        4.3253     1.12107     3.20428
   12         Cl          -0.102315        7.1023     1.98328     5.11142     0.00761
   13          H           0.220875        0.7791     0.77913
   14          H           0.212352        0.7876     0.78765
   15          H           0.375067        0.6249     0.62493
   16          O          -0.721443        6.7214     1.82240     4.89905
   17          H           0.416434        0.5836     0.58357
 DIPOLE           X         Y         Z       TOTAL
 POINT-CHG.    13.509    -7.663    -2.224    15.689
 HYBRID        -0.390     0.486    -0.188     0.651
 SUM           13.119    -7.177    -2.412    15.147


          ATOMIC ORBITAL ELECTRON POPULATIONS

     Atom    s        px        py        pz      x^2-y^2     xz        z^2       yz        xy
    1  C   1.06897   1.45684   0.95857   1.13639
    2  H   0.61504
    3  H   0.81235
    4  H   0.81689
    5  N   1.40597   0.95475   0.97738   0.92665
    6  O   1.94637   1.78765   1.34224   1.66416
    7  O   1.94594   1.78786   1.94473   1.05577
    8  C   1.10266   0.73444   0.63602   0.83438
    9  O   1.87646   1.53996   1.55309   1.59910
   10  O   1.83480   1.33208   1.83847   1.58965
   11  C   1.12107   1.20292   0.95578   1.04557
   12 Cl   1.98328   1.89571   1.27098   1.94473   0.00185   0.00046   0.00121   0.00209   0.00201
   13  H   0.77913
   14  H   0.78765
   15  H   0.62493
   16  O   1.82240   1.48899   1.71007   1.69998
   17  H   0.58357

          BONDING CONTRIBUTION OF EACH M.O.

  1.4331  1.3266  1.0655  1.0750  0.9290  1.0862  1.2149  0.7202  1.3730  1.0622
  1.5648  1.5877  1.1261  1.6140  1.1857  1.3380  1.2135  0.9498  1.3100  1.4541
  0.9675  1.8525  0.2240  0.5988  0.3207  0.2598  0.4548  0.4228  0.4004  0.2363
  0.8983 -1.9847 -1.8508 -2.5141 -2.1647 -2.1584 -1.9250 -1.7989 -1.8550 -1.9185
 -1.9168 -1.8781 -1.7717 -1.7203 -1.8872 -1.9596 -1.9369 -0.0042 -0.0106 -0.0066
 -0.0013 -0.0021





            (VALENCIES)   BOND ORDERS

     1  C     (3.690)     5  N 1.465     3  H 0.951     4  H 0.949     7  O 0.156     6  O 0.154     2  H 0.010

     2  H     (0.852)    16  O 0.832     1  C 0.010

     3  H     (0.965)     1  C 0.951     7  O 0.011

     4  H     (0.966)     1  C 0.949     6  O 0.011

     5  N     (3.822)     1  C 1.465     7  O 1.179     6  O 1.173

     6  O     (1.482)     5  N 1.173     1  C 0.154     7  O 0.143     4  H 0.011

     7  O     (1.490)     5  N 1.179     1  C 0.156     6  O 0.143     3  H 0.011

     8  C     (3.740)     9  O 1.714    10  O 1.053    11  C 0.945    12 Cl 0.017

     9  O     (1.938)     8  C 1.714    10  O 0.138    11  C 0.048    17  H 0.016    12 Cl 0.015

    10  O     (2.011)     8  C 1.053    17  H 0.731     9  O 0.138    11  C 0.045    16  O 0.027

    11  C     (3.892)    12 Cl 0.977     8  C 0.945    14  H 0.941    13  H 0.934     9  O 0.048    10  O 0.045

    12 Cl     (1.026)    11  C 0.977     8  C 0.017     9  O 0.015

    13  H     (0.951)    11  C 0.934

    14  H     (0.955)    11  C 0.941

    15  H     (0.859)    16  O 0.853

    16  O     (1.800)    15  H 0.853     2  H 0.832    17  H 0.075    10  O 0.027

    17  H     (0.827)    10  O 0.731    16  O 0.075     9  O 0.016


 **********************
 *                    *
 * JOB ENDED NORMALLY *
 *                    *
 **********************



 TOTAL JOB TIME:             0.68 SECONDS

 == MOPAC DONE ==
