 *******************************************************************************
 **                                                                           **
 **                              MOPAC v22.0.6                                **
 **                                                                           **
 *******************************************************************************
 **          Digital Object Identifier (DOI): 10.5281/zenodo.6511958          **
 **    Visit the DOI location for information on how to cite this program.    **
 *******************************************************************************

                              PM7 CALCULATION RESULTS

 *******************************************************************************
 *  CALCULATION DONE:                                Sat Mar 23 14:24:48 2024  *
 *  PM7        - The PM7 Hamiltonian to be used
 *  SINGLET    - SPIN STATE DEFINED AS A SINGLET
 *
 *
 *
 *                 CHARGE ON SYSTEM = -1
 *
 *
 *
 *  EPS=78.4   - USE ANDREAS KLAMT'S COSMO IMPLICIT SOLVATION MODEL
 *  LET        - OVERRIDE SOME SAFETY CHECKS
 *  T=         - A TIME OF 14.0 DAYS REQUESTED
 *  DUMP=N     - RESTART FILE WRITTEN EVERY 30.0 MINUTES REQUESTED
 *  RELSCF     - DEFAULT SCF CRITERION MULTIPLIED BY 1.0000
 *              (DEFAULT SCF CRITERION = 0.00010)
 *  ITRY=      - DO A MAXIMUM OF 15000 ITERATIONS FOR SCF
 *  AUX        - OUTPUT AUXILIARY INFORMATION
 *  ISOTOPE    - SAVE THE FORCE MATRIX FOR USE LATER
 *  BONDS      - FINAL BOND-ORDER MATRIX TO BE PRINTED
 *  LARGE      - EXPANDED OUTPUT TO BE PRINTED
 *  THERMO     - THERMODYNAMIC QUANTITIES TO BE CALCULATED
 *******************************************************************************
PM7 AUX LARGE THERMO(298,298) LET ISOTOPE BONDS DUMP=30M ITRY=15000 T=14D CHARGE=-1 SINGLET eps=78.4 RELSCF=1
 Title: ASE calculation

   ATOM   CHEMICAL          X               Y               Z
  NUMBER   SYMBOL      (ANGSTROMS)     (ANGSTROMS)     (ANGSTROMS)

     1       C         -1.18440281  *  -0.14150689  *   0.01476582  *
     2       D          0.93741192  *  -0.94632417  *  -0.40235652  *
     3       H         -1.15990521  *  -0.25416062  *   1.08235557  *
     4       H         -1.13549159  *  -1.05022294  *  -0.55585743  *
     5       N         -1.31622815  *   1.03476687  *  -0.55782942  *
     6       O         -1.40469676  *   2.09718328  *   0.12664623  *
     7       O         -1.35023329  *   1.16453858  *  -1.81522270  *
     8       C          4.86373557  *  -0.76479777  *   1.01086731  *
     9       O          5.72885318  *  -0.82879109  *   1.85526433  *
    10       O          3.59313281  *  -0.85863156  *   1.41562779  *
    11       C          5.11412995  *  -0.56435985  *  -0.45602783  *
    12      Cl          4.52183044  *   1.04663098  *  -0.86809623  *
    13       H          4.59643124  *  -1.31125432  *  -1.09568831  *
    14       H          6.19595987  *  -0.61579453  *  -0.70863936  *
    15       H          2.06493983  *  -0.39145826  *  -1.28454444  *
    16       O          1.91476650  *  -1.06505477  *  -0.60017101  *
    17       H          2.88873623  *  -0.89805902  *   0.66829028  *


                                Isotopes Used

              Atom:    2  H  Default mass  1.0079,  mass used:  2.0140 amu


          CARTESIAN COORDINATES 

    NO.       ATOM           X           Y           Z

     1         C         -1.1844     -0.1415      0.0148
     2         H          0.9374     -0.9463     -0.4024
     3         H         -1.1599     -0.2542      1.0824
     4         H         -1.1355     -1.0502     -0.5559
     5         N         -1.3162      1.0348     -0.5578
     6         O         -1.4047      2.0972      0.1266
     7         O         -1.3502      1.1645     -1.8152
     8         C          4.8637     -0.7648      1.0109
     9         O          5.7289     -0.8288      1.8553
    10         O          3.5931     -0.8586      1.4156
    11         C          5.1141     -0.5644     -0.4560
    12        Cl          4.5218      1.0466     -0.8681
    13         H          4.5964     -1.3113     -1.0957
    14         H          6.1960     -0.6158     -0.7086
    15         H          2.0649     -0.3915     -1.2845
    16         O          1.9148     -1.0651     -0.6002
    17         H          2.8887     -0.8981      0.6683

 General Reference for PM7:
 "Optimization of Parameters for Semiempirical Methods VI: More Modifications to the 
 NDDO Approximations and Re-optimization of Parameters", J. J. P. Stewart, J. Mol. Mod., 1:32, 19 (2013)
 https://link.springer.com/article/10.1007/s00894-012-1667-x

           Empirical Formula: C3 H7 N O5 Cl  =    17 atoms



      MOLECULAR POINT GROUP   :   C1  


 SINGLET STATE CALCULATION


      RHF CALCULATION, NO. OF DOUBLY OCCUPIED LEVELS = 31

  SCF CRITERION =    0.1000E-03


          HEAT OF FORMATION =    -300.441293 KCALS/MOLE


          CARTESIAN COORDINATE DERIVATIVES

   NUMBER  ATOM         X            Y            Z

     1       C     -1.892871    -0.271789    -1.171622
     2       H    -14.683943    -1.861545     4.559858
     3       H     -0.000807     0.053749     0.007209
     4       H      0.391286     0.081503    -0.248160
     5       N      0.639119    -0.757884     1.159277
     6       O     -1.572764     1.060828    -1.035807
     7       O      0.386790    -0.432462     0.257941
     8       C     -2.787767     0.167543     1.010684
     9       O      0.937353     1.529878     0.208150
    10       O      0.259221    -2.783666     0.186992
    11       C     -0.369232    -1.296444    -0.004471
    12      Cl     -0.074141     0.063980    -0.085596
    13       H     -0.015848    -0.278835     0.152449
    14       H      1.111687    -0.075469    -0.580996
    15       H     -1.970544    -0.721888    -0.610054
    16       O     18.225363     3.789188    -2.940012
    17       H      1.417363     1.733449    -0.865568

 DIPOLE           X         Y         Z       TOTAL
 POINT-CHG.     0.573    -0.659    10.007    10.045
 HYBRID        -0.494    -0.310    -0.289     0.651
 SUM            0.079    -0.969     9.718     9.767


          GRADIENT NORM =  25.33151



 ** GRADIENT IS VERY LARGE, BUT SINCE "LET" IS USED, CALCULATION WILL CONTINUE


                              **** WARNING ****

           GRADIENT IS VERY LARGE FOR A THERMO CALCULATION
           RESULTS ARE LIKELY TO BE INACCURATE IF THERE ARE
           ANY LOW-LYING VIBRATIONS (LESS THAN ABOUT 400CM-1)
           GRADIENT NORM SHOULD BE LESS THAN ABOUT 1.0 FOR THERMO
           TO GIVE ACCURATE RESULTS


          TIME FOR SCF CALCULATION =    0.06

          TIME FOR DERIVATIVES     =    0.03

          MOLECULAR WEIGHT =  173.55



          ROTATIONAL CONSTANTS IN CM(-1)

          A =    0.05589678   B =    0.01081697   C =    0.01004869



           PRINCIPAL MOMENTS OF INERTIA IN UNITS OF 10**(-40)*GRAM-CM**2

          A =      500.7936   B =     2587.8545   C =     2785.7102


          ORIENTATION OF MOLECULE IN FORCE CALCULATION

    NO.       ATOM         X         Y         Z

     1          C      -3.1027   -0.3022    1.5929
     2          H      -0.7954   -0.3022    1.5929
     3          H      -3.2339    0.7635    1.5929
     4          H      -2.6376   -0.7194    2.4666
     5          N      -3.5307   -1.0559    0.6041
     6          O      -4.1064   -0.5554   -0.4075
     7          O      -3.3799   -2.3114    0.6087
     8          C       2.4964    1.5897   -0.1481
     9          O       3.1617    2.5440   -0.4830
    10          O       1.2876    1.8270    0.3709
    11          C       2.9220    0.1572   -0.2950
    12         Cl       1.8899   -0.5665   -1.5307
    13          H       2.8221   -0.4288    0.6440
    14          H       3.9804    0.0647   -0.6235
    15          H       0.2074   -1.0952    0.7426
    16          O       0.1806   -0.3452    1.3602
    17          H       0.7887    1.0050    0.7336


    FIRST DERIVATIVES WILL BE USED IN THE CALCULATION OF SECOND DERIVATIVES

          ESTIMATED TIME TO COMPLETE CALCULATION =        9.56 SECONDS

    FOR POINT-GROUP C1   THERE ARE   1 UNIQUE SYMMETRY FUNCTIONS.

 STEP:   1 TIME =     0.03 SECS, INTEGRAL =      0.03 TIME LEFT:1209599.88
 STEP:   2 TIME =     0.03 SECS, INTEGRAL =      0.05 TIME LEFT:1209599.85
 STEP:   3 TIME =     0.03 SECS, INTEGRAL =      0.08 TIME LEFT:1209599.82
 STEP:   4 TIME =     0.02 SECS, INTEGRAL =      0.11 TIME LEFT:1209599.80
 STEP:   5 TIME =     0.03 SECS, INTEGRAL =      0.13 TIME LEFT:1209599.77
 STEP:   6 TIME =     0.03 SECS, INTEGRAL =      0.16 TIME LEFT:1209599.75
 STEP:   7 TIME =     0.02 SECS, INTEGRAL =      0.18 TIME LEFT:1209599.72
 STEP:   8 TIME =     0.03 SECS, INTEGRAL =      0.21 TIME LEFT:1209599.70
 STEP:   9 TIME =     0.03 SECS, INTEGRAL =      0.24 TIME LEFT:1209599.67
 STEP:  10 TIME =     0.03 SECS, INTEGRAL =      0.27 TIME LEFT:1209599.64
 STEP:  11 TIME =     0.03 SECS, INTEGRAL =      0.29 TIME LEFT:1209599.61
 STEP:  12 TIME =     0.03 SECS, INTEGRAL =      0.32 TIME LEFT:1209599.59
 STEP:  13 TIME =     0.03 SECS, INTEGRAL =      0.35 TIME LEFT:1209599.56
 STEP:  14 TIME =     0.03 SECS, INTEGRAL =      0.38 TIME LEFT:1209599.53
 STEP:  15 TIME =     0.02 SECS, INTEGRAL =      0.40 TIME LEFT:1209599.51
 STEP:  16 TIME =     0.03 SECS, INTEGRAL =      0.43 TIME LEFT:1209599.48
 STEP:  17 TIME =     0.03 SECS, INTEGRAL =      0.45 TIME LEFT:1209599.45
 STEP:  18 TIME =     0.03 SECS, INTEGRAL =      0.48 TIME LEFT:1209599.43
 STEP:  19 TIME =     0.03 SECS, INTEGRAL =      0.51 TIME LEFT:1209599.40
 STEP:  20 TIME =     0.03 SECS, INTEGRAL =      0.54 TIME LEFT:1209599.37
 STEP:  21 TIME =     0.03 SECS, INTEGRAL =      0.56 TIME LEFT:1209599.34
 STEP:  22 TIME =     0.03 SECS, INTEGRAL =      0.59 TIME LEFT:1209599.32
 STEP:  23 TIME =     0.03 SECS, INTEGRAL =      0.62 TIME LEFT:1209599.29
 STEP:  24 TIME =     0.02 SECS, INTEGRAL =      0.64 TIME LEFT:1209599.27
 STEP:  25 TIME =     0.03 SECS, INTEGRAL =      0.67 TIME LEFT:1209599.24
 STEP:  26 TIME =     0.03 SECS, INTEGRAL =      0.70 TIME LEFT:1209599.21
 STEP:  27 TIME =     0.03 SECS, INTEGRAL =      0.72 TIME LEFT:1209599.18
 STEP:  28 TIME =     0.02 SECS, INTEGRAL =      0.75 TIME LEFT:1209599.16
 STEP:  29 TIME =     0.03 SECS, INTEGRAL =      0.77 TIME LEFT:1209599.13
 STEP:  30 TIME =     0.03 SECS, INTEGRAL =      0.80 TIME LEFT:1209599.11
 STEP:  31 TIME =     0.03 SECS, INTEGRAL =      0.83 TIME LEFT:1209599.07
 STEP:  32 TIME =     0.03 SECS, INTEGRAL =      0.86 TIME LEFT:1209599.05
 STEP:  33 TIME =     0.03 SECS, INTEGRAL =      0.89 TIME LEFT:1209599.02
 STEP:  34 TIME =     0.03 SECS, INTEGRAL =      0.91 TIME LEFT:1209598.99
 STEP:  35 TIME =     0.03 SECS, INTEGRAL =      0.94 TIME LEFT:1209598.96
 STEP:  36 TIME =     0.03 SECS, INTEGRAL =      0.97 TIME LEFT:1209598.94
 STEP:  37 TIME =     0.03 SECS, INTEGRAL =      1.00 TIME LEFT:1209598.91
 STEP:  38 TIME =     0.02 SECS, INTEGRAL =      1.02 TIME LEFT:1209598.89
 STEP:  39 TIME =     0.03 SECS, INTEGRAL =      1.05 TIME LEFT:1209598.86
 STEP:  40 TIME =     0.03 SECS, INTEGRAL =      1.07 TIME LEFT:1209598.83
 STEP:  41 TIME =     0.03 SECS, INTEGRAL =      1.10 TIME LEFT:1209598.80
 STEP:  42 TIME =     0.03 SECS, INTEGRAL =      1.13 TIME LEFT:1209598.78
 STEP:  43 TIME =     0.03 SECS, INTEGRAL =      1.16 TIME LEFT:1209598.75
 STEP:  44 TIME =     0.03 SECS, INTEGRAL =      1.18 TIME LEFT:1209598.72
 STEP:  45 TIME =     0.02 SECS, INTEGRAL =      1.21 TIME LEFT:1209598.70
 STEP:  46 TIME =     0.03 SECS, INTEGRAL =      1.23 TIME LEFT:1209598.67
 STEP:  47 TIME =     0.03 SECS, INTEGRAL =      1.26 TIME LEFT:1209598.64
 STEP:  48 TIME =     0.03 SECS, INTEGRAL =      1.29 TIME LEFT:1209598.62
 STEP:  49 TIME =     0.03 SECS, INTEGRAL =      1.32 TIME LEFT:1209598.59
 STEP:  50 TIME =     0.03 SECS, INTEGRAL =      1.34 TIME LEFT:1209598.56
 STEP:  51 TIME =     0.02 SECS, INTEGRAL =      1.37 TIME LEFT:1209598.54

(To convert to Hartree/Bohr^2, multiply by (10^(-21) x N x a0^2)/(4.184 x 627.51) =  0.0642)


           FORCE MATRIX IN MILLIDYNES/ANGSTROM


                  C  1       H  2       H  3       H  4       N  5       O  6
 ------------------------------------------------------------------------------
     C    1  14.819627
     H    2   0.132452   3.900939
     H    3   3.423730   0.028590   4.310684
     H    4   3.430418   0.048570   0.429043   4.305059
     N    5   7.921784   0.219607   1.075921   1.066875  19.762169
     O    6   1.995069   0.091424   0.114062   0.171877   7.183934   9.845686
     O    7   1.980932   0.082715   0.178288   0.104010   7.291389   2.086901
     C    8   0.017098   0.059997   0.002091   0.003138   0.010546   0.005231
     O    9   0.003464   0.023493   0.001178   0.000591   0.003241   0.002491
     O   10   0.024335   0.079692   0.005126   0.004890   0.012492   0.006675
     C   11   0.004375   0.012444   0.000928   0.000953   0.007110   0.003862
    Cl   12   0.008110   0.015512   0.001177   0.001704   0.014449   0.004327
     H   13   0.002776   0.009121   0.000532   0.000912   0.003575   0.002443
     H   14   0.001388   0.002882   0.000350   0.000333   0.002691   0.001809
     H   15   0.031081   0.774794   0.004700   0.008454   0.034725   0.014581
     O   16   0.152895   3.517647   0.011060   0.011442   0.119351   0.046415
     H   17   0.041879   0.176728   0.007845   0.007987   0.032296   0.013860


                  O  7       C  8       O  9       O 10       C 11      Cl 12
 ------------------------------------------------------------------------------
     O    7   9.984033
     C    8   0.008101  17.426067
     O    9   0.002188  11.231120  13.550906
     O   10   0.004530   5.022123   2.335521   9.002769
     C   11   0.003599   3.158145   1.126114   0.948321  10.061561
    Cl   12   0.008449   0.636157   0.067476   0.053314   2.433955   3.853525
     H   13   0.001820   0.743309   0.070399   0.050428   3.190928   0.594748
     H   14   0.001662   0.739634   0.045240   0.070637   3.206786   0.601371
     H   15   0.012959   0.052382   0.018617   0.060371   0.016458   0.028078
     O   16   0.043978   0.289459   0.115846   0.601725   0.049137   0.021165
     H   17   0.011574   1.395710   0.328982   2.825249   0.072292   0.024989


                  H 13       H 14       H 15       O 16       H 17
 ------------------------------------------------------------------
     H   13   3.969790
     H   14   0.431745   4.007289
     H   15   0.012640   0.009914   4.281723
     O   16   0.024083   0.012413   3.865414   6.090846
     H   17   0.039162   0.017704   0.162163   0.386214   3.210832


          HEAT OF FORMATION =    -300.441293 KCALS/MOLE


          TRIVIAL VIBRATIONS, SHOULD BE ZERO

 -25.9564=TX  13.8964=TY -37.4533=TZ  -2.8680=RX  25.4350=RY  26.9324=RZ


      MOLECULAR POINT GROUP   :   C1  


           EIGENVECTORS  


   Root No.       1         2         3         4         5         6         7         8

                 1 A       2 A       3 A       4 A       5 A       6 A       7 A       8 A   

                  -0.0      -0.0      -0.0      -0.0      -0.0      -0.0      -0.0       0.0
  
           1   -0.0444   -0.0224    0.0179    0.1198    0.0424   -0.0053   -0.0687    0.1902
           2    0.0287   -0.0207   -0.0628   -0.0955    0.0838   -0.1706    0.0895    0.0432
           3    0.0489    0.0742   -0.0027    0.0565   -0.0444    0.0696    0.1387   -0.1535
           4   -0.1560   -0.0052   -0.0385    0.0831   -0.0131   -0.0828   -0.0354    0.1537
           5   -0.3394    0.0660   -0.0216    0.0390   -0.0836    0.2915   -0.1206   -0.0126
           6   -0.4310    0.0230    0.0080    0.0558    0.0270   -0.0388    0.0312    0.3649
           7   -0.0297   -0.0216    0.2252    0.3999    0.2596    0.0037   -0.2332    0.1615
           8    0.0304   -0.0206   -0.0369   -0.0602    0.1102   -0.1697    0.0689    0.0403
           9    0.0567    0.1066    0.0350    0.0562   -0.3182    0.1420    0.2212   -0.1108
          10   -0.0647   -0.0106   -0.1397   -0.0385   -0.2152   -0.1390   -0.2115    0.2942
          11    0.0144   -0.0461   -0.1965   -0.2260    0.1920   -0.2532    0.0707    0.0313
          12    0.0531    0.0555    0.0162    0.0769    0.1442    0.1008    0.2050   -0.2130
          13   -0.0477   -0.0349   -0.0417   -0.0231    0.0948    0.1345    0.2828    0.1101
          14    0.0452    0.0086    0.0706    0.0281   -0.0579   -0.0825    0.1300    0.0593
          15    0.0367    0.0575   -0.0793    0.0238    0.0406   -0.0594   -0.0442   -0.1316
          16   -0.0026   -0.0463    0.1741    0.1832    0.4147    0.2868    0.4420   -0.0386
          17    0.0712    0.0389    0.2406    0.1947   -0.1710    0.0088    0.1511    0.0674
          18    0.0241    0.0788   -0.1178   -0.0108   -0.1974   -0.0994   -0.1241   -0.0425
          19   -0.0695   -0.0283   -0.3050   -0.3707   -0.1943    0.0973    0.4427    0.1470
          20    0.0435    0.0090    0.0396   -0.0134   -0.0909   -0.0867    0.1484    0.0640
          21    0.0242    0.0146   -0.1200    0.0268    0.3701   -0.1296   -0.1230   -0.1786
          22   -0.0056    0.0589   -0.0648   -0.0783   -0.0113    0.1030   -0.1184   -0.1407
          23    0.0140    0.0036    0.0131    0.0162    0.0130   -0.0133   -0.0329   -0.0255
          24   -0.0068    0.0356   -0.0638   -0.0835    0.1094   -0.0178   -0.0536   -0.0070
          25    0.0381    0.2188   -0.1614   -0.1035    0.0259    0.2658   -0.1917   -0.0976
          26   -0.0002    0.0664    0.0526    0.0060    0.0426   -0.1193    0.0071   -0.0162
          27    0.0437    0.5378   -0.1454   -0.1617    0.2686    0.0046   -0.0840    0.1074
          28   -0.0355   -0.1993   -0.0449   -0.1054   -0.0303    0.1220   -0.1303   -0.1992
          29    0.0462   -0.0780   -0.0553    0.0168   -0.0258    0.1749   -0.1019   -0.0384
          30   -0.0829   -0.5215    0.0083   -0.1479    0.0856   -0.0533   -0.0483   -0.1313
          31   -0.0438    0.0952    0.0681   -0.0347   -0.0542   -0.1199   -0.0212   -0.1660
          32    0.0023    0.0207    0.0477    0.0113    0.0211   -0.0805   -0.0074   -0.0289
          33    0.0051   -0.0057   -0.0125    0.0834   -0.0863   -0.0158   -0.0115   -0.0350
          34    0.0029    0.0631   -0.1488    0.3014   -0.1548   -0.2901    0.0981   -0.1848
          35    0.0542   -0.0489   -0.2766    0.0107    0.1969    0.0462   -0.0798    0.0200
          36   -0.0608    0.0595    0.3615   -0.1988   -0.1056    0.0517   -0.0690   -0.0472
          37   -0.1124    0.1579    0.4134   -0.3256   -0.0081   -0.1563   -0.0464   -0.1868
          38   -0.0056    0.0376    0.1673    0.0222   -0.0871   -0.0427   -0.0079   -0.0419
          39   -0.0071    0.0161    0.1003    0.0579   -0.1484    0.0046   -0.0148   -0.0439
          40   -0.0258    0.0790   -0.0081    0.0597   -0.0786   -0.1512    0.0057   -0.1679
          41   -0.0302    0.0466    0.1430   -0.0026    0.0314   -0.2449    0.0544   -0.0511
          42    0.0712   -0.0559   -0.2882    0.3953   -0.1662   -0.0716    0.0580   -0.0302
          43    0.6952   -0.1180    0.0618   -0.0575   -0.0304   -0.0157   -0.0866    0.1124
          44   -0.1170   -0.0501   -0.0447    0.0368   -0.0533    0.2126   -0.1181   -0.0769
          45    0.2824    0.0159    0.1469   -0.0993   -0.0206    0.1181   -0.0323    0.3701
          46   -0.0453   -0.0262   -0.0160    0.0607   -0.0176   -0.0682   -0.0467    0.1388
          47    0.0677    0.0217   -0.0107    0.0005   -0.0745    0.2798   -0.1299   -0.0033
          48    0.0123   -0.0637    0.1012   -0.0447    0.0067    0.0301   -0.0157    0.2854
          49   -0.0534   -0.1601    0.0082   -0.0706   -0.0295    0.0152   -0.0811   -0.1263
          50    0.0745   -0.0549   -0.0692    0.0155   -0.0471    0.2496   -0.1215   -0.0306
          51   -0.0696   -0.4282    0.0522   -0.0860    0.0350   -0.0358   -0.0334   -0.0031


   Root No.       9        10        11        12        13        14        15        16

                 9 A      10 A      11 A      12 A      13 A      14 A      15 A      16 A   

                   0.0       0.1       0.1       0.2       0.3       0.3       0.4       0.5
  
           1   -0.2622   -0.1524   -0.0440   -0.0436    0.0113   -0.0083   -0.0010   -0.0032
           2   -0.0473    0.0135   -0.0010    0.0031    0.0063    0.0009   -0.0028    0.0027
           3    0.0155    0.0130    0.0058    0.0158   -0.0106    0.0023    0.0033    0.0016
           4    0.1236    0.4257    0.1527    0.3305   -0.0198    0.1269    0.0595   -0.0061
           5    0.0937   -0.3288    0.1963    0.5474   -0.0140    0.0282   -0.0314    0.0677
           6    0.3178    0.2698   -0.0865   -0.3559    0.0097    0.0670    0.1295   -0.2100
           7   -0.2612   -0.1572   -0.0811   -0.0753   -0.4813   -0.0007   -0.0014    0.0063
           8   -0.0476    0.0122   -0.0053   -0.0007   -0.0538    0.0018   -0.0027    0.0032
           9    0.0187   -0.0031    0.0075    0.0245    0.2409   -0.0019    0.0082    0.0055
          10   -0.3379   -0.1875   -0.0594   -0.0487    0.5152   -0.0027    0.0004   -0.0012
          11   -0.0581    0.0307    0.0078    0.0065    0.0560    0.0038   -0.0062   -0.0037
          12    0.0473    0.0352    0.0158    0.0156   -0.2529   -0.0002    0.0004   -0.0026
          13   -0.1693   -0.0771   -0.0147   -0.0225   -0.0017   -0.0050   -0.0010   -0.0017
          14   -0.0300    0.0088   -0.0101    0.0021    0.0011    0.0019    0.0042    0.0026
          15   -0.0342   -0.0098    0.0005    0.0099   -0.0001    0.0021   -0.0015    0.0013
          16   -0.0384    0.0008    0.0053    0.0051    0.3770    0.0026    0.0025   -0.0062
          17   -0.0072    0.0038   -0.0206    0.0008    0.0395    0.0027    0.0125   -0.0024
          18   -0.1015   -0.0627   -0.0169   -0.0089   -0.1965   -0.0036   -0.0001    0.0019
          19   -0.1665   -0.0683   -0.0069   -0.0322   -0.3842   -0.0094   -0.0074    0.0083
          20   -0.0313    0.0069   -0.0094   -0.0004   -0.0444    0.0003    0.0032    0.0033
          21   -0.0487   -0.0016    0.0116    0.0172    0.2023    0.0030   -0.0085    0.0022
          22    0.0968    0.0371   -0.1481   -0.0467    0.0043   -0.1254    0.0040   -0.0470
          23    0.0092    0.0630   -0.1242    0.0295   -0.0003   -0.0760   -0.0792   -0.0546
          24   -0.0746   -0.0376    0.0709    0.0480   -0.0006    0.0929    0.1388   -0.0050
          25    0.0536    0.1246   -0.1469   -0.0832    0.0058    0.0941   -0.1516    0.0050
          26    0.0407    0.0007   -0.0864    0.0494   -0.0007   -0.2197   -0.1137   -0.1162
          27   -0.0676   -0.0295    0.1552    0.0294    0.0021    0.0727   -0.2956   -0.0750
          28    0.0973    0.0113   -0.1662   -0.0286    0.0012    0.0181   -0.0041   -0.2340
          29   -0.0471    0.1581   -0.1777   -0.0547    0.0028    0.2791   -0.0161    0.0883
          30   -0.0446   -0.1087   -0.0121    0.1039   -0.0064    0.2319    0.0582   -0.4561
          31    0.1273   -0.0821   -0.0244   -0.0568    0.0021   -0.0955    0.1138    0.0245
          32    0.0256    0.0176   -0.0854    0.0230   -0.0007   -0.0603   -0.0503   -0.0388
          33   -0.1374    0.0642   -0.0146    0.0405    0.0010   -0.0366    0.2031    0.1030
          34    0.2218   -0.2018    0.0669   -0.1150    0.0030    0.2330   -0.1658   -0.0581
          35    0.1402   -0.0300   -0.1503    0.0558    0.0013   -0.3672    0.4990    0.2072
          36   -0.2819    0.1918   -0.0508    0.0627   -0.0005   -0.0940    0.0837    0.0131
          37    0.0463   -0.0871    0.0770   -0.0930   -0.0008    0.0985    0.3107    0.2032
          38   -0.0605    0.1354   -0.1667    0.0390   -0.0011   -0.2163   -0.3344   -0.2580
          39   -0.2024    0.1420   -0.0583    0.0511    0.0005   -0.1253    0.0360   -0.0254
          40    0.1565   -0.1109   -0.0149   -0.0723    0.0027   -0.0492    0.0918    0.0357
          41    0.0601   -0.1128    0.0647   -0.0202   -0.0033    0.3330   -0.0067    0.0928
          42   -0.0528    0.0170   -0.0366    0.0320    0.0031   -0.0716    0.0987    0.0650
          43    0.0533    0.1613    0.3182    0.0219   -0.0161   -0.0092    0.0542   -0.1038
          44   -0.0419    0.0053    0.5526   -0.3962    0.0049   -0.1820    0.0145   -0.1005
          45    0.3574   -0.3188   -0.2888    0.1447   -0.0027    0.0945    0.0284   -0.0486
          46    0.1020    0.3351    0.2157    0.3281   -0.0212    0.0463    0.0005    0.0598
          47    0.0414   -0.1683    0.2118   -0.0798   -0.0035    0.0703    0.1480   -0.2461
          48    0.2617   -0.0940    0.1300   -0.1997    0.0072   -0.2077   -0.1395    0.1552
          49    0.1570    0.0285   -0.1292    0.0321    0.0028   -0.3139   -0.3053    0.1185
          50   -0.0399    0.1839   -0.1960   -0.2046    0.0101    0.3995   -0.0380    0.3525
          51    0.0273   -0.0672    0.1675   -0.0308    0.0035   -0.0256   -0.3430    0.4738


   Root No.      17        18        19        20        21        22        23        24

                17 A      18 A      19 A      20 A      21 A      22 A      23 A      24 A   

                   0.6       0.8       0.9       1.1       1.3       1.3       1.4       1.4
  
           1   -0.0864    0.0048    0.0038   -0.0129   -0.0724    0.0056    0.6400   -0.0861
           2    0.1934   -0.0004    0.0016   -0.0021   -0.0983   -0.0016    0.0752   -0.0104
           3   -0.1067    0.0038   -0.0032    0.0051   -0.1141   -0.0069   -0.3281    0.0438
           4    0.0022   -0.0631   -0.0290    0.0205    0.0015   -0.0144   -0.0010    0.0197
           5   -0.0027    0.0704   -0.0524    0.0100    0.0010    0.0006   -0.0177    0.0198
           6   -0.0006   -0.2560    0.0627   -0.0100   -0.0063    0.0154    0.0006   -0.0048
           7    0.2062   -0.0054   -0.0011    0.0054    0.2967    0.0048   -0.2822    0.0374
           8    0.2003   -0.0014    0.0008   -0.0001   -0.0949   -0.0029   -0.0361    0.0048
           9    0.4298   -0.0069    0.0030   -0.0047    0.5428    0.0157    0.1744   -0.0228
          10   -0.1240    0.0035   -0.0021    0.0043    0.0106   -0.0024   -0.3106    0.0409
          11   -0.3829    0.0046   -0.0015   -0.0003    0.6077    0.0168   -0.0135    0.0031
          12   -0.3257    0.0060   -0.0011   -0.0035    0.1273    0.0051    0.1332   -0.0173
          13   -0.0711    0.0018    0.0023   -0.0036   -0.0701    0.0008    0.3191   -0.0433
          14    0.1564   -0.0011    0.0011   -0.0018   -0.0985   -0.0031    0.0336   -0.0045
          15   -0.0844    0.0042   -0.0029    0.0016   -0.1195   -0.0043   -0.1639    0.0218
          16   -0.0969   -0.0013   -0.0002    0.0017   -0.0607   -0.0029   -0.1983    0.0267
          17   -0.3223    0.0055   -0.0010   -0.0012   -0.2041   -0.0068   -0.0376    0.0043
          18   -0.2730    0.0107   -0.0021   -0.0018   -0.1918   -0.0043    0.0965   -0.0140
          19    0.1635    0.0005    0.0005    0.0023   -0.0985   -0.0041   -0.2080    0.0275
          20    0.1583   -0.0003    0.0012   -0.0014   -0.1138   -0.0036   -0.0248    0.0033
          21    0.3627    0.0005   -0.0000   -0.0018   -0.2455   -0.0037    0.0894   -0.0123
          22    0.0005    0.0466    0.0482    0.0732    0.0042   -0.1634    0.0018   -0.0181
          23    0.0008    0.0271    0.0538    0.1197   -0.0011    0.0315   -0.0174   -0.1885
          24    0.0002    0.0093   -0.0153   -0.0315    0.0051   -0.1672   -0.0148   -0.1211
          25   -0.0007    0.0934    0.1990   -0.2920   -0.0060    0.1713    0.0146    0.0871
          26    0.0013   -0.0457   -0.0768    0.4271    0.0033   -0.1236   -0.0187   -0.2060
          27   -0.0007   -0.0843   -0.0910    0.1031   -0.0025    0.0587    0.0016    0.0385
          28    0.0033    0.1062    0.0241    0.0562    0.0008   -0.0377    0.0121    0.0635
          29    0.0006    0.0987   -0.0269    0.0514   -0.0030    0.0857   -0.0151   -0.1862
          30    0.0074    0.1694   -0.1070    0.0256   -0.0017    0.0926    0.0002    0.0405
          31    0.0000   -0.0307   -0.0683    0.0884    0.0067   -0.2923    0.0391    0.2217
          32    0.0009    0.0129    0.0177    0.0855   -0.0013    0.0311    0.0004   -0.0483
          33   -0.0009    0.0068    0.0588   -0.1228    0.0063   -0.2237   -0.0348   -0.2609
          34    0.0017   -0.0218   -0.2269   -0.1369    0.0048   -0.1839   -0.0320   -0.2952
          35   -0.0010   -0.0243   -0.0859   -0.2564   -0.0004   -0.0241    0.0068    0.0789
          36   -0.0007    0.0304    0.2452    0.2410    0.0049   -0.1917    0.0228    0.1184
          37   -0.0007   -0.0485   -0.2622   -0.0028   -0.0137    0.5187   -0.0251   -0.1930
          38    0.0031   -0.0397   -0.2931   -0.3421   -0.0049    0.1695    0.0404    0.3387
          39    0.0007   -0.0279   -0.1588   -0.4237    0.0035   -0.1062   -0.0263   -0.1261
          40   -0.0000   -0.0098    0.0057    0.1872    0.0016   -0.1101    0.0702    0.4659
          41    0.0000    0.1520    0.6126   -0.2768    0.0014   -0.0406    0.0105    0.1453
          42   -0.0009    0.0177    0.1551    0.2740   -0.0148    0.5595    0.0173    0.1534
          43    0.0052   -0.0807    0.0178   -0.0013   -0.0037    0.0031   -0.0087    0.0067
          44    0.0010    0.1291    0.0242    0.0045    0.0032    0.0044   -0.0075   -0.0317
          45   -0.0013   -0.0884    0.0105   -0.0018    0.0025   -0.0002    0.0066   -0.0100
          46    0.0033    0.1431   -0.0496    0.0087    0.0022   -0.0132    0.0255    0.0111
          47   -0.0054   -0.4346    0.0973   -0.0035    0.0013    0.0009    0.0020   -0.0160
          48    0.0070    0.6221   -0.0912   -0.0013    0.0052    0.0008   -0.0040   -0.0102
          49   -0.0060   -0.1387    0.3379    0.0017   -0.0040    0.1200   -0.0565   -0.3725
          50   -0.0019    0.0472   -0.2728    0.1876    0.0023   -0.1343    0.0195    0.0934
          51   -0.0129   -0.4176   -0.0627   -0.0475   -0.0014   -0.0394    0.0294    0.1833


   Root No.      25        26        27        28        29        30        31        32

                25 A      26 A      27 A      28 A      29 A      30 A      31 A      32 A   

                   2.0       2.4       2.8       3.0       3.2       3.6       3.6       4.5
  
           1    0.0020   -0.0057   -0.0030    0.1095   -0.0499   -0.0326   -0.4261    0.0136
           2    0.0011   -0.0008   -0.0001   -0.1574   -0.1466   -0.0063   -0.0658    0.0017
           3   -0.0021    0.0045   -0.0005    0.0944   -0.1967    0.0151    0.2047   -0.0066
           4   -0.2132   -0.0470   -0.0089   -0.0057   -0.0023    0.0120    0.0309    0.0395
           5    0.4559    0.0214    0.0021    0.0055    0.0050   -0.0015   -0.0181    0.0048
           6    0.3762    0.0314    0.0047    0.0044    0.0036   -0.0046   -0.0219   -0.0101
           7    0.0021    0.0034    0.0007   -0.0392    0.0711    0.0052    0.0710   -0.0021
           8    0.0031    0.0005   -0.0012   -0.4112   -0.4567   -0.0088   -0.0441   -0.0022
           9    0.0049   -0.0006    0.0014   -0.1561    0.0502   -0.0023   -0.0353    0.0009
          10   -0.0016    0.0051   -0.0019    0.2046   -0.1835    0.0043    0.0718   -0.0025
          11    0.0007    0.0010    0.0016   -0.0181    0.2230    0.0017    0.0219   -0.0007
          12    0.0022    0.0011   -0.0026    0.4353   -0.3113   -0.0026   -0.0284    0.0014
          13    0.0367   -0.0084    0.0083   -0.1580   -0.1012    0.0544    0.6858   -0.0139
          14   -0.0010    0.0003   -0.0006    0.3057   -0.0787    0.0089    0.0917   -0.0007
          15   -0.0151    0.0031   -0.0041   -0.1520   -0.1065   -0.0306   -0.3753    0.0092
          16   -0.0118    0.0039   -0.0027   -0.1807    0.0161   -0.0203   -0.2349    0.0038
          17   -0.0075    0.0007    0.0030   -0.1021    0.4807    0.0033   -0.0013   -0.0006
          18    0.0077   -0.0027    0.0036   -0.4010    0.1095    0.0070    0.0903   -0.0027
          19   -0.0152    0.0056   -0.0019    0.0618    0.2507   -0.0158   -0.2065    0.0044
          20   -0.0070    0.0029   -0.0020    0.3817   -0.0233    0.0013   -0.0070    0.0004
          21   -0.0013   -0.0016    0.0036    0.1804    0.4541    0.0150    0.1494   -0.0028
          22    0.0267   -0.1132   -0.3519   -0.0018    0.0003    0.3113   -0.0211   -0.0331
          23   -0.0095    0.2719   -0.1394   -0.0006    0.0018   -0.0833    0.0060   -0.2880
          24   -0.0157    0.1885    0.0512   -0.0028   -0.0041    0.7534   -0.0632   -0.1264
          25   -0.0113    0.3731   -0.1906   -0.0015    0.0029   -0.1886    0.0210   -0.1535
          26    0.0170   -0.1917   -0.2773    0.0013    0.0024   -0.0915    0.0041   -0.1953
          27    0.0038   -0.2125    0.1359    0.0026    0.0016   -0.1834    0.0122    0.1122
          28    0.0117   -0.2442   -0.2921    0.0007    0.0023   -0.0575    0.0076    0.1313
          29   -0.0010    0.1283    0.3900    0.0029   -0.0023   -0.0459   -0.0105   -0.2579
          30   -0.0084    0.0031    0.1422    0.0006    0.0012   -0.1614    0.0132    0.0110
          31   -0.0064    0.0694    0.1482    0.0008    0.0003   -0.0669    0.0066   -0.0255
          32   -0.0170    0.3430   -0.0427   -0.0018    0.0007   -0.0462    0.0104    0.0585
          33    0.0065    0.0446   -0.0345    0.0002    0.0011   -0.1245    0.0096   -0.0005
          34   -0.0105    0.2000   -0.0192   -0.0016   -0.0007   -0.0927    0.0220    0.3264
          35   -0.0024    0.0018    0.0555    0.0006    0.0011   -0.1440    0.0170    0.2479
          36   -0.0083    0.2400    0.0604   -0.0011   -0.0006   -0.1284    0.0185    0.4061
          37    0.0007   -0.0354   -0.0876   -0.0004   -0.0004    0.0219    0.0032   -0.0079
          38   -0.0088    0.0288    0.0665   -0.0021   -0.0029    0.2842   -0.0167    0.1787
          39    0.0275   -0.3669   -0.0190    0.0021    0.0009   -0.1696    0.0046   -0.3544
          40   -0.0046   -0.0135    0.3459    0.0021   -0.0013   -0.0374   -0.0043   -0.4017
          41    0.0269   -0.2666   -0.1217    0.0001    0.0002    0.0400   -0.0012    0.0189
          42   -0.0019   -0.0596   -0.1123   -0.0011   -0.0007    0.0906   -0.0048    0.0687
          43    0.5028    0.0293    0.0080    0.0044    0.0042   -0.0017   -0.0106    0.0009
          44   -0.1583   -0.0347    0.0387   -0.0022   -0.0016    0.0111    0.0078    0.0265
          45   -0.2779   -0.0279    0.0080   -0.0033   -0.0032    0.0059    0.0131    0.0126
          46   -0.3272   -0.0108   -0.0156    0.0027   -0.0059   -0.0082   -0.0088   -0.0257
          47   -0.3568   -0.0347    0.0059   -0.0031   -0.0026    0.0022    0.0109   -0.0039
          48   -0.0620    0.0148   -0.0034   -0.0018   -0.0011   -0.0061    0.0065   -0.0163
          49    0.0190   -0.2115    0.4642    0.0024   -0.0027    0.1124   -0.0079    0.1459
          50    0.0645   -0.2723    0.0215    0.0010   -0.0000    0.0748   -0.0050    0.2120
          51   -0.0360    0.1407   -0.2346   -0.0008    0.0018   -0.0735    0.0069   -0.1024


   Root No.      33        34        35        36        37        38        39        40

                33 A      34 A      35 A      36 A      37 A      38 A      39 A      40 A   

                   6.0       6.7       7.1       7.7       8.5       8.6       9.3      10.3
  
           1   -0.0795    0.0187   -0.0144    0.0043    0.0120    0.0021   -0.0002   -0.2737
           2   -0.1622    0.0001    0.0003   -0.0011    0.0062    0.0007   -0.0036    0.6755
           3   -0.2240   -0.0157    0.0114   -0.0030   -0.0117   -0.0017    0.0022   -0.3975
           4   -0.0125    0.4097   -0.3834    0.2081    0.3140    0.0551    0.0306   -0.0031
           5    0.0015   -0.0051    0.0065   -0.0071   -0.0193   -0.0032   -0.0018    0.0001
           6    0.0032   -0.0948    0.0874   -0.0466   -0.0714   -0.0128   -0.0064    0.0005
           7   -0.0321   -0.0037    0.0027   -0.0010   -0.0014   -0.0002   -0.0004    0.0577
           8    0.4722    0.0068   -0.0032    0.0015   -0.0027   -0.0001    0.0015   -0.3668
           9    0.0535    0.0018   -0.0014    0.0001    0.0012    0.0003   -0.0002    0.0242
          10    0.2083    0.0022   -0.0007   -0.0001    0.0012    0.0003   -0.0010    0.1565
          11   -0.1308   -0.0047    0.0030   -0.0005   -0.0033   -0.0006    0.0008   -0.1690
          12    0.4104    0.0124   -0.0079    0.0019    0.0069    0.0012   -0.0014    0.2910
          13   -0.1120   -0.0102    0.0080   -0.0018   -0.0020   -0.0005   -0.0002    0.0239
          14   -0.2064   -0.0004   -0.0013    0.0012    0.0026    0.0005    0.0003   -0.0573
          15   -0.2743    0.0078   -0.0085    0.0030    0.0100    0.0014   -0.0003    0.0357
          16   -0.1327   -0.0030    0.0021   -0.0011   -0.0024   -0.0004   -0.0003    0.0527
          17    0.3421    0.0069   -0.0053    0.0015    0.0031    0.0004   -0.0001    0.0212
          18   -0.1757   -0.0102    0.0080   -0.0033   -0.0059   -0.0009   -0.0006    0.1067
          19    0.1415    0.0058   -0.0052    0.0016    0.0034    0.0006    0.0001   -0.0189
          20   -0.3166   -0.0093    0.0071   -0.0025   -0.0065   -0.0009    0.0002   -0.1036
          21    0.2113    0.0013   -0.0007    0.0002   -0.0015   -0.0004    0.0004   -0.0601
          22    0.0011   -0.0897   -0.0833    0.0786   -0.0069   -0.0178    0.0855    0.0019
          23   -0.0023    0.0785   -0.0706   -0.1539   -0.0067   -0.0031   -0.3406   -0.0024
          24    0.0009   -0.0142   -0.0490   -0.0990   -0.0039    0.0651    0.0029   -0.0011
          25   -0.0021    0.0924   -0.0332   -0.1045   -0.0111    0.0020   -0.1970   -0.0010
          26    0.0006   -0.0927   -0.0990    0.0520   -0.0046   -0.0559   -0.1612   -0.0004
          27    0.0012   -0.0191    0.0501    0.0692    0.0071   -0.0173    0.0830    0.0001
          28    0.0036   -0.1074    0.0770    0.1534    0.0282   -0.0802    0.3406    0.0004
          29    0.0035   -0.3717   -0.1198    0.4682   -0.0087    0.0594    0.2261    0.0025
          30   -0.0017    0.1087    0.0109   -0.1113   -0.0072    0.0208   -0.1928   -0.0007
          31   -0.0000    0.1280    0.3050    0.3413   -0.1034    0.5841   -0.2487   -0.0005
          32   -0.0026    0.3318    0.2840   -0.2277    0.0046    0.1657    0.6512    0.0026
          33   -0.0013    0.2515    0.4103    0.3172    0.0766   -0.5220   -0.0801    0.0001
          34    0.0013   -0.1741   -0.2205   -0.0940    0.0039   -0.0280   -0.0041   -0.0001
          35    0.0017   -0.1395   -0.1609   -0.0484   -0.0006   -0.0128   -0.0240   -0.0005
          36    0.0018   -0.2171   -0.2676   -0.1098   -0.0015    0.0059   -0.0101   -0.0001
          37    0.0000    0.0055    0.0120    0.0127    0.0073   -0.0591   -0.0155   -0.0002
          38    0.0010   -0.0244    0.0700    0.1781    0.0214   -0.1796   -0.1230   -0.0003
          39   -0.0016   -0.0040   -0.1367   -0.2515   -0.0378    0.3000    0.1607    0.0009
          40   -0.0017    0.0190   -0.1234   -0.2273    0.0742   -0.4078    0.1293    0.0001
          41    0.0006   -0.0296   -0.0046    0.0491   -0.0073    0.0255   -0.0361    0.0001
          42    0.0003   -0.0093    0.0287    0.0575   -0.0271    0.1502   -0.0377    0.0002
          43    0.0006   -0.0053    0.0058   -0.0014    0.0188    0.0034   -0.0016   -0.0007
          44   -0.0050    0.2213   -0.1971    0.0974   -0.4396   -0.0636    0.0372    0.0036
          45   -0.0042    0.1688   -0.1518    0.0770   -0.3704   -0.0554    0.0320    0.0033
          46    0.0165   -0.3932    0.3882   -0.2286   -0.3494   -0.0636   -0.0409    0.0068
          47    0.0039   -0.1866    0.1923   -0.1209    0.4651    0.0689   -0.0582   -0.0032
          48   -0.0004   -0.0809    0.0589   -0.0113    0.4470    0.0704   -0.0151   -0.0040
          49   -0.0002    0.1055    0.0634   -0.1403    0.0138    0.0101   -0.0761   -0.0017
          50   -0.0011    0.2186    0.0985   -0.2868   -0.0036   -0.0011   -0.1690   -0.0022
          51    0.0006   -0.0871   -0.0420    0.1098   -0.0104   -0.0048    0.0633    0.0009


   Root No.      41        42        43        44        45

                41 A      42 A      43 A      44 A      45 A   

                  13.3      14.4      18.8      22.8      25.5
  
           1    0.0021   -0.1908    0.0206   -0.1721    0.0001
           2   -0.0009   -0.3426   -0.0247   -0.3179   -0.0006
           3    0.0015   -0.4514    0.0372   -0.4152   -0.0005
           4   -0.0170    0.0100    0.0022   -0.0146   -0.0023
           5    0.0015    0.0001    0.0002    0.0002    0.0002
           6    0.0035   -0.0009    0.0003    0.0007    0.0010
           7   -0.0005   -0.0081   -0.0085   -0.0040   -0.0000
           8    0.0004    0.1265   -0.0119    0.0139    0.0001
           9    0.0001    0.0168   -0.0182   -0.0051   -0.0001
          10   -0.0008    0.0554    0.0052    0.0058    0.0001
          11    0.0002   -0.0318    0.0159   -0.0100    0.0000
          12   -0.0005    0.1114    0.0152    0.0105   -0.0000
          13   -0.0005   -0.0544   -0.2669    0.2464    0.0003
          14   -0.0005   -0.0839    0.6289    0.4670    0.0008
          15    0.0001   -0.1293   -0.3868    0.5871    0.0004
          16   -0.0013    0.2490    0.1949   -0.0825   -0.0002
          17    0.0006   -0.2006   -0.1727    0.0457   -0.0001
          18   -0.0014    0.4402    0.3461   -0.1530   -0.0001
          19   -0.0001   -0.0560    0.0525    0.0130    0.0000
          20   -0.0007    0.5323   -0.4357   -0.1989   -0.0005
          21    0.0006    0.0126    0.0063   -0.0242    0.0001
          22    0.6054    0.0015    0.0003   -0.0006    0.3763
          23   -0.3366   -0.0007   -0.0004   -0.0008    0.5952
          24   -0.2520   -0.0005    0.0001   -0.0000   -0.1925
          25    0.0471    0.0001    0.0003    0.0005   -0.3730
          26    0.0727    0.0002    0.0003    0.0006   -0.5378
          27   -0.0250   -0.0000   -0.0000   -0.0003    0.1873
          28   -0.5877   -0.0017   -0.0005    0.0000    0.0159
          29    0.0824   -0.0003   -0.0003    0.0007    0.0084
          30    0.2623    0.0008    0.0003   -0.0000   -0.0072
          31   -0.0536   -0.0004   -0.0000    0.0004   -0.0006
          32    0.1355    0.0002    0.0002    0.0002   -0.0352
          33    0.0435   -0.0001   -0.0000    0.0003   -0.0020
          34   -0.0015    0.0003   -0.0001   -0.0005   -0.0014
          35   -0.0066    0.0001    0.0000   -0.0003   -0.0060
          36   -0.0083    0.0002   -0.0000   -0.0003   -0.0057
          37    0.0034    0.0001    0.0002   -0.0001    0.0058
          38    0.0030    0.0000    0.0001   -0.0001   -0.0142
          39   -0.0125   -0.0001   -0.0004    0.0001    0.0064
          40   -0.0151    0.0001    0.0001   -0.0002    0.0058
          41    0.0238    0.0001   -0.0000   -0.0001    0.0037
          42    0.0009   -0.0001   -0.0001    0.0001   -0.0008
          43   -0.0000    0.0006    0.0009   -0.0009   -0.0005
          44   -0.0135   -0.0010   -0.0006    0.0012   -0.0015
          45   -0.0121   -0.0010   -0.0003    0.0012    0.0002
          46    0.0286   -0.0062   -0.0017    0.0098    0.0052
          47    0.0422    0.0007    0.0003   -0.0002    0.0043
          48   -0.0042    0.0017    0.0004   -0.0021   -0.0037
          49   -0.0084    0.0005    0.0005   -0.0005   -0.0314
          50   -0.0033    0.0007    0.0004   -0.0013   -0.0168
          51    0.0033   -0.0004   -0.0001    0.0003    0.0172


          FORCE CONSTANTS IN MILLIDYNES/ANGSTROM (= 10**5 DYNES/CM)

  -0.04487  -0.03648  -0.02508  -0.01954  -0.01065  -0.00827  -0.00365   0.00788
   0.01706   0.05788   0.10193   0.15923   0.29646   0.34485   0.40878   0.51149
   0.62373   0.81952   0.86072   1.05381   1.26685   1.28057   1.39121   1.41517
   2.03262   2.37140   2.76484   3.01225   3.24211   3.55686   3.57440   4.50456
   5.95137   6.72324   7.07498   7.72841   8.52122   8.64717   9.25949  10.34759
  13.26413  14.38328  18.75686  22.76497  25.47402


           ASSOCIATED EIGENVECTORS




    ROOT NO.    1           2           3           4           5           6

            -0.04487    -0.03648    -0.02508    -0.01954    -0.01065    -0.00827
  
         1  -0.04441    -0.02236     0.01793     0.11976     0.04236    -0.00529
         2   0.02867    -0.02075    -0.06283    -0.09549     0.08382    -0.17056
         3   0.04891     0.07423    -0.00275     0.05649    -0.04443     0.06965
         4  -0.15600    -0.00524    -0.03845     0.08310    -0.01309    -0.08278
         5  -0.33937     0.06601    -0.02165     0.03899    -0.08360     0.29149
         6  -0.43098     0.02297     0.00801     0.05585     0.02702    -0.03880
         7  -0.02969    -0.02156     0.22524     0.39991     0.25957     0.00368
         8   0.03042    -0.02057    -0.03691    -0.06024     0.11018    -0.16971
         9   0.05668     0.10657     0.03503     0.05623    -0.31825     0.14205
        10  -0.06467    -0.01063    -0.13969    -0.03849    -0.21523    -0.13896
        11   0.01443    -0.04610    -0.19647    -0.22605     0.19199    -0.25315
        12   0.05309     0.05546     0.01623     0.07690     0.14417     0.10082
        13  -0.04775    -0.03491    -0.04167    -0.02310     0.09483     0.13455
        14   0.04524     0.00861     0.07064     0.02812    -0.05786    -0.08253
        15   0.03670     0.05753    -0.07928     0.02378     0.04064    -0.05938
        16  -0.00260    -0.04634     0.17410     0.18318     0.41471     0.28684
        17   0.07118     0.03895     0.24055     0.19475    -0.17095     0.00883
        18   0.02408     0.07878    -0.11781    -0.01075    -0.19735    -0.09939
        19  -0.06954    -0.02831    -0.30498    -0.37068    -0.19434     0.09727
        20   0.04354     0.00904     0.03957    -0.01343    -0.09087    -0.08669
        21   0.02420     0.01464    -0.11998     0.02677     0.37010    -0.12962
        22  -0.00555     0.05890    -0.06484    -0.07827    -0.01134     0.10302
        23   0.01396     0.00364     0.01314     0.01624     0.01296    -0.01333
        24  -0.00683     0.03558    -0.06376    -0.08354     0.10936    -0.01776
        25   0.03812     0.21884    -0.16135    -0.10348     0.02586     0.26581
        26  -0.00023     0.06643     0.05260     0.00595     0.04264    -0.11931
        27   0.04367     0.53781    -0.14538    -0.16172     0.26859     0.00458
        28  -0.03546    -0.19935    -0.04486    -0.10544    -0.03027     0.12200
        29   0.04623    -0.07797    -0.05534     0.01676    -0.02580     0.17490
        30  -0.08294    -0.52148     0.00835    -0.14788     0.08564    -0.05333
        31  -0.04379     0.09521     0.06806    -0.03466    -0.05422    -0.11993
        32   0.00232     0.02067     0.04769     0.01129     0.02112    -0.08052
        33   0.00505    -0.00571    -0.01246     0.08339    -0.08634    -0.01580
        34   0.00292     0.06306    -0.14880     0.30141    -0.15479    -0.29006
        35   0.05421    -0.04892    -0.27662     0.01069     0.19690     0.04617
        36  -0.06077     0.05949     0.36147    -0.19878    -0.10559     0.05170
        37  -0.11237     0.15791     0.41336    -0.32558    -0.00806    -0.15629
        38  -0.00565     0.03760     0.16733     0.02220    -0.08710    -0.04271
        39  -0.00708     0.01611     0.10026     0.05791    -0.14843     0.00458
        40  -0.02576     0.07896    -0.00807     0.05966    -0.07860    -0.15117
        41  -0.03019     0.04663     0.14297    -0.00258     0.03143    -0.24492
        42   0.07116    -0.05589    -0.28818     0.39533    -0.16625    -0.07164
        43   0.69524    -0.11797     0.06183    -0.05749    -0.03038    -0.01571
        44  -0.11701    -0.05011    -0.04473     0.03684    -0.05330     0.21261
        45   0.28242     0.01585     0.14687    -0.09928    -0.02058     0.11807
        46  -0.04528    -0.02616    -0.01604     0.06072    -0.01756    -0.06816
        47   0.06772     0.02175    -0.01070     0.00050    -0.07450     0.27980
        48   0.01226    -0.06374     0.10115    -0.04470     0.00670     0.03009
        49  -0.05342    -0.16006     0.00821    -0.07056    -0.02947     0.01519
        50   0.07452    -0.05490    -0.06924     0.01546    -0.04705     0.24964
        51  -0.06962    -0.42820     0.05221    -0.08598     0.03499    -0.03581




    ROOT NO.    7           8           9          10          11          12

            -0.00365     0.00788     0.01706     0.05788     0.10193     0.15923
  
         1  -0.06871     0.19017    -0.26219    -0.15243    -0.04397    -0.04358
         2   0.08950     0.04323    -0.04728     0.01347    -0.00101     0.00314
         3   0.13868    -0.15351     0.01547     0.01298     0.00576     0.01580
         4  -0.03537     0.15369     0.12355     0.42571     0.15269     0.33047
         5  -0.12057    -0.01264     0.09373    -0.32880     0.19632     0.54736
         6   0.03120     0.36489     0.31781     0.26977    -0.08651    -0.35585
         7  -0.23317     0.16151    -0.26121    -0.15718    -0.08108    -0.07527
         8   0.06892     0.04033    -0.04763     0.01225    -0.00532    -0.00068
         9   0.22118    -0.11080     0.01873    -0.00308     0.00749     0.02446
        10  -0.21154     0.29425    -0.33788    -0.18750    -0.05939    -0.04868
        11   0.07073     0.03125    -0.05808     0.03070     0.00783     0.00653
        12   0.20495    -0.21305     0.04732     0.03521     0.01575     0.01562
        13   0.28277     0.11010    -0.16925    -0.07708    -0.01470    -0.02255
        14   0.12998     0.05935    -0.03003     0.00883    -0.01007     0.00210
        15  -0.04424    -0.13156    -0.03419    -0.00983     0.00054     0.00990
        16   0.44196    -0.03857    -0.03843     0.00082     0.00532     0.00514
        17   0.15105     0.06741    -0.00723     0.00385    -0.02056     0.00079
        18  -0.12414    -0.04252    -0.10154    -0.06267    -0.01687    -0.00895
        19   0.44273     0.14703    -0.16651    -0.06828    -0.00691    -0.03216
        20   0.14836     0.06397    -0.03129     0.00687    -0.00945    -0.00043
        21  -0.12304    -0.17864    -0.04873    -0.00161     0.01162     0.01718
        22  -0.11839    -0.14075     0.09681     0.03712    -0.14809    -0.04667
        23  -0.03290    -0.02546     0.00922     0.06302    -0.12424     0.02950
        24  -0.05363    -0.00704    -0.07456    -0.03762     0.07088     0.04805
        25  -0.19169    -0.09758     0.05361     0.12456    -0.14692    -0.08323
        26   0.00709    -0.01618     0.04066     0.00065    -0.08637     0.04942
        27  -0.08399     0.10745    -0.06765    -0.02949     0.15516     0.02944
        28  -0.13027    -0.19919     0.09725     0.01128    -0.16621    -0.02857
        29  -0.10189    -0.03840    -0.04706     0.15810    -0.17768    -0.05472
        30  -0.04835    -0.13134    -0.04462    -0.10868    -0.01214     0.10393
        31  -0.02122    -0.16597     0.12733    -0.08210    -0.02445    -0.05684
        32  -0.00742    -0.02892     0.02556     0.01763    -0.08539     0.02301
        33  -0.01151    -0.03503    -0.13738     0.06424    -0.01462     0.04048
        34   0.09806    -0.18484     0.22184    -0.20182     0.06695    -0.11496
        35  -0.07981     0.01999     0.14019    -0.03003    -0.15029     0.05579
        36  -0.06898    -0.04720    -0.28194     0.19182    -0.05083     0.06268
        37  -0.04644    -0.18680     0.04628    -0.08712     0.07705    -0.09296
        38  -0.00791    -0.04192    -0.06051     0.13543    -0.16672     0.03901
        39  -0.01476    -0.04389    -0.20235     0.14196    -0.05826     0.05108
        40   0.00568    -0.16788     0.15652    -0.11086    -0.01489    -0.07225
        41   0.05444    -0.05115     0.06008    -0.11281     0.06467    -0.02024
        42   0.05796    -0.03021    -0.05282     0.01701    -0.03660     0.03202
        43  -0.08664     0.11242     0.05334     0.16128     0.31820     0.02192
        44  -0.11813    -0.07693    -0.04190     0.00531     0.55257    -0.39618
        45  -0.03226     0.37013     0.35745    -0.31876    -0.28878     0.14468
        46  -0.04668     0.13876     0.10198     0.33508     0.21566     0.32813
        47  -0.12995    -0.00330     0.04145    -0.16833     0.21175    -0.07979
        48  -0.01567     0.28542     0.26169    -0.09405     0.12995    -0.19974
        49  -0.08111    -0.12634     0.15697     0.02851    -0.12924     0.03207
        50  -0.12149    -0.03064    -0.03988     0.18387    -0.19605    -0.20461
        51  -0.03340    -0.00312     0.02730    -0.06721     0.16745    -0.03078




    ROOT NO.   13          14          15          16          17          18

             0.29646     0.34485     0.40878     0.51149     0.62373     0.81952
  
         1   0.01130    -0.00833    -0.00101    -0.00318    -0.08642     0.00478
         2   0.00625     0.00087    -0.00282     0.00268     0.19339    -0.00043
         3  -0.01059     0.00230     0.00328     0.00159    -0.10671     0.00382
         4  -0.01985     0.12687     0.05952    -0.00609     0.00219    -0.06309
         5  -0.01401     0.02824    -0.03135     0.06771    -0.00273     0.07037
         6   0.00970     0.06704     0.12953    -0.21001    -0.00064    -0.25605
         7  -0.48133    -0.00069    -0.00139     0.00632     0.20616    -0.00541
         8  -0.05380     0.00176    -0.00269     0.00317     0.20031    -0.00139
         9   0.24088    -0.00186     0.00815     0.00550     0.42984    -0.00687
        10   0.51521    -0.00266     0.00041    -0.00117    -0.12397     0.00355
        11   0.05595     0.00375    -0.00624    -0.00365    -0.38294     0.00459
        12  -0.25292    -0.00020     0.00036    -0.00256    -0.32575     0.00604
        13  -0.00173    -0.00497    -0.00097    -0.00173    -0.07110     0.00184
        14   0.00107     0.00191     0.00424     0.00260     0.15645    -0.00113
        15  -0.00009     0.00211    -0.00149     0.00135    -0.08440     0.00420
        16   0.37696     0.00265     0.00254    -0.00619    -0.09691    -0.00126
        17   0.03948     0.00273     0.01254    -0.00237    -0.32229     0.00545
        18  -0.19651    -0.00361    -0.00010     0.00192    -0.27298     0.01070
        19  -0.38424    -0.00944    -0.00737     0.00828     0.16349     0.00055
        20  -0.04439     0.00032     0.00323     0.00327     0.15833    -0.00034
        21   0.20233     0.00302    -0.00849     0.00225     0.36274     0.00046
        22   0.00427    -0.12542     0.00399    -0.04696     0.00047     0.04660
        23  -0.00031    -0.07597    -0.07923    -0.05458     0.00084     0.02715
        24  -0.00063     0.09286     0.13879    -0.00505     0.00022     0.00932
        25   0.00576     0.09405    -0.15161     0.00497    -0.00068     0.09345
        26  -0.00073    -0.21974    -0.11374    -0.11620     0.00128    -0.04566
        27   0.00210     0.07271    -0.29557    -0.07496    -0.00068    -0.08426
        28   0.00115     0.01806    -0.00408    -0.23404     0.00325     0.10616
        29   0.00277     0.27906    -0.01614     0.08831     0.00059     0.09874
        30  -0.00642     0.23189     0.05825    -0.45608     0.00736     0.16941
        31   0.00208    -0.09547     0.11383     0.02447     0.00003    -0.03069
        32  -0.00072    -0.06026    -0.05025    -0.03876     0.00089     0.01295
        33   0.00103    -0.03658     0.20309     0.10301    -0.00085     0.00683
        34   0.00303     0.23302    -0.16577    -0.05814     0.00167    -0.02184
        35   0.00130    -0.36719     0.49902     0.20720    -0.00105    -0.02427
        36  -0.00049    -0.09397     0.08365     0.01312    -0.00072     0.03043
        37  -0.00078     0.09849     0.31065     0.20319    -0.00071    -0.04852
        38  -0.00106    -0.21631    -0.33444    -0.25802     0.00312    -0.03966
        39   0.00045    -0.12528     0.03601    -0.02542     0.00071    -0.02786
        40   0.00269    -0.04922     0.09178     0.03575    -0.00000    -0.00979
        41  -0.00326     0.33305    -0.00667     0.09282     0.00002     0.15198
        42   0.00315    -0.07159     0.09870     0.06496    -0.00091     0.01773
        43  -0.01613    -0.00923     0.05425    -0.10380     0.00523    -0.08072
        44   0.00485    -0.18195     0.01455    -0.10054     0.00104     0.12906
        45  -0.00273     0.09449     0.02839    -0.04864    -0.00132    -0.08836
        46  -0.02121     0.04625     0.00052     0.05980     0.00332     0.14307
        47  -0.00348     0.07026     0.14802    -0.24611    -0.00535    -0.43459
        48   0.00725    -0.20774    -0.13953     0.15523     0.00701     0.62208
        49   0.00283    -0.31395    -0.30528     0.11850    -0.00601    -0.13868
        50   0.01007     0.39945    -0.03802     0.35248    -0.00190     0.04719
        51   0.00349    -0.02558    -0.34302     0.47380    -0.01290    -0.41761




    ROOT NO.   19          20          21          22          23          24

             0.86072     1.05381     1.26685     1.28057     1.39121     1.41517
  
         1   0.00378    -0.01291    -0.07241     0.00557     0.63995    -0.08608
         2   0.00155    -0.00205    -0.09827    -0.00159     0.07519    -0.01036
         3  -0.00322     0.00508    -0.11415    -0.00686    -0.32812     0.04379
         4  -0.02895     0.02047     0.00148    -0.01436    -0.00098     0.01972
         5  -0.05239     0.00996     0.00103     0.00063    -0.01772     0.01977
         6   0.06273    -0.00996    -0.00625     0.01536     0.00059    -0.00482
         7  -0.00108     0.00543     0.29672     0.00482    -0.28216     0.03741
         8   0.00084    -0.00013    -0.09486    -0.00288    -0.03611     0.00475
         9   0.00302    -0.00466     0.54279     0.01570     0.17436    -0.02280
        10  -0.00211     0.00428     0.01060    -0.00235    -0.31065     0.04089
        11  -0.00150    -0.00028     0.60772     0.01685    -0.01354     0.00313
        12  -0.00105    -0.00353     0.12728     0.00510     0.13319    -0.01726
        13   0.00232    -0.00357    -0.07010     0.00079     0.31907    -0.04327
        14   0.00111    -0.00182    -0.09849    -0.00312     0.03362    -0.00450
        15  -0.00292     0.00164    -0.11951    -0.00428    -0.16395     0.02183
        16  -0.00016     0.00169    -0.06074    -0.00287    -0.19825     0.02675
        17  -0.00103    -0.00125    -0.20412    -0.00682    -0.03757     0.00429
        18  -0.00213    -0.00182    -0.19178    -0.00428     0.09653    -0.01399
        19   0.00049     0.00226    -0.09850    -0.00410    -0.20799     0.02749
        20   0.00121    -0.00137    -0.11378    -0.00358    -0.02475     0.00328
        21  -0.00004    -0.00181    -0.24550    -0.00368     0.08944    -0.01232
        22   0.04817     0.07320     0.00418    -0.16337     0.00180    -0.01810
        23   0.05378     0.11968    -0.00108     0.03150    -0.01736    -0.18846
        24  -0.01532    -0.03150     0.00507    -0.16725    -0.01482    -0.12112
        25   0.19900    -0.29204    -0.00601     0.17134     0.01463     0.08705
        26  -0.07677     0.42709     0.00333    -0.12365    -0.01872    -0.20605
        27  -0.09100     0.10309    -0.00251     0.05868     0.00158     0.03846
        28   0.02408     0.05618     0.00077    -0.03773     0.01209     0.06353
        29  -0.02695     0.05140    -0.00302     0.08573    -0.01512    -0.18619
        30  -0.10701     0.02563    -0.00171     0.09256     0.00021     0.04051
        31  -0.06829     0.08843     0.00669    -0.29233     0.03906     0.22166
        32   0.01770     0.08549    -0.00135     0.03108     0.00041    -0.04828
        33   0.05877    -0.12284     0.00631    -0.22375    -0.03480    -0.26093
        34  -0.22689    -0.13688     0.00483    -0.18388    -0.03204    -0.29524
        35  -0.08586    -0.25644    -0.00045    -0.02412     0.00678     0.07891
        36   0.24523     0.24095     0.00489    -0.19171     0.02282     0.11838
        37  -0.26220    -0.00281    -0.01366     0.51870    -0.02509    -0.19303
        38  -0.29306    -0.34210    -0.00485     0.16952     0.04039     0.33870
        39  -0.15879    -0.42368     0.00352    -0.10621    -0.02633    -0.12614
        40   0.00570     0.18721     0.00164    -0.11013     0.07020     0.46592
        41   0.61260    -0.27679     0.00138    -0.04057     0.01054     0.14532
        42   0.15508     0.27397    -0.01480     0.55947     0.01728     0.15340
        43   0.01785    -0.00132    -0.00369     0.00313    -0.00868     0.00667
        44   0.02418     0.00448     0.00320     0.00439    -0.00749    -0.03173
        45   0.01054    -0.00177     0.00250    -0.00021     0.00664    -0.01001
        46  -0.04964     0.00871     0.00217    -0.01316     0.02550     0.01111
        47   0.09734    -0.00349     0.00127     0.00089     0.00199    -0.01596
        48  -0.09116    -0.00127     0.00523     0.00079    -0.00401    -0.01024
        49   0.33793     0.00167    -0.00396     0.11995    -0.05646    -0.37247
        50  -0.27278     0.18762     0.00234    -0.13426     0.01946     0.09340
        51  -0.06273    -0.04751    -0.00137    -0.03944     0.02939     0.18326




    ROOT NO.   25          26          27          28          29          30

             2.03262     2.37140     2.76484     3.01225     3.24211     3.55686
  
         1   0.00204    -0.00571    -0.00301     0.10949    -0.04988    -0.03264
         2   0.00112    -0.00078    -0.00010    -0.15744    -0.14665    -0.00627
         3  -0.00207     0.00445    -0.00045     0.09441    -0.19666     0.01514
         4  -0.21322    -0.04695    -0.00890    -0.00572    -0.00235     0.01205
         5   0.45592     0.02138     0.00215     0.00546     0.00497    -0.00151
         6   0.37620     0.03138     0.00473     0.00438     0.00365    -0.00458
         7   0.00205     0.00339     0.00067    -0.03919     0.07111     0.00520
         8   0.00313     0.00047    -0.00119    -0.41125    -0.45672    -0.00880
         9   0.00486    -0.00060     0.00143    -0.15606     0.05023    -0.00230
        10  -0.00164     0.00506    -0.00187     0.20462    -0.18351     0.00434
        11   0.00066     0.00105     0.00164    -0.01812     0.22297     0.00168
        12   0.00221     0.00112    -0.00262     0.43528    -0.31130    -0.00257
        13   0.03669    -0.00836     0.00832    -0.15802    -0.10115     0.05442
        14  -0.00099     0.00032    -0.00061     0.30566    -0.07868     0.00887
        15  -0.01514     0.00312    -0.00411    -0.15199    -0.10654    -0.03064
        16  -0.01176     0.00386    -0.00266    -0.18073     0.01606    -0.02027
        17  -0.00749     0.00072     0.00301    -0.10211     0.48066     0.00328
        18   0.00769    -0.00270     0.00355    -0.40100     0.10950     0.00696
        19  -0.01524     0.00557    -0.00191     0.06179     0.25067    -0.01582
        20  -0.00700     0.00294    -0.00199     0.38169    -0.02333     0.00127
        21  -0.00130    -0.00162     0.00359     0.18039     0.45413     0.01499
        22   0.02672    -0.11324    -0.35186    -0.00183     0.00028     0.31128
        23  -0.00955     0.27193    -0.13937    -0.00062     0.00176    -0.08330
        24  -0.01573     0.18848     0.05119    -0.00279    -0.00406     0.75336
        25  -0.01128     0.37306    -0.19056    -0.00152     0.00293    -0.18859
        26   0.01703    -0.19175    -0.27731     0.00129     0.00237    -0.09153
        27   0.00380    -0.21246     0.13594     0.00256     0.00163    -0.18344
        28   0.01173    -0.24420    -0.29215     0.00068     0.00226    -0.05753
        29  -0.00103     0.12832     0.39001     0.00285    -0.00232    -0.04586
        30  -0.00843     0.00306     0.14215     0.00055     0.00122    -0.16144
        31  -0.00641     0.06943     0.14821     0.00080     0.00029    -0.06689
        32  -0.01696     0.34301    -0.04266    -0.00175     0.00072    -0.04616
        33   0.00652     0.04456    -0.03446     0.00016     0.00112    -0.12452
        34  -0.01045     0.20004    -0.01921    -0.00161    -0.00065    -0.09266
        35  -0.00243     0.00182     0.05555     0.00065     0.00114    -0.14396
        36  -0.00830     0.24001     0.06041    -0.00111    -0.00062    -0.12836
        37   0.00074    -0.03541    -0.08757    -0.00039    -0.00040     0.02189
        38  -0.00876     0.02880     0.06655    -0.00214    -0.00292     0.28418
        39   0.02752    -0.36692    -0.01900     0.00212     0.00090    -0.16956
        40  -0.00457    -0.01351     0.34592     0.00213    -0.00129    -0.03737
        41   0.02688    -0.26656    -0.12168     0.00010     0.00024     0.04003
        42  -0.00195    -0.05957    -0.11233    -0.00108    -0.00073     0.09055
        43   0.50284     0.02926     0.00801     0.00442     0.00422    -0.00168
        44  -0.15828    -0.03466     0.03867    -0.00219    -0.00158     0.01108
        45  -0.27794    -0.02785     0.00796    -0.00326    -0.00317     0.00594
        46  -0.32720    -0.01083    -0.01565     0.00266    -0.00590    -0.00817
        47  -0.35677    -0.03469     0.00588    -0.00311    -0.00259     0.00221
        48  -0.06195     0.01482    -0.00336    -0.00176    -0.00106    -0.00607
        49   0.01897    -0.21146     0.46422     0.00241    -0.00269     0.11244
        50   0.06453    -0.27232     0.02148     0.00103    -0.00004     0.07479
        51  -0.03597     0.14071    -0.23462    -0.00080     0.00175    -0.07346




    ROOT NO.   31          32          33          34          35          36

             3.57440     4.50456     5.95137     6.72324     7.07498     7.72841
  
         1  -0.42606     0.01359    -0.07952     0.01866    -0.01440     0.00426
         2  -0.06581     0.00171    -0.16220     0.00010     0.00026    -0.00107
         3   0.20467    -0.00658    -0.22403    -0.01574     0.01138    -0.00299
         4   0.03094     0.03950    -0.01253     0.40966    -0.38337     0.20814
         5  -0.01811     0.00484     0.00147    -0.00509     0.00650    -0.00706
         6  -0.02194    -0.01010     0.00322    -0.09480     0.08741    -0.04656
         7   0.07100    -0.00209    -0.03213    -0.00371     0.00268    -0.00099
         8  -0.04411    -0.00223     0.47225     0.00685    -0.00320     0.00149
         9  -0.03533     0.00087     0.05347     0.00180    -0.00136     0.00009
        10   0.07180    -0.00246     0.20834     0.00218    -0.00072    -0.00008
        11   0.02185    -0.00075    -0.13078    -0.00470     0.00299    -0.00050
        12  -0.02844     0.00139     0.41037     0.01238    -0.00793     0.00191
        13   0.68581    -0.01390    -0.11197    -0.01021     0.00798    -0.00183
        14   0.09167    -0.00073    -0.20640    -0.00041    -0.00131     0.00115
        15  -0.37529     0.00923    -0.27428     0.00781    -0.00850     0.00298
        16  -0.23490     0.00384    -0.13265    -0.00301     0.00213    -0.00108
        17  -0.00126    -0.00057     0.34209     0.00689    -0.00529     0.00153
        18   0.09035    -0.00270    -0.17575    -0.01018     0.00796    -0.00331
        19  -0.20648     0.00441     0.14146     0.00580    -0.00516     0.00162
        20  -0.00698     0.00036    -0.31661    -0.00931     0.00711    -0.00248
        21   0.14943    -0.00282     0.21134     0.00126    -0.00069     0.00016
        22  -0.02108    -0.03314     0.00106    -0.08968    -0.08330     0.07860
        23   0.00598    -0.28798    -0.00225     0.07853    -0.07058    -0.15386
        24  -0.06325    -0.12642     0.00087    -0.01417    -0.04901    -0.09904
        25   0.02105    -0.15354    -0.00207     0.09238    -0.03325    -0.10446
        26   0.00411    -0.19526     0.00060    -0.09270    -0.09902     0.05196
        27   0.01217     0.11224     0.00123    -0.01907     0.05010     0.06924
        28   0.00764     0.13134     0.00357    -0.10736     0.07702     0.15340
        29  -0.01047    -0.25788     0.00350    -0.37173    -0.11977     0.46823
        30   0.01325     0.01105    -0.00166     0.10872     0.01085    -0.11133
        31   0.00662    -0.02551    -0.00000     0.12799     0.30495     0.34132
        32   0.01041     0.05846    -0.00264     0.33175     0.28405    -0.22774
        33   0.00965    -0.00052    -0.00127     0.25146     0.41031     0.31720
        34   0.02204     0.32643     0.00126    -0.17411    -0.22050    -0.09398
        35   0.01704     0.24787     0.00172    -0.13946    -0.16090    -0.04843
        36   0.01845     0.40614     0.00182    -0.21706    -0.26759    -0.10982
        37   0.00320    -0.00792     0.00003     0.00550     0.01196     0.01268
        38  -0.01674     0.17868     0.00097    -0.02442     0.07000     0.17810
        39   0.00461    -0.35445    -0.00165    -0.00396    -0.13674    -0.25153
        40  -0.00430    -0.40165    -0.00170     0.01896    -0.12339    -0.22730
        41  -0.00125     0.01889     0.00055    -0.02957    -0.00462     0.04906
        42  -0.00485     0.06871     0.00026    -0.00929     0.02869     0.05750
        43  -0.01062     0.00090     0.00058    -0.00532     0.00582    -0.00143
        44   0.00778     0.02650    -0.00500     0.22132    -0.19705     0.09736
        45   0.01314     0.01262    -0.00417     0.16882    -0.15176     0.07698
        46  -0.00877    -0.02567     0.01647    -0.39318     0.38815    -0.22860
        47   0.01088    -0.00390     0.00387    -0.18659     0.19234    -0.12095
        48   0.00650    -0.01626    -0.00037    -0.08090     0.05888    -0.01126
        49  -0.00787     0.14588    -0.00020     0.10546     0.06339    -0.14029
        50  -0.00498     0.21200    -0.00114     0.21856     0.09851    -0.28680
        51   0.00685    -0.10240     0.00060    -0.08708    -0.04199     0.10981




    ROOT NO.   37          38          39          40          41          42

             8.52122     8.64717     9.25949    10.34759    13.26413    14.38328
  
         1   0.01199     0.00213    -0.00016    -0.27368     0.00214    -0.19081
         2   0.00619     0.00070    -0.00357     0.67549    -0.00094    -0.34263
         3  -0.01175    -0.00170     0.00223    -0.39751     0.00152    -0.45140
         4   0.31396     0.05505     0.03060    -0.00307    -0.01697     0.00995
         5  -0.01934    -0.00317    -0.00183     0.00007     0.00150     0.00012
         6  -0.07143    -0.01279    -0.00638     0.00050     0.00348    -0.00088
         7  -0.00142    -0.00023    -0.00040     0.05765    -0.00049    -0.00806
         8  -0.00268    -0.00014     0.00152    -0.36683     0.00036     0.12648
         9   0.00124     0.00028    -0.00023     0.02425     0.00010     0.01679
        10   0.00120     0.00027    -0.00101     0.15653    -0.00083     0.05544
        11  -0.00333    -0.00059     0.00083    -0.16898     0.00018    -0.03178
        12   0.00694     0.00116    -0.00141     0.29099    -0.00046     0.11142
        13  -0.00202    -0.00046    -0.00023     0.02391    -0.00054    -0.05440
        14   0.00262     0.00047     0.00034    -0.05726    -0.00053    -0.08390
        15   0.01000     0.00145    -0.00027     0.03568     0.00008    -0.12929
        16  -0.00245    -0.00036    -0.00032     0.05266    -0.00134     0.24897
        17   0.00306     0.00043    -0.00009     0.02122     0.00059    -0.20062
        18  -0.00587    -0.00087    -0.00062     0.10673    -0.00137     0.44024
        19   0.00338     0.00064     0.00012    -0.01894    -0.00013    -0.05601
        20  -0.00648    -0.00093     0.00023    -0.10365    -0.00071     0.53233
        21  -0.00154    -0.00042     0.00044    -0.06009     0.00058     0.01256
        22  -0.00691    -0.01783     0.08547     0.00195     0.60539     0.00153
        23  -0.00666    -0.00313    -0.34061    -0.00236    -0.33664    -0.00070
        24  -0.00391     0.06511     0.00294    -0.00111    -0.25202    -0.00049
        25  -0.01107     0.00198    -0.19703    -0.00102     0.04714     0.00006
        26  -0.00465    -0.05592    -0.16115    -0.00037     0.07271     0.00016
        27   0.00710    -0.01735     0.08301     0.00010    -0.02495    -0.00001
        28   0.02822    -0.08023     0.34057     0.00035    -0.58765    -0.00166
        29  -0.00866     0.05937     0.22614     0.00255     0.08236    -0.00028
        30  -0.00718     0.02080    -0.19281    -0.00073     0.26234     0.00076
        31  -0.10338     0.58411    -0.24872    -0.00052    -0.05362    -0.00040
        32   0.00457     0.16571     0.65116     0.00255     0.13555     0.00016
        33   0.07663    -0.52197    -0.08012     0.00006     0.04349    -0.00005
        34   0.00388    -0.02803    -0.00409    -0.00006    -0.00155     0.00029
        35  -0.00055    -0.01282    -0.02400    -0.00046    -0.00662     0.00012
        36  -0.00154     0.00586    -0.01008    -0.00006    -0.00826     0.00022
        37   0.00727    -0.05905    -0.01554    -0.00017     0.00339     0.00005
        38   0.02143    -0.17964    -0.12299    -0.00028     0.00303     0.00004
        39  -0.03784     0.30000     0.16074     0.00089    -0.01246    -0.00011
        40   0.07417    -0.40785     0.12929     0.00011    -0.01514     0.00014
        41  -0.00734     0.02547    -0.03605     0.00008     0.02382     0.00007
        42  -0.02711     0.15024    -0.03765     0.00017     0.00094    -0.00008
        43   0.01878     0.00342    -0.00155    -0.00074    -0.00001     0.00062
        44  -0.43963    -0.06357     0.03724     0.00359    -0.01353    -0.00102
        45  -0.37036    -0.05537     0.03199     0.00329    -0.01209    -0.00104
        46  -0.34939    -0.06363    -0.04091     0.00677     0.02863    -0.00624
        47   0.46507     0.06887    -0.05818    -0.00319     0.04218     0.00074
        48   0.44701     0.07040    -0.01510    -0.00402    -0.00420     0.00171
        49   0.01379     0.01010    -0.07608    -0.00174    -0.00843     0.00050
        50  -0.00359    -0.00111    -0.16898    -0.00216    -0.00329     0.00070
        51  -0.01040    -0.00483     0.06331     0.00087     0.00328    -0.00035




    ROOT NO.   43          44          45

            18.75686    22.76497    25.47402
  
         1   0.02057    -0.17206     0.00009
         2  -0.02471    -0.31787    -0.00057
         3   0.03719    -0.41524    -0.00053
         4   0.00222    -0.01463    -0.00230
         5   0.00016     0.00024     0.00017
         6   0.00030     0.00073     0.00100
         7  -0.00851    -0.00398    -0.00001
         8  -0.01193     0.01387     0.00009
         9  -0.01817    -0.00513    -0.00008
        10   0.00517     0.00579     0.00007
        11   0.01594    -0.00998     0.00002
        12   0.01522     0.01052    -0.00003
        13  -0.26685     0.24645     0.00029
        14   0.62889     0.46705     0.00083
        15  -0.38677     0.58706     0.00035
        16   0.19492    -0.08246    -0.00017
        17  -0.17270     0.04573    -0.00010
        18   0.34606    -0.15300    -0.00006
        19   0.05249     0.01298     0.00005
        20  -0.43571    -0.19892    -0.00047
        21   0.00629    -0.02416     0.00011
        22   0.00032    -0.00062     0.37626
        23  -0.00038    -0.00081     0.59519
        24   0.00010    -0.00004    -0.19251
        25   0.00029     0.00053    -0.37302
        26   0.00032     0.00063    -0.53780
        27  -0.00005    -0.00029     0.18735
        28  -0.00050     0.00003     0.01587
        29  -0.00028     0.00068     0.00844
        30   0.00027    -0.00002    -0.00720
        31  -0.00004     0.00039    -0.00061
        32   0.00022     0.00024    -0.03519
        33  -0.00001     0.00033    -0.00201
        34  -0.00008    -0.00051    -0.00140
        35   0.00002    -0.00025    -0.00601
        36  -0.00001    -0.00033    -0.00574
        37   0.00021    -0.00011     0.00577
        38   0.00011    -0.00010    -0.01419
        39  -0.00036     0.00006     0.00640
        40   0.00011    -0.00021     0.00579
        41  -0.00001    -0.00010     0.00367
        42  -0.00006     0.00010    -0.00081
        43   0.00093    -0.00085    -0.00054
        44  -0.00059     0.00118    -0.00154
        45  -0.00029     0.00116     0.00024
        46  -0.00174     0.00980     0.00524
        47   0.00028    -0.00023     0.00425
        48   0.00038    -0.00207    -0.00365
        49   0.00050    -0.00053    -0.03137
        50   0.00036    -0.00135    -0.01680
        51  -0.00010     0.00032     0.01716

          ZERO POINT ENERGY      62.078 KCAL/MOL

         NOTE: SYSTEM IS NOT A GROUND STATE, THEREFORE ZERO POINT
         ENERGY IS NOT MEANINGFULL. ZERO POINT ENERGY PRINTED
         DOES NOT INCLUDE THE  7 IMAGINARY FREQUENCIES


           FREQUENCIES, REDUCED MASSES AND VIBRATIONAL DIPOLES



   I         1         2         3         4         5         6
 FREQ(I) -225.2912 -105.0887  -97.6606  -70.3647  -61.2034  -51.0104

 MASS(I)   0.75282   5.87095   3.37322   2.66957   6.24160   2.89998

 DIPX(I)   0.56178  -0.38883   0.27992   0.42489  -0.59320  -0.01103
 DIPY(I)  -0.67828   0.10593  -0.03838  -0.13178   0.01406   0.24071
 DIPZ(I)  -0.36821   0.06710  -0.43712  -0.05311   0.13994  -0.43646

 DIPT(I)   0.95459   0.40855   0.52048   0.44802   0.60964   0.49856


   I         7         8         9        10        11        12
 FREQ(I)  -29.1704   35.6333   58.8979  117.3299  174.4276  212.0504

 MASS(I)   4.76451   2.09610   3.80539   4.47876   4.25094   3.28484

 DIPX(I)   0.08696  -0.34142   0.59099   0.37646  -0.55626   0.22885
 DIPY(I)  -0.49342  -0.34683  -0.03727   0.33752  -0.21049   0.53116
 DIPZ(I)   0.18428   0.36519   0.39215   0.41560  -0.19289  -0.43615

 DIPT(I)   0.53384   0.60846   0.71024   0.65450   0.62525   0.72438


   I        13        14        15        16        17        18
 FREQ(I)  358.0736  403.3642  418.3650  503.0321  551.1172  553.4132

 MASS(I)   0.61413   1.33090   1.33770   1.88543   2.53177   0.43581

 DIPX(I)  -0.07292   0.44718   0.02784   0.20757  -1.14765   0.15995
 DIPY(I)   0.06783  -0.21709  -1.14469  -0.34037  -0.25252   0.03454
 DIPZ(I)  -0.01256  -0.15549   1.02852   0.24407  -0.09029  -0.03242

 DIPT(I)   0.10038   0.52084   1.53914   0.46745   1.17856   0.16682


   I        19        20        21        22        23        24
 FREQ(I)  624.9170  635.8160  653.1964  784.0619  796.9597  899.0396

 MASS(I)   7.54169   4.50901   4.58831   4.20316   0.74069   0.99097

 DIPX(I)   1.51728   0.25249  -0.20033  -0.25280   0.61040   1.69476
 DIPY(I)   0.12103   0.22573  -0.73855   0.46639   0.13330   0.24395
 DIPZ(I)  -0.77848   1.85795  -1.06879  -0.41594   1.18813  -0.93268

 DIPT(I)   1.70962   1.88857   1.31449   0.67411   1.34239   1.94977


   I        25        26        27        28        29        30
 FREQ(I)  901.3473  987.5079 1055.2737 1072.7201 1207.0140 1209.5450

 MASS(I)   1.50360   3.27321   0.45709   1.28501   1.87025   0.45374

 DIPX(I)  -0.07182  -0.59536   0.21962   0.02278  -1.30192   0.57965
 DIPY(I)  -0.00108   0.12836   0.05331  -0.02094  -0.82414  -0.50696
 DIPZ(I)  -0.18142   0.58972   0.08508   0.03112  -1.26710  -0.24537

 DIPT(I)   0.19512   0.84776   0.24148   0.04388   1.99493   0.80821


   I        31        32        33        34        35        36
 FREQ(I) 1225.4130 1256.9363 1318.5372 1344.0878 1360.9859 1490.1036

 MASS(I)   0.45472   0.92565   4.09297   0.84646   0.53233   6.48406

 DIPX(I)   0.49988  -1.14096   3.16742   0.20335   0.01543  -3.05884
 DIPY(I)   0.56875   0.89267   0.13429  -0.45992   0.02185   7.01505
 DIPZ(I)  -0.16780   0.49791  -1.93487  -0.12917   0.02249  -4.23922

 DIPT(I)   0.77557   1.53185   3.71407   0.51919   0.03494   8.74862


   I        37        38        39        40        41        42
 FREQ(I) 1692.4905 1777.0571 1900.3752 2328.7996 2581.5109 2679.5262

 MASS(I)   6.41234   5.93998   1.62161   0.84946   0.50462   0.48341

[...]
 TRAVEL (Ang.)       0.3582         C  8 -- C 11          +8.1% (185.4%)      0.0%
 REDUCED MASS        4.4788         C  8 -- O 10          +7.0% (172.2%)      0.7%
 EFFECTIVE MASS    169.6290
 FORCE CONSTANT      0.0363

 VIBRATION         11   11A           ATOM PAIR      ENERGY CONTRIBUTION    RADIAL
 FREQUENCY           174.43         H 15 -- O 16         +19.7% (183.3%)     10.8%
 TRANSITION DIPOLE   0.6253         C  8 -- C 11         +13.8% (153.5%)      0.6%
 TRAVEL (Ang.)       0.3016         C  8 -- Cl12         +12.2% (144.5%)     67.9%
 REDUCED MASS        4.2509         H  2 -- O 16          +8.6% (121.3%)     62.7%
 EFFECTIVE MASS     57.6732
 FORCE CONSTANT      0.0762

 VIBRATION         12   12A           ATOM PAIR      ENERGY CONTRIBUTION    RADIAL
 FREQUENCY           212.05         C  8 -- O 10         +18.7% (191.4%)      1.5%
 TRANSITION DIPOLE   0.7244         O  9 -- O 10         +16.9% (182.0%)      0.1%
 TRAVEL (Ang.)       0.3111         C  8 -- C 11         +14.7% (169.6%)      0.0%
 REDUCED MASS        3.2848         C  8 -- Cl12         +12.4% (155.7%)     73.5%
 EFFECTIVE MASS     45.8956
 FORCE CONSTANT      0.0870

 VIBRATION         13   13A           ATOM PAIR      ENERGY CONTRIBUTION    RADIAL
 FREQUENCY           358.07         C  8 -- C 11         +16.6% (105.3%)      0.1%
 TRANSITION DIPOLE   0.1004         C  8 -- O 10         +12.4% ( 90.9%)      0.2%
 TRAVEL (Ang.)       0.5537         O  9 -- O 10         +11.9% ( 89.2%)      0.2%
 REDUCED MASS        0.6141         C  8 -- Cl12         +11.7% ( 88.5%)     44.6%
 EFFECTIVE MASS     10.5624         H  2 -- O 16         +11.3% ( 87.0%)      0.4%
 FORCE CONSTANT      0.0464

 VIBRATION         14   14A           ATOM PAIR      ENERGY CONTRIBUTION    RADIAL
 FREQUENCY           403.36         C  8 -- C 11         +16.3% (103.4%)      0.1%
 TRANSITION DIPOLE   0.5208         O  9 -- O 10         +16.2% (103.4%)      2.0%
 TRAVEL (Ang.)       0.3544         C  8 -- O 10         +13.2% ( 93.1%)      1.5%
 REDUCED MASS        1.3309         C  8 -- Cl12         +12.8% ( 91.9%)     23.0%
 EFFECTIVE MASS     13.1362
 FORCE CONSTANT      0.1276

 VIBRATION         15   15A           ATOM PAIR      ENERGY CONTRIBUTION    RADIAL
 FREQUENCY           418.37         H 15 -- O 16         +44.4% ( 80.9%)      0.1%
 TRANSITION DIPOLE   1.5391         H  2 -- O 16         +32.9% ( 69.6%)      0.0%
 TRAVEL (Ang.)       0.3471         O 10 -- H 17         +10.1% ( 38.6%)      2.0%
 REDUCED MASS        1.3377         C  8 -- O 10          +2.2% ( 17.9%)      2.8%
 EFFECTIVE MASS      4.4163
 FORCE CONSTANT      0.1379

 VIBRATION         16   16A           ATOM PAIR      ENERGY CONTRIBUTION    RADIAL
 FREQUENCY           503.03         C  1 -- N  5         +28.1% (122.0%)      0.0%
 TRANSITION DIPOLE   0.4674         C  1 -- H  4         +16.1% ( 92.3%)     54.7%
 TRAVEL (Ang.)       0.2666         C  1 -- H  3         +16.1% ( 92.2%)     55.7%
 REDUCED MASS        1.8854         O  6 -- O  7         +15.0% ( 89.1%)      0.0%
 EFFECTIVE MASS     16.2225         N  5 -- O  6         +12.4% ( 80.9%)      0.0%
 FORCE CONSTANT      0.2811         N  5 -- O  7         +12.3% ( 80.8%)      0.0%

 VIBRATION         17   17A           ATOM PAIR      ENERGY CONTRIBUTION    RADIAL
 FREQUENCY           551.12         C  8 -- O 10         +18.3% ( 94.0%)      0.1%
 TRANSITION DIPOLE   1.1786         O  9 -- O 10         +16.3% ( 88.7%)     99.8%
 TRAVEL (Ang.)       0.2198         C  8 -- O  9         +12.5% ( 77.8%)      0.0%
 REDUCED MASS        2.5318         C  8 -- C 11         +12.3% ( 77.0%)     12.7%
 EFFECTIVE MASS     17.9241
 FORCE CONSTANT      0.4531

 VIBRATION         18   18A           ATOM PAIR      ENERGY CONTRIBUTION    RADIAL
 FREQUENCY           553.41         C  1 -- H  3         +44.8% ( 84.6%)      0.0%
 TRANSITION DIPOLE   0.1668         C  1 -- H  4         +38.8% ( 78.7%)      0.0%
 TRAVEL (Ang.)       0.5288         C  8 -- O 10          +2.9% ( 21.5%)      0.0%
 REDUCED MASS        0.4358         O  9 -- O 10          +2.6% ( 20.2%)     99.6%
 EFFECTIVE MASS      2.1855
 FORCE CONSTANT      0.0786

 VIBRATION         19   19A           ATOM PAIR      ENERGY CONTRIBUTION    RADIAL
 FREQUENCY           624.92         N  5 -- O  6         +32.0% ( 83.3%)      0.0%
 TRANSITION DIPOLE   1.7096         C  1 -- N  5         +31.9% ( 83.2%)      0.0%
 TRAVEL (Ang.)       0.1196         N  5 -- O  7         +31.9% ( 83.2%)      0.0%
 REDUCED MASS        7.5417         C  1 -- H  4          +1.6% ( 18.8%)      3.0%
 EFFECTIVE MASS     13.4165
 FORCE CONSTANT      1.7353

 VIBRATION         20   20A           ATOM PAIR      ENERGY CONTRIBUTION    RADIAL
 FREQUENCY           635.82         C  8 -- O 10         +20.1% ( 92.5%)      0.0%
 TRANSITION DIPOLE   1.8886         C  8 -- Cl12         +19.4% ( 90.8%)     76.8%
 TRAVEL (Ang.)       0.1534         C  8 -- O  9         +18.3% ( 88.2%)      0.3%
 REDUCED MASS        4.5090         C  8 -- C 11         +16.4% ( 83.6%)      0.3%
 EFFECTIVE MASS     15.0613
 FORCE CONSTANT      1.0740

 VIBRATION         21   21A           ATOM PAIR      ENERGY CONTRIBUTION    RADIAL
 FREQUENCY           653.20         O  6 -- O  7         +20.5% ( 88.4%)    100.0%
 TRANSITION DIPOLE   1.3145         N  5 -- O  7         +19.4% ( 86.0%)      0.4%
 TRAVEL (Ang.)       0.1500         N  5 -- O  6         +19.1% ( 85.2%)      0.5%
 REDUCED MASS        4.5883         C  1 -- H  4         +14.0% ( 73.1%)     30.2%
 EFFECTIVE MASS     15.9648         C  1 -- H  3         +14.0% ( 73.1%)     28.6%
 FORCE CONSTANT      1.1534         C  1 -- N  5         +12.8% ( 69.7%)     10.2%

 VIBRATION         22   22A           ATOM PAIR      ENERGY CONTRIBUTION    RADIAL
 FREQUENCY           784.06         C 11 -- Cl12         +27.4% ( 88.4%)     95.3%
 TRANSITION DIPOLE   0.6741         C  8 -- C 11         +24.0% ( 82.7%)      0.3%
 TRAVEL (Ang.)       0.1430         C 11 -- H 13         +17.4% ( 70.5%)     14.9%
 REDUCED MASS        4.2032         C 11 -- H 14         +16.3% ( 68.1%)     24.0%
 EFFECTIVE MASS     13.4391
 FORCE CONSTANT      1.5224

 VIBRATION         23   23A           ATOM PAIR      ENERGY CONTRIBUTION    RADIAL
 FREQUENCY           796.96         O 10 -- H 17         +57.3% ( 86.3%)      0.0%
 TRANSITION DIPOLE   1.3424         C  8 -- C 11         +11.1% ( 38.0%)      0.3%
 TRAVEL (Ang.)       0.3380         C 11 -- Cl12         +10.1% ( 36.3%)     93.1%
 REDUCED MASS        0.7407         C 11 -- H 13          +6.8% ( 29.6%)     13.9%
 EFFECTIVE MASS      3.6289
 FORCE CONSTANT      0.2772

 VIBRATION         24   24A           ATOM PAIR      ENERGY CONTRIBUTION    RADIAL
 FREQUENCY           899.04         C  1 -- H  4         +44.2% ( 68.2%)      0.0%
 TRANSITION DIPOLE   1.9498         C  1 -- H  3         +37.3% ( 62.7%)      0.0%
 TRAVEL (Ang.)       0.2751         C  1 -- N  5         +10.1% ( 32.7%)      0.0%
 REDUCED MASS        0.9910         C 11 -- H 13          +1.9% ( 14.0%)     12.9%
 EFFECTIVE MASS      3.2289
 FORCE CONSTANT      0.4719

 VIBRATION         25   25A           ATOM PAIR      ENERGY CONTRIBUTION    RADIAL
 FREQUENCY           901.35         C 11 -- H 13         +31.5% ( 86.1%)     13.5%
 TRANSITION DIPOLE   0.1951         C 11 -- H 14         +28.7% ( 82.1%)     18.1%
 TRAVEL (Ang.)       0.2231         C  8 -- C 11         +16.1% ( 61.4%)      0.8%
 REDUCED MASS        1.5036         C 11 -- Cl12         +14.7% ( 58.7%)      0.2%
 EFFECTIVE MASS      6.1924
 FORCE CONSTANT      0.7197

 VIBRATION         26   26A           ATOM PAIR      ENERGY CONTRIBUTION    RADIAL
 FREQUENCY           987.51         C  8 -- C 11         +21.4% ( 80.8%)     95.2%
 TRANSITION DIPOLE   0.8478         O  9 -- O 10         +16.4% ( 70.7%)     99.7%
 TRAVEL (Ang.)       0.1444         C 11 -- Cl12         +12.6% ( 62.1%)     19.8%
 REDUCED MASS        3.2732         C 11 -- H 14         +12.6% ( 62.0%)      9.3%
 EFFECTIVE MASS     12.8656         C 11 -- H 13         +11.3% ( 58.8%)     24.6%
 FORCE CONSTANT      1.8806         C  8 -- O 10         +10.2% ( 55.7%)     72.3%

 VIBRATION         27   27A           ATOM PAIR      ENERGY CONTRIBUTION    RADIAL
 FREQUENCY          1055.27         C 11 -- H 13         +47.1% ( 75.5%)      2.2%
 TRANSITION DIPOLE   0.2415         C 11 -- H 14         +38.7% ( 68.4%)      0.6%
 TRAVEL (Ang.)       0.3739         C  8 -- O 10          +3.6% ( 20.9%)     63.6%
 REDUCED MASS        0.4571         C  8 -- C 11          +2.8% ( 18.3%)     34.6%
 EFFECTIVE MASS      1.9461
 FORCE CONSTANT      0.2999

 VIBRATION         28   28A           ATOM PAIR      ENERGY CONTRIBUTION    RADIAL
 FREQUENCY          1072.72         C  1 -- H  4         +36.0% ( 79.5%)     17.4%
 TRANSITION DIPOLE   0.0439         C  1 -- H  3         +35.7% ( 79.3%)     17.5%
 TRAVEL (Ang.)       0.2212         C  1 -- N  5         +14.2% ( 50.0%)      0.0%
 REDUCED MASS        1.2850         O  6 -- O  7          +6.1% ( 32.8%)      0.0%
 EFFECTIVE MASS      6.2618
 FORCE CONSTANT      0.8712

 VIBRATION         29   29A           ATOM PAIR      ENERGY CONTRIBUTION    RADIAL
 FREQUENCY          1207.01         O  6 -- O  7         +25.5% ( 61.6%)    100.0%
 TRANSITION DIPOLE   1.9949         N  5 -- O  6         +15.1% ( 47.5%)     96.1%
 TRAVEL (Ang.)       0.1728         N  5 -- O  7         +14.4% ( 46.2%)     95.2%
 REDUCED MASS        1.8702         C  1 -- H  3         +11.4% ( 41.1%)     93.0%
 EFFECTIVE MASS      9.8879         C  1 -- H  4         +11.2% ( 40.8%)     89.6%
 FORCE CONSTANT      1.6054

 VIBRATION         30   30A           ATOM PAIR      ENERGY CONTRIBUTION    RADIAL
 FREQUENCY          1209.54         C 11 -- H 14         +24.1% ( 51.3%)      0.9%
 TRANSITION DIPOLE   0.8082         C 11 -- H 13         +19.4% ( 46.0%)      1.1%
 TRAVEL (Ang.)       0.3505         O  6 -- O  7         +13.2% ( 37.9%)    100.0%
 REDUCED MASS        0.4537         N  5 -- O  7          +7.5% ( 28.5%)     96.2%
 EFFECTIVE MASS      4.8531
 FORCE CONSTANT      0.3911

 VIBRATION         31   31A           ATOM PAIR      ENERGY CONTRIBUTION    RADIAL
 FREQUENCY          1225.41         H 15 -- O 16         +49.1% ( 59.4%)      5.6%
 TRANSITION DIPOLE   0.7756         H  2 -- O 16         +22.5% ( 40.3%)     11.7%
 TRAVEL (Ang.)       0.3479         C 11 -- H 14         +12.1% ( 29.5%)      0.5%
 REDUCED MASS        0.4547         C 11 -- H 13          +9.9% ( 26.7%)      0.8%
 EFFECTIVE MASS      2.2569
 FORCE CONSTANT      0.4023

 VIBRATION         32   32A           ATOM PAIR      ENERGY CONTRIBUTION    RADIAL
 FREQUENCY          1256.94         C 11 -- H 14         +27.6% ( 65.8%)      1.6%
 TRANSITION DIPOLE   1.5319         C 11 -- H 13         +27.5% ( 65.7%)      1.1%
 TRAVEL (Ang.)       0.2407         C  8 -- C 11         +16.2% ( 50.4%)     90.3%
 REDUCED MASS        0.9256         C  8 -- O 10          +8.4% ( 36.2%)     88.4%
 EFFECTIVE MASS      4.8079
 FORCE CONSTANT      0.8616

 VIBRATION         33   33A           ATOM PAIR      ENERGY CONTRIBUTION    RADIAL
 FREQUENCY          1318.54         C  8 -- O 10         +31.2% ( 83.3%)     95.5%
 TRANSITION DIPOLE   3.7141         C  8 -- C 11         +17.8% ( 63.0%)     55.4%
 TRAVEL (Ang.)       0.1118         C  8 -- O  9         +16.5% ( 60.5%)      0.7%
 REDUCED MASS        4.0930         C  8 -- Cl12         +16.5% ( 60.5%)     14.1%
 EFFECTIVE MASS      9.9451
 FORCE CONSTANT      4.1925

 VIBRATION         34   34A           ATOM PAIR      ENERGY CONTRIBUTION    RADIAL
 FREQUENCY          1344.09         O 10 -- H 17         +81.6% ( 93.9%)     10.2%
 TRANSITION DIPOLE   0.5192         O  9 -- O 10          +7.5% ( 28.5%)     65.1%
 TRAVEL (Ang.)       0.2435         C  8 -- O  9          +5.5% ( 24.3%)     91.4%
 REDUCED MASS        0.8465         C  8 -- O 10          +2.8% ( 17.4%)     35.4%
 EFFECTIVE MASS      2.6983
 FORCE CONSTANT      0.9010

 VIBRATION         35   35A           ATOM PAIR      ENERGY CONTRIBUTION    RADIAL
 FREQUENCY          1360.99         C  1 -- H  3         +38.6% ( 64.2%)      1.5%
 TRANSITION DIPOLE   0.0349         C  1 -- H  4         +38.4% ( 64.1%)      1.5%
 TRAVEL (Ang.)       0.3051         C  1 -- N  5          +7.8% ( 28.9%)    100.0%
 REDUCED MASS        0.5323         N  5 -- O  6          +5.8% ( 24.8%)     75.1%
 EFFECTIVE MASS      3.4607
 FORCE CONSTANT      0.5809

 VIBRATION         36   36A           ATOM PAIR      ENERGY CONTRIBUTION    RADIAL
 FREQUENCY          1490.10         N  5 -- O  7         +34.5% ( 82.6%)     85.1%
 TRANSITION DIPOLE   8.7486         N  5 -- O  6         +34.3% ( 82.4%)     86.9%
 TRAVEL (Ang.)       0.0835         C  1 -- N  5         +22.8% ( 67.1%)      0.1%
 REDUCED MASS        6.4841         O  6 -- O  7          +5.9% ( 34.1%)      0.0%
 EFFECTIVE MASS     13.8494
 FORCE CONSTANT      8.4826

 VIBRATION         37   37A           ATOM PAIR      ENERGY CONTRIBUTION    RADIAL
 FREQUENCY          1692.49         C  1 -- N  5         +41.7% ( 96.6%)    100.0%
 TRANSITION DIPOLE  10.0721         N  5 -- O  7         +19.1% ( 65.4%)     41.2%
 TRAVEL (Ang.)       0.0788         N  5 -- O  6         +18.8% ( 64.8%)     35.7%
 REDUCED MASS        6.4123         C  1 -- H  4          +9.5% ( 46.2%)     23.4%
 EFFECTIVE MASS     13.1754
 FORCE CONSTANT     10.8223

 VIBRATION         38   38A           ATOM PAIR      ENERGY CONTRIBUTION    RADIAL
 FREQUENCY          1777.06         C  8 -- O  9         +39.3% ( 96.3%)     99.7%
 TRANSITION DIPOLE   8.3837         C  8 -- C 11         +17.1% ( 63.5%)     45.0%
 TRAVEL (Ang.)       0.0799         C  8 -- O 10         +16.9% ( 63.2%)     13.9%
 REDUCED MASS        5.9400         C  8 -- Cl12         +16.6% ( 62.6%)     44.6%
 EFFECTIVE MASS     12.6510
 FORCE CONSTANT     11.0519

 VIBRATION         39   39A           ATOM PAIR      ENERGY CONTRIBUTION    RADIAL
 FREQUENCY          1900.38         H  2 -- O 16         +91.7% ( 97.0%)     98.9%
 TRANSITION DIPOLE   2.0501         H 15 -- O 16          +2.1% ( 14.7%)     47.2%
 TRAVEL (Ang.)       0.1479         C  8 -- O  9          +1.3% ( 11.7%)     98.6%
 REDUCED MASS        1.6216         O 10 -- H 17          +0.9% (  9.5%)     86.0%
 EFFECTIVE MASS      3.0344
 FORCE CONSTANT      3.4505

 VIBRATION         40   40A           ATOM PAIR      ENERGY CONTRIBUTION    RADIAL
 FREQUENCY          2328.80         O 10 -- H 17         +91.4% ( 95.9%)     99.1%
 TRANSITION DIPOLE   3.4905         C  8 -- O  9          +1.8% ( 13.6%)     82.4%
 TRAVEL (Ang.)       0.1846         H 15 -- O 16          +1.8% ( 13.5%)     95.1%
 REDUCED MASS        0.8495         C  8 -- O 10          +1.3% ( 11.6%)     37.3%
 EFFECTIVE MASS      1.6655
 FORCE CONSTANT      2.7143

 VIBRATION         41   41A           ATOM PAIR      ENERGY CONTRIBUTION    RADIAL
 FREQUENCY          2581.51         C 11 -- H 13         +52.9% ( 75.5%)     98.2%
 TRANSITION DIPOLE   1.3493         C 11 -- H 14         +45.2% ( 69.8%)     97.5%
 TRAVEL (Ang.)       0.2275         C 11 -- Cl12          +0.9% ( 10.0%)      0.0%
 REDUCED MASS        0.5046         C  8 -- C 11          +0.9% (  9.9%)      0.0%
 EFFECTIVE MASS      1.4638
 FORCE CONSTANT      1.9814

 VIBRATION         42   42A           ATOM PAIR      ENERGY CONTRIBUTION    RADIAL
 FREQUENCY          2679.53         C 11 -- H 14         +53.9% ( 71.8%)     97.1%
 TRANSITION DIPOLE   1.1258         C 11 -- H 13         +44.9% ( 65.6%)     96.0%
 TRAVEL (Ang.)       0.2282         C 11 -- Cl12          +0.5% (  6.6%)     24.6%
 REDUCED MASS        0.4834         C  8 -- C 11          +0.4% (  6.5%)     20.7%
 EFFECTIVE MASS      1.2425
 FORCE CONSTANT      2.0450

 VIBRATION         43   43A           ATOM PAIR      ENERGY CONTRIBUTION    RADIAL
 FREQUENCY          2717.01         C  1 -- H  4         +51.6% ( 74.1%)     98.9%
 TRANSITION DIPOLE   1.0636         C  1 -- H  3         +47.2% ( 71.0%)     98.6%
 TRAVEL (Ang.)       0.2206         C  1 -- N  5          +1.1% ( 10.9%)      0.0%
 REDUCED MASS        0.5098
 EFFECTIVE MASS      1.5137
 FORCE CONSTANT      2.2173

 VIBRATION         44   44A           ATOM PAIR      ENERGY CONTRIBUTION    RADIAL
 FREQUENCY          2753.15         H 15 -- O 16         +98.7% ( 98.5%)     99.5%
 TRANSITION DIPOLE   1.3976         O 10 -- H 17          +0.8% (  9.1%)     99.5%
 TRAVEL (Ang.)       0.1639         H  2 -- O 16          +0.4% (  6.5%)      2.5%
 REDUCED MASS        0.9112
 EFFECTIVE MASS      1.3226
 FORCE CONSTANT      4.0695

 VIBRATION         45   45A           ATOM PAIR      ENERGY CONTRIBUTION    RADIAL
 FREQUENCY          2785.40         C  1 -- H  3         +52.0% ( 70.7%)     95.9%
 TRANSITION DIPOLE   1.2813         C  1 -- H  4         +47.2% ( 67.3%)     95.2%
 TRAVEL (Ang.)       0.2243         C  1 -- N  5          +0.6% (  7.8%)     99.6%
 REDUCED MASS        0.4812
 EFFECTIVE MASS      1.2423
 FORCE CONSTANT      2.1996

      SYMMETRY NUMBER FOR POINT-GROUP C1  =  1


          SYSTEM IS A GROUND STATE



 Title: ASE calculation


          MOLECULE IS NOT LINEAR

          THERE ARE 45 GENUINE VIBRATIONS IN THIS SYSTEM
          THIS THERMODYNAMICS CALCULATION IS LIMITED TO
          MOLECULES WHICH HAVE NO INTERNAL ROTATIONS




                    CALCULATED THERMODYNAMIC PROPERTIES
                                          *
   TEMP. (K)   PARTITION FUNCTION   H.O.F.    ENTHALPY  HEAT CAPACITY ENTROPY
                                   KCAL/MOL   CAL/MOLE    CAL/K/MOL  CAL/K/MOL


 298.00  VIB.     0.2054D+07                  7063.7173    38.6599    52.5883
         ROT.     0.2143D+07                   888.2803     2.9808    31.9501
         INT.     0.4402D+13                  7951.9976    41.6407    84.5384
         TRA.     0.2210D+28                  1480.4672     4.9680    41.3591
         TOT.                     -300.441    9432.4648    46.6087   125.8975

   *: NOTE: HEATS OF FORMATION ARE RELATIVE TO THE
            ELEMENTS IN THEIR STANDARD STATE AT 298K
              (=  Standard Enthalpy of Formation).

            Hvib:  Zero-point energy is not included.
                   frequencies of less than zero cm-1 are not included.
            Hrot = (3/2)RT
            Htra = (3/2)RT + pV = (5/2)RT

            Heat capacity is Cp, not Cv

          For more information, see: HTTP://OpenMOPAC.net/Manual/thermochemistry.html


           FORCE CONSTANT IN CARTESIAN COORDINATES (Millidynes/A)

    ATOM   CHEMICAL       X               Y               Z
   NUMBER   SYMBOL  FORCE CONSTANT  FORCE CONSTANT  FORCE CONSTANT

      1       C        3.272197        9.068506        9.348207
      2       H        3.545701        0.496591        0.546464
      3       H        0.392115        4.192362        0.659913
      4       H        1.035206        1.139847        3.081919
      5       N        4.973261       13.171262       11.921672
      6       O        2.250719        2.780468        6.578020
      7       O        0.649762        9.688758        1.382939
      8       C        9.413817       12.600784        4.227141
      9       O        4.958535        8.634331        1.390226
     10       O        6.565086        4.211573        1.759229
     11       C        5.635637        6.465978        5.156184
     12      Cl        1.506318        0.961803        2.064970
     13       H        0.583244        1.654443        2.894769
     14       H        3.582441        0.772802        0.882571
     15       H        0.537087        2.519409        1.789727
     16       O        3.870119        3.031200        2.230591
     17       H        1.583316        1.942011        0.809244

 **********************
 *                    *
 * JOB ENDED NORMALLY *
 *                    *
 **********************



 TOTAL JOB TIME:             1.50 SECONDS

 == MOPAC DONE ==
