
                                 *****************
                                 * O   R   C   A *
                                 *****************

                                            #,                                       
                                            ###                                      
                                            ####                                     
                                            #####                                    
                                            ######                                   
                                           ########,                                 
                                     ,,################,,,,,                         
                               ,,#################################,,                 
                          ,,##########################################,,             
                       ,#########################################, ''#####,          
                    ,#############################################,,   '####,        
                  ,##################################################,,,,####,       
                ,###########''''           ''''###############################       
              ,#####''   ,,,,##########,,,,          '''####'''          '####       
            ,##' ,,,,###########################,,,                        '##       
           ' ,,###''''                  '''############,,,                           
         ,,##''                                '''############,,,,        ,,,,,,###''
      ,#''                                            '''#######################'''  
     '                                                          ''''####''''         
             ,#######,   #######,   ,#######,      ##                                
            ,#'     '#,  ##    ##  ,#'     '#,    #''#        ######   ,####,        
            ##       ##  ##   ,#'  ##            #'  '#       #        #'  '#        
            ##       ##  #######   ##           ,######,      #####,   #    #        
            '#,     ,#'  ##    ##  '#,     ,#' ,#      #,         ##   #,  ,#        
             '#######'   ##     ##  '#######'  #'      '#     #####' # '####'        



                  #######################################################
                  #                        -***-                        #
                  #          Department of theory and spectroscopy      #
                  #    Directorship and core code : Frank Neese         #
                  #        Max Planck Institute fuer Kohlenforschung    #
                  #                Kaiser Wilhelm Platz 1               #
                  #                 D-45470 Muelheim/Ruhr               #
                  #                      Germany                        #
                  #                                                     #
                  #                  All rights reserved                #
                  #                        -***-                        #
                  #######################################################


                         Program Version 5.0.4 -  RELEASE  -


 With contributions from (in alphabetic order):
   Daniel Aravena         : Magnetic Suceptibility
   Michael Atanasov       : Ab Initio Ligand Field Theory (pilot matlab implementation)
   Alexander A. Auer      : GIAO ZORA, VPT2 properties, NMR spectrum
   Ute Becker             : Parallelization
   Giovanni Bistoni       : ED, misc. LED, open-shell LED, HFLD
   Martin Brehm           : Molecular dynamics
   Dmytro Bykov           : SCF Hessian
   Vijay G. Chilkuri      : MRCI spin determinant printing, contributions to CSF-ICE
   Dipayan Datta          : RHF DLPNO-CCSD density
   Achintya Kumar Dutta   : EOM-CC, STEOM-CC
   Dmitry Ganyushin       : Spin-Orbit,Spin-Spin,Magnetic field MRCI
   Miquel Garcia          : C-PCM and meta-GGA Hessian, CC/C-PCM, Gaussian charge scheme
   Yang Guo               : DLPNO-NEVPT2, F12-NEVPT2, CIM, IAO-localization
   Andreas Hansen         : Spin unrestricted coupled pair/coupled cluster methods
   Benjamin Helmich-Paris : MC-RPA, TRAH-SCF, COSX integrals
   Lee Huntington         : MR-EOM, pCC
   Robert Izsak           : Overlap fitted RIJCOSX, COSX-SCS-MP3, EOM
   Marcus Kettner         : VPT2
   Christian Kollmar      : KDIIS, OOCD, Brueckner-CCSD(T), CCSD density, CASPT2, CASPT2-K
   Simone Kossmann        : Meta GGA functionals, TD-DFT gradient, OOMP2, MP2 Hessian
   Martin Krupicka        : Initial AUTO-CI
   Lucas Lang             : DCDCAS
   Marvin Lechner         : AUTO-CI (C++ implementation), FIC-MRCC
   Dagmar Lenk            : GEPOL surface, SMD
   Dimitrios Liakos       : Extrapolation schemes; Compound Job, initial MDCI parallelization
   Dimitrios Manganas     : Further ROCIS development; embedding schemes
   Dimitrios Pantazis     : SARC Basis sets
   Anastasios Papadopoulos: AUTO-CI, single reference methods and gradients
   Taras Petrenko         : DFT Hessian,TD-DFT gradient, ASA, ECA, R-Raman, ABS, FL, XAS/XES, NRVS
   Peter Pinski           : DLPNO-MP2, DLPNO-MP2 Gradient
   Christoph Reimann      : Effective Core Potentials
   Marius Retegan         : Local ZFS, SOC
   Christoph Riplinger    : Optimizer, TS searches, QM/MM, DLPNO-CCSD(T), (RO)-DLPNO pert. Triples
   Tobias Risthaus        : Range-separated hybrids, TD-DFT gradient, RPA, STAB
   Michael Roemelt        : Original ROCIS implementation
   Masaaki Saitow         : Open-shell DLPNO-CCSD energy and density
   Barbara Sandhoefer     : DKH picture change effects
   Avijit Sen             : IP-ROCIS
   Kantharuban Sivalingam : CASSCF convergence, NEVPT2, FIC-MRCI
   Bernardo de Souza      : ESD, SOC TD-DFT
   Georgi Stoychev        : AutoAux, RI-MP2 NMR, DLPNO-MP2 response
   Willem Van den Heuvel  : Paramagnetic NMR
   Boris Wezisla          : Elementary symmetry handling
   Frank Wennmohs         : Technical directorship


 We gratefully acknowledge several colleagues who have allowed us to
 interface, adapt or use parts of their codes:
   Stefan Grimme, W. Hujo, H. Kruse, P. Pracht,  : VdW corrections, initial TS optimization,
                  C. Bannwarth, S. Ehlert          DFT functionals, gCP, sTDA/sTD-DF
   Ed Valeev, F. Pavosevic, A. Kumar             : LibInt (2-el integral package), F12 methods
   Garnet Chan, S. Sharma, J. Yang, R. Olivares  : DMRG
   Ulf Ekstrom                                   : XCFun DFT Library
   Mihaly Kallay                                 : mrcc  (arbitrary order and MRCC methods)
   Jiri Pittner, Ondrej Demel                    : Mk-CCSD
   Frank Weinhold                                : gennbo (NPA and NBO analysis)
   Christopher J. Cramer and Donald G. Truhlar   : smd solvation model
   Lars Goerigk                                  : TD-DFT with DH, B97 family of functionals
   V. Asgeirsson, H. Jonsson                     : NEB implementation
   FAccTs GmbH                                   : IRC, NEB, NEB-TS, DLPNO-Multilevel, CI-OPT
                                                   MM, QMMM, 2- and 3-layer-ONIOM, Crystal-QMMM,
                                                   LR-CPCM, SF, NACMEs, symmetry and pop. for TD-DFT,
                                                   nearIR, NL-DFT gradient (VV10), updates on ESD,
                                                   ML-optimized integration grids
   S Lehtola, MJT Oliveira, MAL Marques          : LibXC Library
   Liviu Ungur et al                             : ANISO software


 Your calculation uses the libint2 library for the computation of 2-el integrals
 For citations please refer to: http://libint.valeyev.net

 Your ORCA version has been built with support for libXC version: 5.1.0
 For citations please refer to: https://tddft.org/programs/libxc/

 This ORCA versions uses:
   CBLAS   interface :  Fast vector & matrix operations
   LAPACKE interface :  Fast linear algebra routines
   SCALAPACK package :  Parallel linear algebra routines
   Shared memory     :  Shared parallel matrices
   BLAS/LAPACK       :  OpenBLAS 0.3.15  USE64BITINT DYNAMIC_ARCH NO_AFFINITY Prescott SINGLE_THREADED
        Core in use  :  Prescott
   Copyright (c) 2011-2014, The OpenBLAS Project




***************************************
The coordinates will be read from file: start.xyz
***************************************


Your calculation utilizes the atom-pairwise dispersion correction
with the Becke-Johnson damping scheme (D3BJ)
Cite in your paper:
S.Grimme, S.Ehrlich, L.Goerigk, J Comput Chem, (2011), 32, 1456–1465 
S.Grimme, J.Antony, S.Ehrlich and H.Krieg, J.Chem.Phys., 132, (2010), 154104 
   

Your calculation utilizes a Nudged-Elastic-Band implementation
 by V.Asgeirsson, C. Riplinger & H. Jonsson
Please cite in your paper:
 V. Asgeirsson et al., in prep. (2019)
   

================================================================================

----- Orbital basis set information -----
Your calculation utilizes the basis: def2-TZVP
   F. Weigend and R. Ahlrichs, Phys. Chem. Chem. Phys. 7, 3297 (2005).

----- AuxJ basis set information -----
Your calculation utilizes the auxiliary basis: def2/J
   F. Weigend, Phys. Chem. Chem. Phys. 8, 1057 (2006).

================================================================================
                                        WARNINGS
                       Please study these warnings very carefully!
================================================================================


WARNING: Geometry Optimization
  ===> : Switching off AutoStart
         For restart on a previous wavefunction, please use MOREAD

INFO   : the flag for use of the SHARK integral package has been found!

================================================================================
                                       INPUT FILE
================================================================================
NAME = neb.inp
|  1> ! NEB-TS b3lyp D3 def2-TZVP CPCM
|  2> 
|  3> %pal
|  4> nprocs 102
|  5> end
|  6> 
|  7> %cpcm
|  8> epsilon 78.4
|  9> end
| 10> 
| 11> %neb
| 12> NEB_End_XYZFile "end.xyz"
| 13> Nimages 6
| 14> end
| 15> 
| 16> 
| 17> *XYZfile 0 1 start.xyz
| 18> 
| 19>                          ****END OF INPUT****
================================================================================


--------------------------------------------------------------------------------
                        Nudged Elastic Band Calculation
--------------------------------------------------------------------------------

Number of images (incl. end points)     ....  8
Number of intermediate images           ....  6
Number of optimized images              ....  6
Optimization of end points before NEB   ....  NO
Use existing gbw files for MO input     ....  NO
Number of atoms                         ....  40
Number of (active) degrees of freedom   ....  120
Constrained atoms                       ....  None

-----------------------------------------
  REACTANT (ANGSTROEM)
-----------------------------------------
C      2.008926     2.654366     2.092256 
C      2.103005     1.268034     2.088351 
C      1.017588     0.489365     1.695919 
C     -0.167625     1.105678     1.296577 
C     -0.240693     2.490234     1.302058 
C      0.832406     3.279043     1.697155 
H      2.854632     3.253885     2.402917 
H      3.017628     0.782486     2.394626 
H     -1.021480     0.523187     0.980908 
Cl    -1.728733     3.264736     0.798833 
H      0.747477     4.356815     1.695759 
C      1.150370    -1.017219     1.706651 
C      0.013970    -1.763512     2.376060 
H      0.174667    -2.839854     2.314942 
H     -0.950775    -1.523246     1.934810 
H     -0.000466    -1.473825     3.427214 
N      1.300376    -1.463491     0.245433 
O      2.427349    -1.453110    -0.223196 
O      0.300486    -1.771825    -0.379160 
N      5.904161    -0.300235     3.271570 
C      6.544807    -1.416372     2.555132 
C      7.928406    -1.065492     2.007322 
C      7.868664     0.193645     1.139229 
C      7.204046     1.344335     1.898981 
C      5.842276     0.915803     2.445374 
H      2.104707    -1.284799     2.153344 
H      6.600035    -2.269165     3.234316 
H      5.880711    -1.697728     1.731336 
H      8.323314    -1.910580     1.436846 
H      8.609845    -0.897864     2.848741 
H      8.871074     0.480132     0.812216 
H      7.288299    -0.021577     0.234803 
H      7.080993     2.216349     1.250816 
H      7.843312     1.651864     2.734079 
H      5.390521     1.711767     3.040375 
H      5.166092     0.708498     1.610395 
H      6.448265    -0.098205     4.106830 
H      2.933539    -0.637660     4.486321 
H      4.333992    -0.894153     3.843218 
O      3.489931    -1.343795     4.137669 

-----------------------------------------
  PRODUCT (ANGSTROEM)
-----------------------------------------
C      1.702511     2.771551    -0.488556 
C      1.906910     1.447984    -0.131330 
C      1.342209     0.385850    -0.869029 
C      0.540258     0.733510    -1.974581 
C      0.355588     2.062373    -2.308571 
C      0.924084     3.105796    -1.592860 
H      2.165810     3.558776     0.093043 
H      2.538655     1.233512     0.718778 
H      0.088537    -0.040253    -2.569663 
Cl    -0.629229     2.437600    -3.718997 
H      0.771594     4.134154    -1.887877 
C      1.610549    -0.986375    -0.450982 
C      1.929539    -1.314785     0.980811 
H      2.977324    -1.594139     1.134062 
H      1.329347    -2.163328     1.312756 
H      1.710278    -0.466820     1.625935 
N      1.529221    -2.032672    -1.295727 
O      1.800014    -3.211741    -0.867983 
O      1.221199    -1.895901    -2.535129 
N      4.228839    -0.527900    -4.211710 
C      3.755778    -1.876115    -4.675922 
C      3.249409    -1.800068    -6.106871 
C      2.165171    -0.731670    -6.262388 
C      2.668894     0.624011    -5.764805 
C      3.170342     0.528453    -4.335099 
H      3.714324    -0.810277    -1.107453 
H      4.596605    -2.559491    -4.571544 
H      2.964903    -2.164697    -3.982238 
H      2.867827    -2.784277    -6.383905 
H      4.086261    -1.579304    -6.777361 
H      1.860237    -0.657967    -7.307542 
H      1.281567    -1.023103    -5.686533 
H      1.873599     1.370665    -5.793573 
H      3.474914     0.984174    -6.412038 
H      3.606898     1.461579    -3.984008 
H      2.374403     0.230442    -3.656528 
H      5.057844    -0.248843    -4.739488 
H      4.873629     0.195921    -1.052187 
H      4.504616    -0.594130    -3.211567 
O      4.624550    -0.662026    -1.421147 



----------------------
NEB settings
----------------------
Method type                             ....  climbing image
Threshold for climbing image            ....  2.00e-02 Eh/Bohr 
Free endpoints                          ....  off 
Tangent type                            ....  improved 
Number of intermediate images           ....  6 
Number of images free to move           ....  6 
Spring type for image distribution      ....  distance between adjacent images 
Spring constant                         ....  energy weighted (0.0100 -to- 0.1000) Eh/Bohr^2 
Spring force perp. to the path          ....  none 
Generation of initial path              ....  image dependent pair potential 
Initial path via TS guess               ....  off 

Minimization of RMSD: Rotation          ....  always 
Minimization of RMSD: Translation type  ....  centroid 
Center fixed to origin                  ....  true 
Remove external force                   ....  true 

Reparametrization of the path           ....  off 
Convergence thresholds:
Convergence monitored for               ....  all images
Scaling factor                          ....  10.00

Convergence parameters for regular images:
               Max(|Fp|)                ....  2.00e-02 Eh/Bohr
               RMS(Fp)                  ....  1.00e-02 Eh/Bohr

Convergence parameters for climbing image:
               Max(|F|)                 ....  2.00e-03 Eh/Bohr
               RMS(F)                   ....  1.00e-03 Eh/Bohr
Optimization method:
Method                                  ....  L-BFGS
Max. iterations                         ....  500 
Step size                               ....  1.00 
Maximum allowed step size               ....  0.10 Bohr

LBFGS parameters: 
               Memory                   ....  20 
               Initial step size        ....  0.0010 
               Estimate curvature       ....  YES 
               Reset on maxmove         ....  YES 
               Reparam. on reset        ....  NO 
Generation of  the initial path:
Minimize RMSD between reactant and product configurations     .... done
       RMSD before minimization         ....  6.8326 Bohr
       RMSD after minimization          ....  1.8050 Bohr
Performing linear interpolation         ....  done
Interpolation using                     ....  IDPP (Image Dependent Pair Potential)
IDPP-Settings:
       Remove global transl. and rot.   ...   true
       Convergence tolerance            ....  0.0100 1/Ang.^3
       Max. numer of iterations         ....    7000
       Spring constant                  ....  1.0000 1/Ang.^4
       Time step                        ....  0.0100 fs
       Max. movement per iteration      ....  0.0500 Ang.
       Full print                       ....  false 
idpp initial path generation successfully converged in 92 iterations
Displacement along initial path:             22.0417 Bohr
Writing initial trajectory to file      ....  neb_initial_path_trj.xyz



----------------------
NEB OPTIMIZATION      
----------------------

Following output files will be written:
Energy profile during opt. written to    ....  neb.interp
Optimization log-file                    ....  neb.NEB.log
Current trajectory will be written to    ....  neb_MEP_trj.xyz
       and to allxyz file                ....  neb_MEP.allxyz
       and individual images to xyz file ....  neb_im{NIm}.xyz
Trajectory history will be written to    ....  neb_MEP_ALL_trj.xyz
Converged CI will be written to          ....  neb_NEB-CI_converged.xyz
Converged TS will be written to          ....  neb_NEB-TS_converged.xyz

Single point energy and gradient calculation of reactant and
product configurations (have to be performed only once)
Properties of fixed NEB end points:
               Reactant:
                         E               ....  -1303.215765 Eh
                         RMS(F)          ....      0.000107 Eh/Bohr
                         MAX(|F|)        ....      0.000637 Eh/Bohr
               Product:
                         E               ....  -1303.214207 Eh
                         RMS(F)          ....      0.000170 Eh/Bohr
                         MAX(|F|)        ....      0.000646 Eh/Bohr



Starting iterations:

Optim.  Iteration  HEI  E(HEI)-E(0)  max(|Fp|)   RMS(Fp)    dS
Switch-on CI threshold               0.020000 
   LBFGS     0      4    0.124809    0.100206   0.014226  22.0417       
   LBFGS     1      4    0.100008    0.063557   0.009407  22.0688       
   LBFGS     2      4    0.083960    0.049195   0.006880  22.1336       
   LBFGS     3      4    0.074214    0.044921   0.005641  22.1849       
   LBFGS     4      4    0.066373    0.037733   0.004757  22.2339       
   LBFGS     5      4    0.058044    0.033506   0.004141  22.2947       
   LBFGS     6      4    0.049230    0.032960   0.003804  22.3743       
   LBFGS     7      4    0.040946    0.026814   0.003973  22.4614       
   LBFGS     8      4    0.035251    0.022490   0.003359  22.5779       
   LBFGS     9      4    0.033773    0.040287   0.005855  22.6465       
   LBFGS    10      4    0.030539    0.030233   0.004202  22.7029       
   LBFGS    11      4    0.027177    0.017531   0.002893  22.8142       

Image  4 will be converted to a climbing image in the next iteration (max(|Fp|) < 0.0200) 

Optim.  Iteration  CI   E(CI)-E(0)   max(|Fp|)   RMS(Fp)    dS     max(|FCI|)   RMS(FCI)
Convergence thresholds               0.020000   0.010000            0.002000    0.001000 
   LBFGS    12      4    0.025835    0.008260   0.001373  22.8285    0.012435    0.002926       
   LBFGS    13      4    0.025535    0.025122   0.003399  22.8815    0.019724    0.004366       
   LBFGS    14      4    0.025685    0.030753   0.004492  22.9879    0.028816    0.006675       
   LBFGS    15      4    0.022599    0.010099   0.001543  22.9911    0.015840    0.002994       
   LBFGS    16      4    0.021956    0.009519   0.001613  22.9951    0.016474    0.003080       
   LBFGS    17      4    0.022463    0.011366   0.002078  23.0381    0.032648    0.006173       
   LBFGS    18      4    0.020434    0.021319   0.003136  23.0576    0.018452    0.004394       
   LBFGS    19      4    0.019974    0.008629   0.001687  23.1006    0.018662    0.003436       
   LBFGS    20      4    0.020880    0.009923   0.001599  23.2356    0.030872    0.005301       
   LBFGS    21      4    0.018288    0.019087   0.002490  23.2299    0.018735    0.004525       
   LBFGS    22      4    0.019058    0.008960   0.001627  23.2659    0.030126    0.005432       
   LBFGS    23      4    0.024595    0.010533   0.001773  23.3951    0.054368    0.008934       
   LBFGS    24      4    0.017379    0.028259   0.002551  23.3733    0.018592    0.003913       
   LBFGS    25      4    0.017730    0.007992   0.000876  23.4249    0.017715    0.003333       
   LBFGS    26      4    0.020731    0.025435   0.002470  23.5590    0.022127    0.005311       
   LBFGS    27      4    0.018530    0.016075   0.002011  23.5454    0.018865    0.003938       
   LBFGS    28      4    0.018369    0.013662   0.001371  23.5673    0.021734    0.003965       
   LBFGS    29      4    0.023229    0.014954   0.001518  23.7140    0.043773    0.007569       
   LBFGS    30      4    0.019398    0.020049   0.002323  23.7897    0.018582    0.004015       
   LBFGS    31      4    0.020930    0.019731   0.001847  23.9103    0.018715    0.004625       
   LBFGS    32      4    0.022373    0.024677   0.002726  24.0644    0.021678    0.005434       
   LBFGS    33      4    0.023304    0.029558   0.003259  24.2648    0.022420    0.005717       
   LBFGS    34      4    0.021050    0.020979   0.002146  24.2713    0.019861    0.004009       
   LBFGS    35      4    0.020950    0.012687   0.001375  24.2953    0.022650    0.003938       
   LBFGS    36      4    0.025725    0.024829   0.001957  24.4411    0.034101    0.006620       
   LBFGS    37      4    0.026502    0.030151   0.002434  24.5174    0.028440    0.004714       
   LBFGS    38      4    0.030712    0.018869   0.001744  24.6191    0.026209    0.005360       
   LBFGS    39      4    0.029830    0.048504   0.003948  24.5834    0.023997    0.004578       
   LBFGS    40      4    0.030827    0.031808   0.002310  24.6218    0.021011    0.004470       
   LBFGS    41      4    0.033536    0.034474   0.003454  24.6893    0.028655    0.005704       
   LBFGS    42      4    0.030441    0.045729   0.003604  24.6811    0.016423    0.003461       
   LBFGS    43      4    0.029767    0.019167   0.001725  24.6756    0.015925    0.002538       
   LBFGS    44      4    0.031181    0.018131   0.001925  24.6585    0.019149    0.003996       
   LBFGS    45      4    0.031636    0.032163   0.002135  24.6423    0.019569    0.004227       
   LBFGS    46      4    0.033077    0.040064   0.002499  24.6394    0.022930    0.004936       
   LBFGS    47      4    0.030319    0.042021   0.002929  24.5685    0.012047    0.002318       
   LBFGS    48      4    0.029916    0.014394   0.001218  24.5588    0.010819    0.001631       
   LBFGS    49      4    0.030484    0.020456   0.001650  24.5217    0.014372    0.002793       
   LBFGS    50      4    0.030810    0.025876   0.001844  24.5032    0.019546    0.003516       
   LBFGS    51      4    0.030145    0.027564   0.002183  24.4734    0.019418    0.003951       
   LBFGS    52      4    0.028759    0.019963   0.001482  24.4508    0.009058    0.002540       
   LBFGS    53      4    0.028348    0.011048   0.000946  24.4425    0.007550    0.001849       
   LBFGS    54      4    0.028874    0.005985   0.000582  24.4291    0.010452    0.002110       
   LBFGS    55      4    0.028875    0.010468   0.000924  24.4087    0.012060    0.002032       
   LBFGS    56      4    0.028262    0.017570   0.001179  24.4045    0.004349    0.001433       
   LBFGS    57      4    0.027741    0.013985   0.001126  24.4178    0.005104    0.001261       
   LBFGS    58      4    0.027690    0.006718   0.000636  24.4086    0.004181    0.001114       
   LBFGS    59      4    0.027589    0.002783   0.000396  24.4166    0.003954    0.000786       
   LBFGS    60      4    0.027540    0.005158   0.000513  24.4523    0.002843    0.000781       
   LBFGS    61      4    0.028010    0.007427   0.000761  24.5611    0.006533    0.001473       
   LBFGS    62      4    0.028613    0.009724   0.001091  24.6791    0.011383    0.002051       
   LBFGS    63      4    0.029481    0.012491   0.001352  24.8503    0.016739    0.003049       
   LBFGS    64      4    0.030114    0.017982   0.001760  25.0374    0.020188    0.003810       
   LBFGS    65      4    0.028668    0.014462   0.001603  24.9748    0.013924    0.003170       
   LBFGS    66      4    0.027569    0.010432   0.001145  24.9366    0.011572    0.002809       
   LBFGS    67      4    0.023661    0.009862   0.000842  24.7967    0.018760    0.003040       
   LBFGS    68      4    0.025637    0.057699   0.003734  24.7957    0.017553    0.003830       
   LBFGS    69      4    0.028266    0.047597   0.003773  24.8507    0.013980    0.003648       
   LBFGS    70      4    0.030490    0.055507   0.003418  24.9137    0.011575    0.002608       
   LBFGS    71      4    0.029806    0.024390   0.001894  24.8799    0.010953    0.001962       
   LBFGS    72      4    0.029276    0.022399   0.001598  24.8337    0.009807    0.001901       
   LBFGS    73      4    0.027445    0.028106   0.001863  24.7095    0.006683    0.001619       
   LBFGS    74      4    0.027078    0.017811   0.001318  24.7287    0.006895    0.001453       
   LBFGS    75      4    0.026778    0.014061   0.000945  24.7417    0.006952    0.001374       
   LBFGS    76      4    0.025686    0.009084   0.000853  24.8099    0.005986    0.001186       
   LBFGS    77      4    0.025613    0.010611   0.001052  24.8416    0.005059    0.001285       
   LBFGS    78      4    0.025668    0.008281   0.000569  24.8813    0.004042    0.000937       
   LBFGS    79      4    0.027074    0.006323   0.000708  25.0011    0.015951    0.002092       
   LBFGS    80      4    0.029882    0.011854   0.001269  25.1153    0.028139    0.003508       
   LBFGS    81      4    0.036671    0.021015   0.002296  25.3422    0.051206    0.006285       
   LBFGS    82      4    0.032780    0.033719   0.002720  25.2710    0.024222    0.004715       
   LBFGS    83      4    0.029164    0.019108   0.001713  25.2225    0.028140    0.004638       
   LBFGS    84      4    0.021026    0.008587   0.000976  25.1325    0.023653    0.004401       
   LBFGS    85      4    0.020133    0.019515   0.002049  25.1702    0.024437    0.004482       
   LBFGS    86      4    0.022052    0.018545   0.001842  25.2306    0.022850    0.004114       
   LBFGS    87      4    0.023639    0.031924   0.002236  25.1595    0.018723    0.003559       
   LBFGS    88      4    0.025643    0.022701   0.001967  25.0936    0.016451    0.003135       
   LBFGS    89      4    0.028605    0.022606   0.001817  24.9216    0.014452    0.002501       
   LBFGS    90      4    0.027456    0.038962   0.002110  24.9463    0.009971    0.001896       
   LBFGS    91      4    0.026849    0.009910   0.000881  24.9638    0.006794    0.001565       
   LBFGS    92      4    0.026389    0.010046   0.000633  24.9681    0.006823    0.001441       
   LBFGS    93      4    0.025723    0.016665   0.000934  24.9854    0.006622    0.001332       
   LBFGS    94      4    0.025023    0.016481   0.000997  25.0600    0.005482    0.001123       
   LBFGS    95      4    0.026059    0.028421   0.002016  25.1966    0.012019    0.002101       
   LBFGS    96      4    0.025952    0.008142   0.000755  25.1829    0.010946    0.001527       
   LBFGS    97      4    0.025928    0.006896   0.000581  25.1691    0.009869    0.001399       
   LBFGS    98      4    0.025482    0.004326   0.000472  25.0991    0.004184    0.001009       
   LBFGS    99      4    0.024927    0.013087   0.001089  25.0861    0.007698    0.001810       
   LBFGS   100      4    0.024585    0.013794   0.001159  25.0983    0.009546    0.002093       
   LBFGS   101      4    0.025058    0.017252   0.001376  25.1279    0.009553    0.002032       
   LBFGS   102      4    0.025254    0.007994   0.000788  25.1186    0.009636    0.001646       
   LBFGS   103      4    0.025453    0.007878   0.000700  25.1026    0.009368    0.001507       
   LBFGS   104      4    0.025374    0.017518   0.001346  25.0231    0.007060    0.001530       
   LBFGS   105      4    0.025096    0.018035   0.001255  25.0745    0.007415    0.001416       
   LBFGS   106      4    0.025148    0.006873   0.000569  25.0941    0.003757    0.000926       
   LBFGS   107      4    0.024957    0.002248   0.000255  25.1143    0.003680    0.000781       
   LBFGS   108      4    0.024669    0.004565   0.000385  25.1574    0.003888    0.000790       
   LBFGS   109      4    0.024734    0.006392   0.000708  25.2227    0.006014    0.000995       
   LBFGS   110      4    0.025449    0.007730   0.000689  25.2810    0.011328    0.001460       
   LBFGS   111      4    0.028556    0.008930   0.001037  25.4055    0.026318    0.003316       
   LBFGS   112      4    0.026363    0.024454   0.002341  25.2854    0.019368    0.003100       
   LBFGS   113      4    0.024783    0.005147   0.000731  25.2368    0.018527    0.002985       
   LBFGS   114      4    0.021702    0.014529   0.001509  25.1555    0.017479    0.003547       
   LBFGS   115      4    0.021159    0.026111   0.002572  25.1692    0.017707    0.003758       
   LBFGS   116      4    0.024646    0.034477   0.004070  25.3070    0.022938    0.004814       
   LBFGS   117      4    0.024762    0.023797   0.002957  25.2945    0.017484    0.003435       
   LBFGS   118      4    0.025317    0.011764   0.001355  25.2860    0.016813    0.003011       
   LBFGS   119      4    0.026641    0.010575   0.001092  25.2449    0.013905    0.002297       
   LBFGS   120      4    0.027043    0.010927   0.001331  25.2157    0.011049    0.001760       
   LBFGS   121      4    0.025209    0.018219   0.001849  25.1777    0.010101    0.002089       
   LBFGS   122      4    0.024270    0.015419   0.001598  25.2247    0.010413    0.001768       
   LBFGS   123      4    0.024513    0.008369   0.000824  25.2292    0.009372    0.001538       
   LBFGS   124      4    0.024502    0.005744   0.000496  25.2468    0.007281    0.001223       
   LBFGS   125      4    0.024287    0.010877   0.000671  25.2951    0.005022    0.000956       
   LBFGS   126      4    0.025213    0.016707   0.001151  25.3843    0.011455    0.001629       
   LBFGS   127      4    0.025075    0.009511   0.000634  25.3714    0.008134    0.001124       
   LBFGS   128      4    0.024987    0.006870   0.000546  25.3533    0.006096    0.000939       
   LBFGS   129      4    0.024208    0.009987   0.000851  25.2423    0.006533    0.001571       
   LBFGS   130      4    0.023669    0.015028   0.001145  25.2283    0.009647    0.002103       
   LBFGS   131      4    0.023718    0.025144   0.001781  25.2574    0.009378    0.001956       
   LBFGS   132      4    0.024769    0.029193   0.002053  25.3633    0.005006    0.001362       
   LBFGS   133      4    0.024579    0.010517   0.000962  25.3681    0.003271    0.000890       
   LBFGS   134      4    0.024499    0.026254   0.001589  25.2887    0.005410    0.000954       
   LBFGS   135      4    0.024448    0.005564   0.000616  25.2936    0.003322    0.000567       
   LBFGS   136      4    0.024437    0.003542   0.000307  25.2835    0.003576    0.000518       
   LBFGS   137      4    0.024450    0.004069   0.000331  25.2722    0.003961    0.000565       
   LBFGS   138      4    0.024531    0.005728   0.000599  25.2666    0.004174    0.000656       
   LBFGS   139      4    0.024561    0.009207   0.000828  25.2840    0.003048    0.000828       
   LBFGS   140      4    0.024126    0.010102   0.000858  25.3347    0.004041    0.000988       
   LBFGS   141      4    0.023119    0.007406   0.000754  25.4554    0.006434    0.001454       
   LBFGS   142      4    0.023187    0.008024   0.000890  25.4678    0.007460    0.001290       
   LBFGS   143      4    0.024473    0.011464   0.001402  25.4145    0.006506    0.001421       
   LBFGS   144      4    0.024438    0.007108   0.000928  25.4114    0.006495    0.001099       
   LBFGS   145      4    0.024479    0.006051   0.000710  25.4051    0.006984    0.001032       
   LBFGS   146      4    0.024570    0.009864   0.000957  25.3613    0.005978    0.001133       
   LBFGS   147      4    0.024329    0.009445   0.000993  25.3610    0.003299    0.000761       
   LBFGS   148      4    0.024270    0.005435   0.000697  25.3653    0.003157    0.000696       
   LBFGS   149      4    0.024069    0.004300   0.000358  25.3538    0.003975    0.000705       
   LBFGS   150      4    0.023801    0.008172   0.000755  25.3386    0.006969    0.001351       
   LBFGS   151      4    0.024611    0.011775   0.001298  25.3547    0.011162    0.002039       
   LBFGS   152      4    0.024999    0.009532   0.001363  25.3486    0.011049    0.001737       
   LBFGS   153      4    0.025190    0.005017   0.000779  25.3461    0.010292    0.001523       
   LBFGS   154      4    0.025014    0.010578   0.000731  25.3426    0.006627    0.001188       
   LBFGS   155      4    0.024204    0.007755   0.000864  25.3684    0.006120    0.001218       
   LBFGS   156      4    0.023009    0.010128   0.000832  25.4595    0.006601    0.001439       
   LBFGS   157      4    0.022755    0.011671   0.000899  25.5497    0.007714    0.001583       
   LBFGS   158      4    0.023392    0.011556   0.001042  25.5268    0.006998    0.001458       
   LBFGS   159      4    0.024283    0.008806   0.001106  25.4616    0.005752    0.001001       
   LBFGS   160      4    0.023975    0.005444   0.000598  25.4226    0.003502    0.000775       
   LBFGS   161      4    0.023985    0.004471   0.000604  25.3959    0.003524    0.000694       
   LBFGS   162      4    0.024085    0.005501   0.000625  25.4009    0.003359    0.000770       
   LBFGS   163      4    0.023901    0.008361   0.000790  25.4305    0.002804    0.000921       
   LBFGS   164      4    0.023958    0.003563   0.000364  25.4337    0.001473    0.000408       

                                .--------------------.
          ----------------------| CI-NEB convergence |-------------------------
          Item                value                   Tolerance       Converged
          ---------------------------------------------------------------------
          RMS(Fp)             0.0003636059            0.0100000000      YES
          MAX(|Fp|)           0.0035626383            0.0200000000      YES
          RMS(FCI)            0.0004082133            0.0010000000      YES
          MAX(|FCI|)          0.0014727500            0.0020000000      YES
          ---------------------------------------------------------------------

The elastic band and climbing image have converged successfully to a MEP in 164 iterations!


                    *********************H U R R A Y*********************
                    ***        THE NEB OPTIMIZATION HAS CONVERGED     ***
                    *****************************************************



---------------------------------------------------------------
                         PATH SUMMARY              
---------------------------------------------------------------
All forces in Eh/Bohr.

Image Dist.(Ang.)    E(Eh)   dE(kcal/mol)  max(|Fp|)  RMS(Fp)
  0     0.000   -1303.21577      0.00       0.00064   0.00011
  1     4.853   -1303.21390      1.17       0.00132   0.00028
  2     7.468   -1303.21156      2.64       0.00165   0.00036
  3     8.943   -1303.20738      5.26       0.00356   0.00078
  4     9.515   -1303.19181     15.03       0.00114   0.00032 <= CI
  5     9.952   -1303.20783      4.98       0.00144   0.00032
  6    11.175   -1303.21194      2.40       0.00030   0.00010
  7    13.459   -1303.21421      0.98       0.00065   0.00017

Straight line distance between images along the path:
        D( 0- 1) =   4.8528 Ang.
        D( 1- 2) =   2.6150 Ang.
        D( 2- 3) =   1.4757 Ang.
        D( 3- 4) =   0.5714 Ang.
        D( 4- 5) =   0.4375 Ang.
        D( 5- 6) =   1.2227 Ang.
        D( 6- 7) =   2.2838 Ang.

---------------------------------------------------------------
               INFORMATION ABOUT SADDLE POINT     
---------------------------------------------------------------

Climbing image                            ....  4 
Energy                                    ....  -1303.19180744 Eh
Max. abs. force                           ....  1.4728e-03 Eh/Bohr

-----------------------------------------
  SADDLE POINT (ANGSTROEM)
-----------------------------------------
C     -2.442748     2.466270     1.079483 
C     -2.346836     1.082910     1.110868 
C     -2.234945     0.336808    -0.068231 
C     -2.242379     1.019261    -1.286197 
C     -2.330025     2.403198    -1.296447 
C     -2.424480     3.149874    -0.131008 
H     -2.520071     3.021786     2.005732 
H     -2.353639     0.571580     2.064177 
H     -2.164934     0.486358    -2.221659 
Cl    -2.316287     3.239897    -2.841635 
H     -2.479820     4.228590    -0.168345 
C     -2.146585    -1.153447     0.067723 
C     -3.399986    -1.837405     0.590544 
H     -3.164928    -2.801771     1.039846 
H     -4.138542    -1.999081    -0.198642 
H     -3.850820    -1.207723     1.356145 
N     -1.550145    -1.850221    -1.036572 
O     -1.899926    -3.016399    -1.267677 
O     -0.615138    -1.320736    -1.662727 
N      1.944790    -0.510737     1.013577 
C      2.520994    -1.572849     0.136559 
C      3.770717    -1.084058    -0.579308 
C      3.490907     0.203783    -1.355173 
C      2.913518     1.271721    -0.424604 
C      1.669149     0.764763     0.289245 
H     -1.221239    -1.339827     0.957962 
H      2.722266    -2.435872     0.769111 
H      1.739007    -1.836590    -0.575982 
H      4.117521    -1.875201    -1.246631 
H      4.564829    -0.908929     0.153750 
H      4.406398     0.567267    -1.825279 
H      2.776034    -0.003012    -2.158156 
H      2.650486     2.173428    -0.980355 
H      3.665995     1.557678     0.317500 
H      1.300770     1.478603     1.024411 
H      0.866432     0.548931    -0.415827 
H      2.582675    -0.330400     1.787283 
H     -0.594629    -1.066168     2.660563 
H      1.004491    -0.896173     1.437820 
O     -0.268876    -1.526107     1.878154 

-----------------------------------------
  FORCES (Eh/Bohr)
-----------------------------------------
C      0.000018     0.000414     0.000386 
C      0.000274    -0.000392    -0.000393 
C      0.000123     0.000265     0.000584 
C      0.000157    -0.000394    -0.000419 
C     -0.000045     0.000600     0.000298 
C     -0.000024    -0.000291    -0.000465 
H      0.000019     0.000032    -0.000202 
H      0.000234     0.000121     0.000123 
H      0.000170     0.000019     0.000219 
Cl    -0.000071    -0.000188     0.000019 
H     -0.000175     0.000062    -0.000096 
C      0.000537    -0.000081     0.001008 
C      0.000192     0.000219     0.000206 
H     -0.000095    -0.000214    -0.000415 
H     -0.000099     0.000662    -0.000249 
H      0.000283    -0.000160     0.000232 
N      0.001170     0.001004    -0.000559 
O     -0.000002    -0.000567    -0.000200 
O     -0.000164    -0.000380     0.000641 
N      0.000157     0.000195    -0.001041 
C      0.000293     0.000276    -0.000327 
C     -0.000025    -0.000269    -0.000136 
C     -0.000114     0.000019     0.000049 
C     -0.000289     0.000283    -0.000102 
C      0.000329     0.000041    -0.000342 
H     -0.001473     0.000182    -0.001208 
H     -0.000192    -0.000076    -0.000016 
H     -0.000134     0.000070    -0.000085 
H      0.000074     0.000033    -0.000071 
H     -0.000170    -0.000046     0.000076 
H      0.000027     0.000082     0.000123 
H     -0.000004     0.000033    -0.000057 
H     -0.000062     0.000091    -0.000074 
H     -0.000264     0.000015     0.000084 
H     -0.000296    -0.000077    -0.000031 
H     -0.000097    -0.000183    -0.000097 
H      0.000720     0.000274     0.000282 
H     -0.000085     0.000109     0.000949 
H     -0.001174    -0.000692     0.000920 
O      0.000248    -0.000892     0.000609 

-----------------------------------------
  UNIT TANGENT
-----------------------------------------
C     -0.003149    -0.008383    -0.002551 
C     -0.025777    -0.012027    -0.017703 
C     -0.001287    -0.004682    -0.029097 
C      0.040804     0.039255    -0.015426 
C      0.038116     0.027908     0.001098 
C      0.018096     0.016461     0.012873 
H     -0.011954    -0.019541     0.005256 
H     -0.058574    -0.016925    -0.021458 
H      0.037468     0.035176    -0.014262 
Cl     0.025513     0.047658     0.005308 
H      0.013282     0.015532     0.025325 
C     -0.150721     0.026962    -0.212091 
C     -0.001834    -0.002047     0.007618 
H      0.076770     0.034649     0.044043 
H     -0.060874    -0.120036     0.083457 
H      0.006562     0.019830    -0.006453 
N     -0.039453     0.049681     0.082853 
O      0.095093    -0.069361     0.143306 
O      0.004410     0.035075     0.011088 
N     -0.028825    -0.018463    -0.012866 
C     -0.013784    -0.040298    -0.025182 
C     -0.013819    -0.003165     0.012892 
C     -0.011152    -0.006620     0.009771 
C     -0.011356    -0.014149     0.015189 
C     -0.034020     0.013920    -0.017424 
H      0.390371    -0.085412     0.401830 
H     -0.020598    -0.022262    -0.004195 
H     -0.022826    -0.014585    -0.018493 
H     -0.006710    -0.002785     0.019600 
H     -0.022426    -0.003818     0.020884 
H     -0.005974    -0.004327     0.022626 
H     -0.004105    -0.002788     0.004136 
H     -0.008746    -0.010330     0.023787 
H     -0.017382    -0.018184     0.021387 
H     -0.027012    -0.007855     0.002665 
H     -0.024811    -0.008747    -0.014886 
H     -0.045806    -0.025790     0.010384 
H     -0.179732    -0.087582    -0.066009 
H      0.406468     0.242811    -0.293174 
O     -0.300247     0.025243    -0.216104 
 => Unit tangent is an approximation to the TS mode at the saddle point

Next a TS optimization is performed on the CI from the NEB run.

         *************************************************************
         *                       TS OPTIMIZATION                     *
         *************************************************************


Following output files will be written:
Converged TS will be written to          ....  neb_NEB-TS_converged.xyz
                                         ....  neb.xyz
Current trajectory will be written to    ....  neb_trj.xyz
Initial Hessian will be stored in        ....  neb.appr.hess
Geometry optimization settings:
Update method            Update   .... Bofill
Choice of coordinates    CoordSys .... Z-matrix Internals
Initial Hessian          InHess   .... Read

Convergence Tolerances:
Energy Change            TolE     ....  5.0000e-06 Eh
Max. Gradient            TolMAXG  ....  3.0000e-04 Eh/bohr
RMS Gradient             TolRMSG  ....  1.0000e-04 Eh/bohr
Max. Displacement        TolMAXD  ....  4.0000e-03 bohr
RMS Displacement         TolRMSD  ....  2.0000e-03 bohr
Strict Convergence                ....  False
------------------------------------------------------------------------------
                        ORCA OPTIMIZATION COORDINATE SETUP
------------------------------------------------------------------------------

The optimization will be done in new redundant internal coordinates
Making redundant internal coordinates   ...  (new redundants) done
Following TS mode number                ...     0
TS-active-atoms for coordinate setup... 25 38 39 
Evaluating the initial hessian          ... (Reading Exact Hessian)...  
InHessName: neb.appr.hess	The file <neb.appr.hess> is opened as a .hess file
done
done
Diagonalizing the Hessian               .... done
Dimension of the hessian                .... 227
Lowest eigenvalues of the non projected Hessian:
 -0.004955623 -0.000000000 -0.000000000 -0.000000000 -0.000000000
done
Evaluating the coordinates              ...  done
Calculating the B-matrix                .... done
Calculating the G-matrix                .... done
Diagonalizing the G-matrix              .... done
Small eigenvalue found = 2.976e-03
Small eigenvalue found = 3.687e-03
Small eigenvalue found = 1.449e-02
Small eigenvalue found = 2.052e-02
The first mode is                       ....  113
The number of degrees of freedom        ....  114

    -----------------------------------------------------------------
                    Redundant Internal Coordinates


    -----------------------------------------------------------------
         Definition                    Initial Value    d2E/dq (diagonal element)
    -----------------------------------------------------------------
      1. B(C   1,C   0)                  1.3870         0.579765   
      2. B(C   2,C   1)                  1.3998         0.558099   
      3. B(C   3,C   2)                  1.3962         0.570770   
      4. B(C   4,C   3)                  1.3867         0.593352   
      5. B(C   5,C   0)                  1.3903         0.575653   
      6. B(C   5,C   4)                  1.3873         0.582971   
      7. B(H   6,C   0)                  1.0828         0.369730   
      8. B(H   7,C   1)                  1.0818         0.371146   
      9. B(H   8,C   3)                  1.0794         0.374422   
     10. B(Cl  9,C   4)                  1.7572         0.363845   
     11. B(H  10,C   5)                  1.0808         0.369932   
     12. B(C  11,C   2)                  1.4990         0.431020   
     13. B(C  12,C  11)                  1.5206         0.389630   
     14. B(H  13,C  12)                  1.0896         0.360700   
     15. B(H  14,C  12)                  1.0929         0.356294   
     16. B(H  15,C  12)                  1.0890         0.361450   
     17. B(N  16,C  11)                  1.4355         0.454748   
     18. B(O  17,N  16)                  1.2392         0.870808   
     19. B(O  18,N  16)                  1.2436         0.856737   
     20. B(C  20,N  19)                  1.4931         0.350792   
     21. B(C  21,C  20)                  1.5209         0.357224   
     22. B(C  22,C  21)                  1.5293         0.342971   
     23. B(C  23,C  22)                  1.5296         0.342386   
     24. B(C  24,C  23)                  1.5215         0.356782   
     25. B(C  24,N  19)                  1.4925         0.351048   
     26. B(H  25,C  11)                  1.2975         0.171548   
     27. B(H  26,C  20)                  1.0888         0.361800   
     28. B(H  27,C  20)                  1.0903         0.360206   
     29. B(H  28,C  21)                  1.0916         0.358085   
     30. B(H  29,C  21)                  1.0948         0.353765   
     31. B(H  30,C  22)                  1.0914         0.358302   
     32. B(H  31,C  22)                  1.0948         0.353806   
     33. B(H  32,C  23)                  1.0914         0.358391   
     34. B(H  33,C  23)                  1.0949         0.353733   
     35. B(H  34,H  10)                  4.8247         0.003414   
     36. B(H  34,C  24)                  1.0889         0.359701   
     37. B(H  35,C  24)                  1.0900         0.360570   
     38. B(H  36,N  19)                  1.0188         0.419266   
     39. B(H  38,N  19)                  1.1012         0.235709   
     40. B(O  39,H  38)                  1.4873         0.068899   
     41. B(O  39,H  37)                  0.9643         0.513321   
     42. B(O  39,H  25)                  1.3373         0.129377   
     43. A(C   5,C   0,H   6)          119.5680         0.217553   
     44. A(C   1,C   0,C   5)          120.6095         0.159679   
     45. A(C   1,C   0,H   6)          119.8180         0.217818   
     46. A(C   2,C   1,H   7)          119.3964         0.219446   
     47. A(C   0,C   1,H   7)          119.4008         0.218007   
     48. A(C   0,C   1,C   2)          121.2021         0.165225   
     49. A(C   3,C   2,C  11)          124.4283         0.343667   
     50. A(C   1,C   2,C   3)          118.2853         0.160816   
     51. A(C   1,C   2,C  11)          117.2706         0.313903   
     52. A(C   2,C   3,H   8)          120.9534         0.219511   
     53. A(C   4,C   3,H   8)          119.3957         0.218079   
     54. A(C   2,C   3,C   4)          119.6437         0.161072   
     55. A(C   3,C   4,C   5)          122.3583         0.165648   
     56. A(C   3,C   4,Cl  9)          118.7630         0.249687   
     57. A(C   5,C   4,Cl  9)          118.8785         0.251083   
     58. A(C   0,C   5,H  10)          121.3431         0.216479   
     59. A(C   0,C   5,C   4)          117.8832         0.158553   
     60. A(C   4,C   5,H  10)          120.7736         0.218084   
     61. A(C   2,C  11,N  16)          115.9291         0.071739   
     62. A(C  12,C  11,N  16)          112.8709         0.071881   
     63. A(C   2,C  11,C  12)          115.4523         0.071239   
     64. A(C   2,C  11,H  25)          104.3039         0.034542   
     65. A(N  16,C  11,H  25)           99.3095         0.052949   
     66. A(C  12,C  11,H  25)          106.6990         0.050397   
     67. A(H  14,C  12,H  15)          108.2666         0.114653   
     68. A(H  13,C  12,H  15)          108.1309         0.112047   
     69. A(C  11,C  12,H  15)          108.8378         0.223720   
     70. A(H  13,C  12,H  14)          108.2179         0.120803   
     71. A(C  11,C  12,H  14)          112.0428         0.253087   
     72. A(C  11,C  12,H  13)          111.2277         0.235557   
     73. A(O  17,N  16,O  18)          121.2625         0.310690   
     74. A(C  11,N  16,O  18)          119.5403         0.293466   
     75. A(C  11,N  16,O  17)          118.8783         0.294735   
     76. A(C  20,N  19,H  38)          107.8684         0.076179   
     77. A(C  24,N  19,H  38)          109.1709         0.072118   
     78. A(C  20,N  19,C  24)          113.2123         0.076476   
     79. A(C  24,N  19,H  36)          109.4455         0.059117   
     80. A(C  20,N  19,H  36)          109.2905         0.059329   
     81. A(H  36,N  19,H  38)          107.6975         0.032192   
     82. A(N  19,C  20,C  21)          111.4054         0.083967   
     83. A(H  26,C  20,H  27)          108.6946         0.033405   
     84. A(C  21,C  20,H  27)          111.0675         0.069555   
     85. A(N  19,C  20,H  27)          106.2102         0.071034   
     86. A(C  21,C  20,H  26)          112.1045         0.074063   
     87. A(N  19,C  20,H  26)          107.0942         0.075166   
     88. A(H  28,C  21,H  29)          107.1470         0.032416   
     89. A(C  22,C  21,H  29)          109.7365         0.070204   
     90. A(C  20,C  21,H  29)          109.4056         0.071912   
     91. A(C  22,C  21,H  28)          110.9969         0.073991   
     92. A(C  20,C  21,H  28)          108.4141         0.074427   
     93. A(C  20,C  21,C  22)          111.0440         0.084161   
     94. A(H  30,C  22,H  31)          107.1395         0.032542   
     95. A(C  23,C  22,H  31)          109.3659         0.069289   
     96. A(C  21,C  22,H  31)          109.4211         0.069311   
     97. A(C  23,C  22,H  30)          110.2511         0.074199   
     98. A(C  21,C  22,H  30)          110.2120         0.074200   
     99. A(C  21,C  22,C  23)          110.3864         0.083459   
    100. A(H  32,C  23,H  33)          107.1577         0.032354   
    101. A(C  24,C  23,H  33)          109.3360         0.071949   
    102. A(C  22,C  23,H  33)          109.5890         0.070300   
    103. A(C  24,C  23,H  32)          108.4867         0.074773   
    104. A(C  22,C  23,H  32)          110.9780         0.074343   
    105. A(C  22,C  23,C  24)          111.1927         0.084124   
    106. A(C  23,C  24,H  35)          111.3946         0.069026   
    107. A(N  19,C  24,H  35)          106.3033         0.071158   
    108. A(C  23,C  24,H  34)          112.0245         0.073637   
    109. A(N  19,C  24,H  34)          107.1614         0.073148   
    110. A(N  19,C  24,C  23)          111.1861         0.082905   
    111. A(H  34,C  24,H  35)          108.5051         0.033139   
    112. L(C  11,H  25,O  39,N  16, 2) 179.7763         0.206526   
    113. L(C  11,H  25,O  39,N  16, 1) 180.2353         0.252454   
    114. A(N  19,H  38,O  39)          173.3722         0.236021   
    115. A(H  37,O  39,H  38)          109.1126         0.091583   
    116. A(H  25,O  39,H  38)          110.3030         0.124224   
    117. A(H  25,O  39,H  37)          104.5540         0.132018   
    118. D(C   2,C   1,C   0,C   5)     -0.2650         0.009246   
    119. D(H   7,C   1,C   0,C   5)    179.4252         0.009920   
    120. D(H   7,C   1,C   0,H   6)      0.2017         0.012079   
    121. D(C   2,C   1,C   0,H   6)   -179.4886         0.010153   
    122. D(C  11,C   2,C   1,C   0)   -179.5791         0.009771   
    123. D(C  11,C   2,C   1,H   7)      0.7307         0.011584   
    124. D(C   3,C   2,C   1,H   7)    179.3531         0.008723   
    125. D(C   3,C   2,C   1,C   0)     -0.9567         0.007549   
    126. D(H   8,C   3,C   2,C  11)     -1.0946         0.010674   
    127. D(H   8,C   3,C   2,C   1)   -179.6100         0.009150   
    128. D(C   4,C   3,C   2,C   1)      1.3767         0.007727   
    129. D(C   4,C   3,C   2,C  11)    179.8921         0.011210   
    130. D(C   5,C   4,C   3,H   8)   -179.6442         0.010098   
    131. D(C   5,C   4,C   3,C   2)     -0.6155         0.009684   
    132. D(Cl  9,C   4,C   3,C   2)    179.2089         0.010801   
    133. D(Cl  9,C   4,C   3,H   8)      0.1802         0.012097   
    134. D(H  10,C   5,C   0,H   6)      0.3844         0.012199   
    135. D(C   0,C   5,C   4,Cl  9)    179.5711         0.009973   
    136. D(C   0,C   5,C   4,C   3)     -0.6047         0.009385   
    137. D(H  10,C   5,C   4,Cl  9)     -0.5498         0.012579   
    138. D(C   4,C   5,C   0,H   6)   -179.7373         0.009618   
    139. D(H  10,C   5,C   4,C   3)    179.2744         0.010503   
    140. D(C   4,C   5,C   0,C   1)      1.0372         0.009121   
    141. D(H  10,C   5,C   0,C   1)   -178.8411         0.010270   
    142. D(H  25,C  11,C   2,C   3)    131.8136         0.033303   
    143. D(H  25,C  11,C   2,C   1)    -49.6572         0.028876   
    144. D(N  16,C  11,C   2,C   3)     23.7787         0.015677   
    145. D(C  12,C  11,C   2,C   1)     67.0714         0.027936   
    146. D(C  12,C  11,C   2,C   3)   -111.4578         0.033890   
    147. D(N  16,C  11,C   2,C   1)   -157.6921         0.016582   
    148. D(H  13,C  12,C  11,C   2)   -156.9393         0.031291   
    149. D(H  15,C  12,C  11,N  16)   -174.4909         0.035055   
    150. D(H  15,C  12,C  11,C   2)    -37.9102         0.025675   
    151. D(H  14,C  12,C  11,H  25)   -162.8426         0.031999   
    152. D(H  14,C  12,C  11,N  16)    -54.7928         0.028634   
    153. D(H  14,C  12,C  11,C   2)     81.7880         0.029037   
    154. D(H  13,C  12,C  11,H  25)    -41.5699         0.034400   
    155. D(H  15,C  12,C  11,H  25)     77.4592         0.027987   
    156. D(H  13,C  12,C  11,N  16)     66.4799         0.027279   
    157. D(O  18,N  16,C  11,H  25)    -75.8877         0.020007   
    158. D(O  18,N  16,C  11,C  12)    171.4580         0.020887   
    159. D(O  18,N  16,C  11,C   2)     35.0951         0.016777   
    160. D(O  17,N  16,C  11,H  25)     97.7112         0.028709   
    161. D(O  17,N  16,C  11,C  12)    -14.9432         0.019559   
    162. D(O  17,N  16,C  11,C   2)   -151.3060         0.027973   
    163. D(H  27,C  20,N  19,H  38)     54.4816         0.034641   
    164. D(H  27,C  20,N  19,H  36)    171.3045         0.033900   
    165. D(H  27,C  20,N  19,C  24)    -66.4274         0.034241   
    166. D(H  26,C  20,N  19,H  38)    -61.5347         0.034518   
    167. D(H  26,C  20,N  19,H  36)     55.2882         0.033127   
    168. D(H  26,C  20,N  19,C  24)    177.5563         0.035044   
    169. D(C  21,C  20,N  19,H  38)    175.5492         0.034997   
    170. D(C  21,C  20,N  19,C  24)     54.6402         0.027752   
    171. D(C  21,C  20,N  19,H  36)    -67.6279         0.030758   
    172. D(H  29,C  21,C  20,H  26)    -53.3759         0.034664   
    173. D(H  29,C  21,C  20,N  19)     66.6228         0.033925   
    174. D(H  28,C  21,C  20,H  27)    -58.6575         0.034890   
    175. D(H  28,C  21,C  20,H  26)     63.1582         0.034703   
    176. D(H  28,C  21,C  20,N  19)   -176.8431         0.035150   
    177. D(C  22,C  21,C  20,H  27)     63.5330         0.033723   
    178. D(C  22,C  21,C  20,H  26)   -174.6513         0.034680   
    179. D(H  29,C  21,C  20,H  27)   -175.1916         0.035728   
    180. D(C  22,C  21,C  20,N  19)    -54.6527         0.026298   
    181. D(H  31,C  22,C  21,H  29)    173.8783         0.035787   
    182. D(H  31,C  22,C  21,C  20)    -65.0407         0.033951   
    183. D(H  30,C  22,C  21,H  29)     56.3111         0.034777   
    184. D(H  30,C  22,C  21,H  28)    -61.9311         0.034607   
    185. D(H  30,C  22,C  21,C  20)    177.3921         0.035114   
    186. D(C  23,C  22,C  21,H  29)    -65.7158         0.034077   
    187. D(H  31,C  22,C  21,H  28)     55.6361         0.034769   
    188. D(C  23,C  22,C  21,H  28)    176.0421         0.035028   
    189. D(C  23,C  22,C  21,C  20)     55.3652         0.027069   
    190. D(H  33,C  23,C  22,H  31)   -174.0787         0.035797   
    191. D(H  33,C  23,C  22,H  30)    -56.5215         0.034771   
    192. D(H  33,C  23,C  22,C  21)     65.4823         0.034089   
    193. D(H  32,C  23,C  22,H  31)    -55.9274         0.034756   
    194. D(H  32,C  23,C  22,H  30)     61.6298         0.034598   
    195. D(H  32,C  23,C  22,C  21)   -176.3665         0.034987   
    196. D(C  24,C  23,C  22,H  31)     64.9291         0.033894   
    197. D(C  24,C  23,C  22,H  30)   -177.5137         0.035041   
    198. D(C  24,C  23,C  22,C  21)    -55.5099         0.027062   
    199. D(H  35,C  24,C  23,H  33)    175.2345         0.035665   
    200. D(H  35,C  24,C  23,H  32)     58.6852         0.034860   
    201. D(H  35,C  24,C  23,C  22)    -63.6250         0.033520   
    202. D(H  34,C  24,C  23,H  33)     53.4854         0.034766   
    203. D(H  34,C  24,C  23,C  22)    174.6259         0.034846   
    204. D(N  19,C  24,C  23,H  33)    -66.3927         0.033851   
    205. D(N  19,C  24,C  23,H  32)    177.0580         0.035174   
    206. D(N  19,C  24,C  23,C  22)     54.7479         0.026100   
    207. D(H  35,C  24,N  19,H  38)    -53.3526         0.033986   
    208. D(H  35,C  24,N  19,H  36)   -171.0015         0.033809   
    209. D(H  35,C  24,N  19,C  20)     66.8168         0.034876   
    210. D(H  34,C  24,N  19,H  38)     62.5229         0.033893   
    211. D(H  34,C  24,C  23,H  32)    -63.0639         0.034674   
    212. D(H  34,C  24,N  19,H  36)    -55.1260         0.033122   
    213. D(H  34,C  24,N  19,C  20)   -177.3076         0.035738   
    214. D(C  23,C  24,N  19,H  38)   -174.7511         0.033554   
    215. D(C  23,C  24,N  19,H  36)     67.6000         0.030682   
    216. D(C  23,C  24,N  19,C  20)    -54.5817         0.028251   
    217. D(O  39,H  38,N  19,H  36)   -139.9750         0.062169   
    218. D(O  39,H  38,N  19,C  24)    101.2806         0.055867   
    219. D(O  39,H  38,N  19,C  20)    -22.1214         0.054007   
    220. D(H  37,O  39,H  38,N  19)   -176.5499         0.029069   
    221. D(H  25,O  39,H  38,N  19)    -62.2335         0.029394   
    222. D(H  38,O  39,C  11,N  16)     61.9779         0.035075   
    223. D(H  38,O  39,C  11,C  12)    179.4435         0.047962   
    224. D(H  38,O  39,C  11,C   2)    -57.9643         0.035081   
    225. D(H  37,O  39,C  11,N  16)    179.0854         0.030481   
    226. D(H  37,O  39,C  11,C  12)    -63.4491         0.026888   
    227. D(H  37,O  39,C  11,C   2)     59.1432         0.028000   
    -----------------------------------------------------------------

Number of atoms                         .... 40
Number of degrees of freedom            .... 227

         *************************************************************
         *                GEOMETRY OPTIMIZATION CYCLE   1            *
         *************************************************************


           ************************************************************
           *        Program running with 102 parallel MPI-processes   *
           *              working on a common directory               *
           ************************************************************
------------------------------------------------------------------------------
                           ORCA GTO INTEGRAL CALCULATION
                           -- RI-GTO INTEGRALS CHOSEN --
------------------------------------------------------------------------------
------------------------------------------------------------------------------
                   ___                                                        
                  /   \      - P O W E R E D   B Y -                         
                 /     \                                                     
                 |  |  |   _    _      __       _____    __    __             
                 |  |  |  | |  | |    /  \     |  _  \  |  |  /  |          
                  \  \/   | |  | |   /    \    | | | |  |  | /  /          
                 / \  \   | |__| |  /  /\  \   | |_| |  |  |/  /          
                |  |  |   |  __  | /  /__\  \  |    /   |      \           
                |  |  |   | |  | | |   __   |  |    \   |  |\   \          
                \     /   | |  | | |  |  |  |  | |\  \  |  | \   \       
                 \___/    |_|  |_| |__|  |__|  |_| \__\ |__|  \__/        
                                                                              
                      - O R C A' S   B I G   F R I E N D -                    
                                      &                                       
                       - I N T E G R A L  F E E D E R -                       
                                                                              
 v1 FN, 2020, v2 2021                                                         
------------------------------------------------------------------------------


Reading SHARK input file neb.SHARKINP.tmp ... ok
----------------------
SHARK INTEGRAL PACKAGE
----------------------

Number of atoms                             ...     40
Number of basis functions                   ...    721
Number of shells                            ...    295
Maximum angular momentum                    ...      3
Integral batch strategy                     ... SHARK/LIBINT Hybrid
RI-J (if used) integral strategy            ... SPLIT-RIJ (Revised 2003 algorithm where possible)
Printlevel                                  ...      1
Contraction scheme used                     ... SEGMENTED contraction
Coulomb Range Separation                    ... NOT USED
Exchange Range Separation                   ... NOT USED
Finite Nucleus Model                        ... NOT USED
Auxiliary Coulomb fitting basis             ... AVAILABLE
   # of basis functions in Aux-J            ...   1164
   # of shells in Aux-J                     ...    392
   Maximum angular momentum in Aux-J        ...      4
Auxiliary J/K fitting basis                 ... NOT available
Auxiliary Correlation fitting basis         ... NOT available
Auxiliary 'external' fitting basis          ... NOT available
Integral threshold                          ...     2.500000e-11
Primitive cut-off                           ...     2.500000e-12
Primitive pair pre-selection threshold      ...     2.500000e-12

Calculating pre-screening integrals         ... done (  0.1 sec) Dimension = 295
Organizing shell pair data                  ... done (  0.8 sec)
Shell pair information
Total number of shell pairs                 ...     43660
Shell pairs after pre-screening             ...     32167
Total number of primitive shell pairs       ...    132336
Primitive shell pairs kept                  ...     64670
          la=0 lb=0:   9131 shell pairs
          la=1 lb=0:   9573 shell pairs
          la=1 lb=1:   2563 shell pairs
          la=2 lb=0:   4319 shell pairs
          la=2 lb=1:   2314 shell pairs
          la=2 lb=2:    557 shell pairs
          la=3 lb=0:   2019 shell pairs
          la=3 lb=1:   1086 shell pairs
          la=3 lb=2:    492 shell pairs
          la=3 lb=3:    113 shell pairs

Calculating one electron integrals          ... done (  0.2 sec)
Calculating RI/J V-Matrix + Cholesky decomp.... done (  0.2 sec)
Calculating Nuclear repulsion               ... done (  0.0 sec) ENN=   1660.461770023020 Eh

SHARK setup successfully completed in   1.8 seconds

Maximum memory used throughout the entire GTOINT-calculation: 48.4 MB


           ************************************************************
           *        Program running with 102 parallel MPI-processes   *
           *              working on a common directory               *
           ************************************************************
-------------------------------------------------------------------------------
                                 ORCA SCF
-------------------------------------------------------------------------------

------------
SCF SETTINGS
------------
Hamiltonian:
 Density Functional     Method          .... DFT(GTOs)
 Exchange Functional    Exchange        .... B88
   X-Alpha parameter    XAlpha          ....  0.666667
   Becke's b parameter  XBeta           ....  0.004200
 Correlation Functional Correlation     .... LYP
 LDA part of GGA corr.  LDAOpt          .... VWN-5
 Gradients option       PostSCFGGA      .... off
 Hybrid DFT is turned on
   Fraction HF Exchange ScalHFX         ....  0.200000
   Scaling of DF-GGA-X  ScalDFX         ....  0.720000
   Scaling of DF-GGA-C  ScalDFC         ....  0.810000
   Scaling of DF-LDA-C  ScalLDAC        ....  1.000000
   Perturbative correction              ....  0.000000
   Density functional embedding theory  .... OFF
   NL short-range parameter             ....  4.800000
 RI-approximation to the Coulomb term is turned on
   Number of AuxJ basis functions       .... 1164
   RIJ-COSX (HFX calculated with COS-X)).... on


General Settings:
 Integral files         IntName         .... neb
 Hartree-Fock type      HFTyp           .... RHF
 Total Charge           Charge          ....    0
 Multiplicity           Mult            ....    1
 Number of Electrons    NEL             ....  154
 Basis Dimension        Dim             ....  721
 Nuclear Repulsion      ENuc            ....   1660.4617700230 Eh

Convergence Acceleration:
 DIIS                   CNVDIIS         .... on
   Start iteration      DIISMaxIt       ....    12
   Startup error        DIISStart       ....  0.200000
   # of expansion vecs  DIISMaxEq       ....     5
   Bias factor          DIISBfac        ....   1.050
   Max. coefficient     DIISMaxC        ....  10.000
 Trust-Rad. Augm. Hess. CNVTRAH         .... auto
   Auto Start mean grad. ratio tolernc. ....  1.125000
   Auto Start start iteration           ....     1
   Auto Start num. interpolation iter.  ....    10
   Max. Number of Micro iterations      ....    16
   Max. Number of Macro iterations      .... Maxiter - #DIIS iter
   Number of Davidson start vectors     ....     2
   Converg. threshold I  (grad. norm)   ....   1.000e-05
   Converg. threshold II (energy diff.) ....   1.000e-08
   Grad. Scal. Fac. for Micro threshold ....   0.100
   Minimum threshold for Micro iter.    ....   0.010
   NR start threshold (gradient norm)   ....   0.001
   Initial trust radius                 ....   0.400
   Minimum AH scaling param. (alpha)    ....   1.000
   Maximum AH scaling param. (alpha)    .... 1000.000
   Orbital update algorithm             .... Taylor
   White noise on init. David. guess    .... on
   Maximum white noise                  ....   0.010
   Quad. conv. algorithm                .... NR
 SOSCF                  CNVSOSCF        .... on
   Start iteration      SOSCFMaxIt      ....   150
   Startup grad/error   SOSCFStart      ....  0.003300
 Level Shifting         CNVShift        .... on
   Level shift para.    LevelShift      ....    0.2500
   Turn off err/grad.   ShiftErr        ....    0.0010
 Zerner damping         CNVZerner       .... off
 Static damping         CNVDamp         .... on
   Fraction old density DampFac         ....    0.7000
   Max. Damping (<1)    DampMax         ....    0.9800
   Min. Damping (>=0)   DampMin         ....    0.0000
   Turn off err/grad.   DampErr         ....    0.1000
 Fernandez-Rico         CNVRico         .... off

SCF Procedure:
 Maximum # iterations   MaxIter         ....   125
 SCF integral mode      SCFMode         .... Direct
   Integral package                     .... SHARK and LIBINT hybrid scheme
 Reset frequency        DirectResetFreq ....    20
 Integral Threshold     Thresh          ....  2.500e-11 Eh
 Primitive CutOff       TCut            ....  2.500e-12 Eh

Convergence Tolerance:
 Convergence Check Mode ConvCheckMode   .... Total+1el-Energy
 Convergence forced     ConvForced      .... 0
 Energy Change          TolE            ....  1.000e-08 Eh
 1-El. energy change                    ....  1.000e-05 Eh
 Orbital Gradient       TolG            ....  1.000e-05
 Orbital Rotation angle TolX            ....  1.000e-05
 DIIS Error             TolErr          ....  5.000e-07


Diagonalization of the overlap matrix:
Smallest eigenvalue                        ... 7.657e-06
Time for diagonalization                   ...    0.352 sec
Threshold for overlap eigenvalues          ... 1.000e-08
Number of eigenvalues below threshold      ... 0
Time for construction of square roots      ...    0.478 sec
Total time needed                          ...    0.835 sec

---------------------
INITIAL GUESS: MOREAD
---------------------
Guess MOs are being read from file: neb.gbw
Input Geometry matches current geometry (good)
Input basis set matches current basis set (good)
MOs were renormalized
MOs were reorthogonalized (Cholesky)
                      ------------------
                      INITIAL GUESS DONE (   1.2 sec)
                      ------------------
-------------------
DFT GRID GENERATION
-------------------

General Integration Accuracy     IntAcc      ... 4.388
Radial Grid Type                 RadialGrid  ... OptM3 with GC (2021)
Angular Grid (max. ang.)         AngularGrid ... 4 (Lebedev-302)
Angular grid pruning method      GridPruning ... 4 (adaptive)
Weight generation scheme         WeightScheme... Becke
Basis function cutoff            BFCut       ... 1.0000e-11
Integration weight cutoff        WCut        ... 1.0000e-14
Angular grids for H and He will be reduced by one unit
Partially contracted basis set               ... off
Rotationally invariant grid construction     ... off

Total number of grid points                  ...   181226
Total number of batches                      ...     2852
Average number of points per batch           ...       63
Average number of grid points per atom       ...     4531
Time for grid setup =    1.463 sec

--------------------
COSX GRID GENERATION
--------------------

GRIDX 1
-------
General Integration Accuracy     IntAcc      ... 3.816
Radial Grid Type                 RadialGrid  ... OptM3 with GC (2021)
Angular Grid (max. ang.)         AngularGrid ... 1 (Lebedev-50)
Angular grid pruning method      GridPruning ... 4 (adaptive)
Weight generation scheme         WeightScheme... Becke
Basis function cutoff            BFCut       ... 1.0000e-11
Integration weight cutoff        WCut        ... 1.0000e-14
Angular grids for H and He will be reduced by one unit
Partially contracted basis set               ... on
Rotationally invariant grid construction     ... off

Total number of grid points                  ...    22980
Total number of batches                      ...      383
Average number of points per batch           ...       60
Average number of grid points per atom       ...      574
UseSFitting                                  ... on

GRIDX 2
-------
General Integration Accuracy     IntAcc      ... 4.020
Radial Grid Type                 RadialGrid  ... OptM3 with GC (2021)
Angular Grid (max. ang.)         AngularGrid ... 2 (Lebedev-110)
Angular grid pruning method      GridPruning ... 4 (adaptive)
Weight generation scheme         WeightScheme... Becke
Basis function cutoff            BFCut       ... 1.0000e-11
Integration weight cutoff        WCut        ... 1.0000e-14
Angular grids for H and He will be reduced by one unit
Partially contracted basis set               ... on
Rotationally invariant grid construction     ... off

Total number of grid points                  ...    48767
Total number of batches                      ...      784
Average number of points per batch           ...       62
Average number of grid points per atom       ...     1219
UseSFitting                                  ... on

GRIDX 3
-------
General Integration Accuracy     IntAcc      ... 4.338
Radial Grid Type                 RadialGrid  ... OptM3 with GC (2021)
Angular Grid (max. ang.)         AngularGrid ... 3 (Lebedev-194)
Angular grid pruning method      GridPruning ... 4 (adaptive)
Weight generation scheme         WeightScheme... Becke
Basis function cutoff            BFCut       ... 1.0000e-11
Integration weight cutoff        WCut        ... 1.0000e-14
Angular grids for H and He will be reduced by one unit
Partially contracted basis set               ... on
Rotationally invariant grid construction     ... off

Total number of grid points                  ...   106770
Total number of batches                      ...     1689
Average number of points per batch           ...       63
Average number of grid points per atom       ...     2669
UseSFitting                                  ... on

Time for X-Grid setup             =    2.783 sec


--------------------
CPCM SOLVATION MODEL
--------------------
CPCM parameters:
  Epsilon                                         ...      78.4000
  Refrac                                          ...       1.3300
  Rsolv                                           ...       1.3000
  Surface type                                    ... GAUSSIAN VDW
  Epsilon function type                           ...         CPCM
Radii:
 Radius for C  used is    3.8550 Bohr (=   2.0400 Ang.)
 Radius for H  used is    2.4944 Bohr (=   1.3200 Ang.)
 Radius for Cl used is    3.9684 Bohr (=   2.1000 Ang.)
 Radius for N  used is    3.5149 Bohr (=   1.8600 Ang.)
 Radius for O  used is    3.4469 Bohr (=   1.8240 Ang.)
Calculating surface                               ...        done! (  0.0s)
GEPOL surface points                              ...         2172
GEPOL Volume                                      ...    2348.3868
GEPOL Surface-area                                ...    1235.4195
Calculating surface distance matrix               ...        done! (  0.3s)
Performing Cholesky decomposition & store         ...        done! (  0.8s)
Overall time for CPCM initialization              ...                 1.1s
--------------
SCF ITERATIONS
--------------
ITER       Energy         Delta-E        Max-DP      RMS-DP      [F,P]     Damp
               ***  Starting incremental Fock matrix formation  ***
                      *** Initiating the SOSCF procedure ***
                      *** Re-Reading the Fockian *** 
                      *** Removing any level shift *** 
ITER      Energy       Delta-E        Grad      Rot      Max-DP    RMS-DP
  0  -1303.11161394 -1303.1116139372  0.000002  0.000002  0.000178  0.000001
               *** Restarting incremental Fock matrix formation ***
                  ***Gradient check signals convergence***
              ***Rediagonalizing the Fockian in SOSCF/NRSCF***

               *****************************************************
               *                     SUCCESS                       *
               *           SCF CONVERGED AFTER   1 CYCLES          *
               *****************************************************

Old exchange energy                            =    -28.057737010 Eh
New exchange energy                            =    -28.057711822 Eh
Exchange energy change after final integration =      0.000025189 Eh
Total energy after final integration           =  -1303.111588748 Eh
Final COS-X integration done in                =     3.797 sec

----------------
TOTAL SCF ENERGY
----------------

Total Energy       :        -1303.11158875 Eh          -35459.46905 eV

Components:
Nuclear Repulsion  :         1660.46177002 Eh           45183.46185 eV
Electronic Energy  :        -2963.57335877 Eh          -80642.93090 eV
One Electron Energy:        -5083.87830229 Eh         -138339.36164 eV
Two Electron Energy:         2120.30494352 Eh           57696.43074 eV
Max COSX asymmetry :            0.00000164 Eh               0.00004 eV
CPCM Dielectric    :           -0.04175007 Eh              -1.13608 eV

Virial components:
Potential Energy   :        -2601.97101255 Eh          -70803.23082 eV
Kinetic Energy     :         1298.85942380 Eh           35343.76176 eV
Virial Ratio       :            2.00327377


DFT components:
N(Alpha)           :       77.000186914783 electrons
N(Beta)            :       77.000186914783 electrons
N(Total)           :      154.000373829566 electrons
E(X)               :     -111.524198242326 Eh       
E(C)               :       -6.290815982146 Eh       
E(XC)              :     -117.815014224472 Eh       
DFET-embed. en.    :        0.000000000000 Eh       
CPCM Solvation Model Properties:
Surface-charge          :           -0.03416176
Charge-correction       :           -0.00007421 Eh              -0.00202 eV
Free-energy (cav+disp)  :  This term is not implemented in the current solvation scheme

---------------
SCF CONVERGENCE
---------------

  Last Energy change         ...   -1.4438e-10  Tolerance :   1.0000e-08
  Last MAX-Density change    ...    4.4409e-15  Tolerance :   1.0000e-07
  Last RMS-Density change    ...    1.5527e-17  Tolerance :   5.0000e-09
  Last Orbital Gradient      ...    1.8156e-06  Tolerance :   1.0000e-05
  Last Orbital Rotation      ...    3.8305e-06  Tolerance :   1.0000e-05

             **** THE GBW FILE WAS UPDATED (neb.gbw) ****
             **** DENSITY neb.scfp WAS UPDATED ****
             **** ENERGY FILE WAS UPDATED (neb.en.tmp) ****
             **** THE GBW FILE WAS UPDATED (neb.gbw) ****
             **** DENSITY neb.scfp WAS UPDATED ****
----------------
ORBITAL ENERGIES
----------------

  NO   OCC          E(Eh)            E(eV) 
[...]
 428   0.0000       2.602826        70.8265 
 429   0.0000       2.610761        71.0424 
 430   0.0000       2.618930        71.2647 
 431   0.0000       2.627147        71.4883 
 432   0.0000       2.627865        71.5078 
 433   0.0000       2.632846        71.6434 
 434   0.0000       2.647533        72.0430 
 435   0.0000       2.650567        72.1256 
 436   0.0000       2.661275        72.4170 
 437   0.0000       2.663864        72.4874 
 438   0.0000       2.672328        72.7178 
 439   0.0000       2.679776        72.9204 
 440   0.0000       2.687757        73.1376 
 441   0.0000       2.689878        73.1953 
 442   0.0000       2.692358        73.2628 
 443   0.0000       2.708124        73.6918 
 444   0.0000       2.716079        73.9083 
 445   0.0000       2.725663        74.1691 
 446   0.0000       2.727899        74.2299 
 447   0.0000       2.742291        74.6215 
 448   0.0000       2.748644        74.7944 
 449   0.0000       2.763076        75.1871 
 450   0.0000       2.765164        75.2439 
 451   0.0000       2.769562        75.3636 
 452   0.0000       2.775721        75.5312 
 453   0.0000       2.783301        75.7375 
 454   0.0000       2.790701        75.9388 
 455   0.0000       2.799200        76.1701 
 456   0.0000       2.804376        76.3110 
 457   0.0000       2.809071        76.4387 
 458   0.0000       2.816720        76.6468 
 459   0.0000       2.823677        76.8362 
 460   0.0000       2.833814        77.1120 
 461   0.0000       2.845833        77.4391 
 462   0.0000       2.852955        77.6328 
 463   0.0000       2.863755        77.9267 
 464   0.0000       2.878389        78.3249 
 465   0.0000       2.892602        78.7117 
 466   0.0000       2.902827        78.9899 
 467   0.0000       2.912456        79.2520 
 468   0.0000       2.914235        79.3004 
 469   0.0000       2.918056        79.4043 
 470   0.0000       2.935223        79.8715 
 471   0.0000       2.936063        79.8943 
 472   0.0000       2.956271        80.4442 
 473   0.0000       2.969026        80.7913 
 474   0.0000       2.974371        80.9367 
 475   0.0000       2.982864        81.1679 
 476   0.0000       2.993112        81.4467 
 477   0.0000       2.999353        81.6165 
 478   0.0000       3.008120        81.8551 
 479   0.0000       3.022324        82.2416 
 480   0.0000       3.026569        82.3571 
 481   0.0000       3.044719        82.8510 
 482   0.0000       3.048012        82.9406 
 483   0.0000       3.062507        83.3350 
 484   0.0000       3.075278        83.6826 
 485   0.0000       3.076123        83.7056 
 486   0.0000       3.086359        83.9841 
 487   0.0000       3.098038        84.3019 
 488   0.0000       3.101648        84.4001 
 489   0.0000       3.113773        84.7301 
 490   0.0000       3.130648        85.1893 
 491   0.0000       3.135923        85.3328 
 492   0.0000       3.145426        85.5914 
 493   0.0000       3.152299        85.7784 
 494   0.0000       3.157781        85.9276 
 495   0.0000       3.161857        86.0385 
 496   0.0000       3.166341        86.1605 
 497   0.0000       3.174372        86.3790 
 498   0.0000       3.184052        86.6425 
 499   0.0000       3.191960        86.8576 
 500   0.0000       3.200071        87.0784 
 501   0.0000       3.204183        87.1903 
 502   0.0000       3.209985        87.3481 
 503   0.0000       3.221180        87.6528 
 504   0.0000       3.225501        87.7703 
 505   0.0000       3.233595        87.9906 
 506   0.0000       3.236878        88.0799 
 507   0.0000       3.240601        88.1812 
 508   0.0000       3.260875        88.7329 
 509   0.0000       3.266720        88.8920 
 510   0.0000       3.280352        89.2629 
 511   0.0000       3.282118        89.3110 
 512   0.0000       3.295519        89.6756 
 513   0.0000       3.300655        89.8154 
 514   0.0000       3.309927        90.0677 
 515   0.0000       3.319449        90.3268 
 516   0.0000       3.324296        90.4587 
 517   0.0000       3.337663        90.8224 
 518   0.0000       3.349139        91.1347 
 519   0.0000       3.351573        91.2009 
 520   0.0000       3.358994        91.4029 
 521   0.0000       3.375420        91.8499 
 522   0.0000       3.378167        91.9246 
 523   0.0000       3.388133        92.1958 
 524   0.0000       3.390263        92.2537 
 525   0.0000       3.403947        92.6261 
 526   0.0000       3.410378        92.8011 
 527   0.0000       3.421844        93.1131 
 528   0.0000       3.429768        93.3287 
 529   0.0000       3.437428        93.5372 
 530   0.0000       3.441307        93.6427 
 531   0.0000       3.448986        93.8517 
 532   0.0000       3.456214        94.0484 
 533   0.0000       3.468603        94.3855 
 534   0.0000       3.474922        94.5574 
 535   0.0000       3.489844        94.9635 
 536   0.0000       3.490794        94.9893 
 537   0.0000       3.501582        95.2829 
 538   0.0000       3.507396        95.4411 
 539   0.0000       3.514054        95.6223 
 540   0.0000       3.519471        95.7697 
 541   0.0000       3.525710        95.9394 
 542   0.0000       3.531323        96.0922 
 543   0.0000       3.540896        96.3527 
 544   0.0000       3.542421        96.3942 
 545   0.0000       3.556493        96.7771 
 546   0.0000       3.570217        97.1505 
 547   0.0000       3.574607        97.2700 
 548   0.0000       3.596108        97.8551 
 549   0.0000       3.606464        98.1369 
 550   0.0000       3.615644        98.3867 
 551   0.0000       3.645110        99.1885 
 552   0.0000       3.659544        99.5812 
 553   0.0000       3.661044        99.6221 
 554   0.0000       3.672305        99.9285 
 555   0.0000       3.675289       100.0097 
 556   0.0000       3.684436       100.2586 
 557   0.0000       3.700752       100.7026 
 558   0.0000       3.706174       100.8501 
 559   0.0000       3.735675       101.6529 
 560   0.0000       3.741531       101.8122 
 561   0.0000       3.743524       101.8665 
 562   0.0000       3.774242       102.7024 
 563   0.0000       3.780130       102.8626 
 564   0.0000       3.789274       103.1114 
 565   0.0000       3.813342       103.7663 
 566   0.0000       3.849504       104.7503 
 567   0.0000       3.861374       105.0733 
 568   0.0000       3.883929       105.6871 
 569   0.0000       3.912621       106.4678 
 570   0.0000       3.919385       106.6519 
 571   0.0000       3.930405       106.9518 
 572   0.0000       3.937247       107.1379 
 573   0.0000       3.949151       107.4619 
 574   0.0000       3.953915       107.5915 
 575   0.0000       3.960854       107.7803 
 576   0.0000       3.976205       108.1980 
 577   0.0000       3.990249       108.5802 
 578   0.0000       3.996008       108.7369 
 579   0.0000       4.008481       109.0763 
 580   0.0000       4.017382       109.3185 
 581   0.0000       4.025101       109.5286 
 582   0.0000       4.034609       109.7873 
 583   0.0000       4.039618       109.9236 
 584   0.0000       4.068012       110.6962 
 585   0.0000       4.085026       111.1592 
 586   0.0000       4.100518       111.5808 
 587   0.0000       4.112021       111.8938 
 588   0.0000       4.117838       112.0521 
 589   0.0000       4.131652       112.4280 
 590   0.0000       4.141695       112.7013 
 591   0.0000       4.168631       113.4342 
 592   0.0000       4.171611       113.5153 
 593   0.0000       4.189607       114.0050 
 594   0.0000       4.200879       114.3117 
 595   0.0000       4.213532       114.6560 
 596   0.0000       4.228558       115.0649 
 597   0.0000       4.246029       115.5403 
 598   0.0000       4.248137       115.5977 
 599   0.0000       4.250981       115.6751 
 600   0.0000       4.261104       115.9505 
 601   0.0000       4.274674       116.3198 
 602   0.0000       4.289425       116.7212 
 603   0.0000       4.303441       117.1026 
 604   0.0000       4.311217       117.3142 
 605   0.0000       4.315764       117.4379 
 606   0.0000       4.327672       117.7619 
 607   0.0000       4.346674       118.2790 
 608   0.0000       4.362258       118.7031 
 609   0.0000       4.392569       119.5279 
 610   0.0000       4.396424       119.6328 
 611   0.0000       4.439791       120.8129 
 612   0.0000       4.444215       120.9332 
 613   0.0000       4.487376       122.1077 
 614   0.0000       4.499999       122.4512 
 615   0.0000       4.507707       122.6609 
 616   0.0000       4.559359       124.0665 
 617   0.0000       4.570446       124.3682 
 618   0.0000       4.572244       124.4171 
 619   0.0000       4.603770       125.2750 
 620   0.0000       4.638325       126.2153 
 621   0.0000       4.648811       126.5006 
 622   0.0000       4.652163       126.5918 
 623   0.0000       4.666652       126.9861 
 624   0.0000       4.696509       127.7985 
 625   0.0000       4.702733       127.9679 
 626   0.0000       4.720288       128.4456 
 627   0.0000       4.741369       129.0192 
 628   0.0000       4.764239       129.6415 
 629   0.0000       4.791343       130.3791 
 630   0.0000       4.806059       130.7795 
 631   0.0000       4.822409       131.2244 
 632   0.0000       4.831092       131.4607 
 633   0.0000       4.839424       131.6874 
 634   0.0000       4.848507       131.9346 
 635   0.0000       4.870426       132.5310 
 636   0.0000       4.881885       132.8428 
 637   0.0000       4.932452       134.2189 
 638   0.0000       4.950215       134.7022 
 639   0.0000       4.970021       135.2412 
 640   0.0000       5.003190       136.1437 
 641   0.0000       5.017254       136.5264 
 642   0.0000       5.050377       137.4277 
 643   0.0000       5.064118       137.8017 
 644   0.0000       5.090043       138.5071 
 645   0.0000       5.093913       138.6124 
 646   0.0000       5.109225       139.0291 
 647   0.0000       5.144882       139.9994 
 648   0.0000       5.158975       140.3828 
 649   0.0000       5.168697       140.6474 
 650   0.0000       5.171674       140.7284 
 651   0.0000       5.175492       140.8323 
 652   0.0000       5.185640       141.1084 
 653   0.0000       5.198602       141.4611 
 654   0.0000       5.217764       141.9826 
 655   0.0000       5.237253       142.5129 
 656   0.0000       5.261959       143.1852 
 657   0.0000       5.281713       143.7227 
 658   0.0000       5.297443       144.1508 
 659   0.0000       5.311614       144.5364 
 660   0.0000       5.377680       146.3341 
 661   0.0000       5.418785       147.4526 
 662   0.0000       5.434159       147.8710 
 663   0.0000       5.444594       148.1549 
 664   0.0000       5.451208       148.3349 
 665   0.0000       5.470502       148.8599 
 666   0.0000       5.486732       149.3016 
 667   0.0000       5.499396       149.6462 
 668   0.0000       5.503850       149.7674 
 669   0.0000       5.526926       150.3953 
 670   0.0000       5.610494       152.6693 
 671   0.0000       5.662906       154.0955 
 672   0.0000       5.680509       154.5745 
 673   0.0000       5.737989       156.1386 
 674   0.0000       5.775863       157.1692 
 675   0.0000       5.880882       160.0269 
 676   0.0000       5.957963       162.1244 
 677   0.0000       5.972594       162.5225 
 678   0.0000       6.268375       170.5712 
 679   0.0000       6.287836       171.1007 
 680   0.0000       6.307611       171.6388 
 681   0.0000       6.365823       173.2228 
 682   0.0000       6.415821       174.5834 
 683   0.0000       6.435074       175.1073 
 684   0.0000       6.450006       175.5136 
 685   0.0000       6.469303       176.0387 
 686   0.0000       6.508940       177.1173 
 687   0.0000       6.611330       179.9034 
 688   0.0000       6.712389       182.6534 
 689   0.0000       6.859139       186.6467 
 690   0.0000       6.884139       187.3270 
 691   0.0000       6.927451       188.5055 
 692   0.0000       6.966465       189.5671 
 693   0.0000       7.077047       192.5763 
 694   0.0000       7.127261       193.9426 
 695   0.0000       7.264423       197.6750 
 696   0.0000       7.291258       198.4052 
 697   0.0000       7.499133       204.0618 
 698   0.0000       7.585570       206.4139 
 699   0.0000      10.711104       291.4640 
 700   0.0000      10.788144       293.5603 
 701   0.0000      11.325475       308.1818 
 702   0.0000      22.150041       602.7333 
 703   0.0000      22.409250       609.7867 
 704   0.0000      22.434719       610.4798 
 705   0.0000      22.468464       611.3980 
 706   0.0000      22.493173       612.0704 
 707   0.0000      22.510775       612.5493 
 708   0.0000      22.570402       614.1719 
 709   0.0000      22.620393       615.5322 
 710   0.0000      22.655273       616.4813 
 711   0.0000      22.797278       620.3455 
 712   0.0000      22.827420       621.1657 
 713   0.0000      22.878494       622.5555 
 714   0.0000      23.213380       631.6682 
 715   0.0000      25.839773       703.1360 
 716   0.0000      32.329163       879.7213 
 717   0.0000      32.457918       883.2249 
 718   0.0000      43.787256      1191.5118 
 719   0.0000      44.046566      1198.5680 
 720   0.0000      44.106127      1200.1887 
-------
TIMINGS
-------

Total SCF time: 0 days 0 hours 0 min 48 sec 

Total time                  ....      48.597 sec
Sum of individual times     ....      43.147 sec  ( 88.8%)

Fock matrix formation       ....      31.017 sec  ( 63.8%)
  Split-RI-J                ....       4.870 sec  ( 15.7% of F)
  Chain of spheres X        ....      15.735 sec  ( 50.7% of F)
  XC integration            ....       3.443 sec  ( 11.1% of F)
    Basis function eval.    ....       0.320 sec  (  9.3% of XC)
    Density eval.           ....       1.065 sec  ( 30.9% of XC)
    XC-Functional eval.     ....       0.017 sec  (  0.5% of XC)
    XC-Potential eval.      ....       0.242 sec  (  7.0% of XC)
Diagonalization             ....       0.553 sec  (  1.1%)
Density matrix formation    ....       0.363 sec  (  0.7%)
Population analysis         ....       0.000 sec  (  0.0%)
Initial guess               ....       1.153 sec  (  2.4%)
Orbital Transformation      ....       0.000 sec  (  0.0%)
Orbital Orthonormalization  ....       1.043 sec  (  2.1%)
DIIS solution               ....       0.300 sec  (  0.6%)
SOSCF solution              ....       5.457 sec  ( 11.2%)
Grid generation             ....       4.304 sec  (  8.9%)

Maximum memory used throughout the entire SCF-calculation: 150.4 MB


-------------------------------------------------------------------------------
                          DFT DISPERSION CORRECTION                            
                                                                               
                              DFTD3 V3.1  Rev 1                                
                          USING Becke-Johnson damping                          
-------------------------------------------------------------------------------
The B3LYP functional is recognized
Active option DFTDOPT                   ...         4   

molecular C6(AA) [au] = 15491.004621 


            DFT-D V3
 parameters
 s6 scaling factor         :     1.0000 
 a1 scaling factor         :     0.3981 
 s8 scaling factor         :     1.9889 
 a2 scaling factor         :     4.4211 
 ad hoc parameters k1-k3   :    16.0000     1.3333    -4.0000 

 Edisp/kcal,au: -51.911694050635  -0.082726541445 
 E6   /kcal   : -25.418735539 
 E8   /kcal   : -26.492958512 
 % E8         :  51.034663762 

-------------------------   ----------------
Dispersion correction           -0.082726541
-------------------------   ----------------


-------------------------   --------------------
FINAL SINGLE POINT ENERGY     -1303.193184412328
-------------------------   --------------------

                                *** OPTIMIZATION RUN DONE ***


                    ***********************HURRAY************************
                    ***        THE TS OPTIMIZATION HAS CONVERGED      ***
                    *****************************************************



---------------------------------------------------------------
                      PATH SUMMARY FOR NEB-TS             
---------------------------------------------------------------
All forces in Eh/Bohr. Global forces for TS.

Image     E(Eh)   dE(kcal/mol)  max(|Fp|)  RMS(Fp)
  0   -1303.21577     0.00       0.00064   0.00011
  1   -1303.21390     1.17       0.00132   0.00028
  2   -1303.21156     2.64       0.00165   0.00036
  3   -1303.20738     5.26       0.00356   0.00078
  4   -1303.19181    15.03       0.00114   0.00032 <= CI
 TS   -1303.19318    14.17       0.00020   0.00006 <= TS
  5   -1303.20783     4.98       0.00144   0.00032
  6   -1303.21194     2.40       0.00030   0.00010
  7   -1303.21421     0.98       0.00065   0.00017
----------
STATISTICS
----------

For the individual parts of the NEB, NEB-CI or NEB-TS run:

Number of iterations:
     NEB                               ... 165  76.7%
     TS optimization                   ... 50  23.3%
Number of SCF / gradient calculations:
     NEB                               ... 1190  96.0%
     TS optimization                   ... 50  4.0%

----------
 TIMINGS
----------

For the individual parts of the NEB, NEB-CI or NEB-TS run:

Total                                  ...    44724.690 sec
NEB                                    ...    40395.752 sec  90.3%
TS Optimization                        ...     4328.939 sec  9.7%


                            ***************************************
                            *     ORCA property calculations      *
                            ***************************************

                                    ---------------------
                                    Active property flags
                                    ---------------------
   (+) Dipole Moment


------------------------------------------------------------------------------
                       ORCA ELECTRIC PROPERTIES CALCULATION
------------------------------------------------------------------------------

Dipole Moment Calculation                       ... on
Quadrupole Moment Calculation                   ... off
Polarizability Calculation                      ... off
GBWName                                         ... neb.gbw
Electron density                                ... neb.scfp
The origin for moment calculation is the CENTER OF MASS  = (-1.044628,  0.380830 -0.882600)

-------------
DIPOLE MOMENT
-------------
                                X             Y             Z
Electronic contribution:    -18.01186      11.89840     -15.04446
Nuclear contribution   :     21.46397      -9.33031      17.87993
                        -----------------------------------------
Total Dipole Moment    :      3.45211       2.56809       2.83548
                        -----------------------------------------
Magnitude (a.u.)       :      5.15287
Magnitude (Debye)      :     13.09756



--------------------
Rotational spectrum 
--------------------
 
Rotational constants in cm-1:     0.011562     0.008651     0.006592 
Rotational constants in MHz :   346.620898   259.364838   197.635869 

 Dipole components along the rotational axes: 
x,y,z [a.u.] :    -2.122383     3.152692     3.479671 
x,y,z [Debye]:    -5.394668     8.013507     8.844622 

 

Timings for individual modules:

Sum of individual times         ...    44760.540 sec (= 746.009 min)
GTO integral calculation        ...      314.502 sec (=   5.242 min)   0.7 %
SCF iterations                  ...     3074.491 sec (=  51.242 min)   6.9 %
SCF Gradient evaluation         ...      971.086 sec (=  16.185 min)   2.2 %
Geometry relaxation             ...        4.709 sec (=   0.078 min)   0.0 %
NEB Iterations                  ...    40395.752 sec (= 673.263 min)  90.2 %
                             ****ORCA TERMINATED NORMALLY****
TOTAL RUN TIME: 0 days 12 hours 25 minutes 32 seconds 936 msec
