 *******************************************************************************
 **                                                                           **
 **                              MOPAC v22.0.6                                **
 **                                                                           **
 *******************************************************************************
 **          Digital Object Identifier (DOI): 10.5281/zenodo.6511958          **
 **    Visit the DOI location for information on how to cite this program.    **
 *******************************************************************************

                              PM7 CALCULATION RESULTS

 *******************************************************************************
 *  CALCULATION DONE:                                Tue Mar 26 11:44:03 2024  *
 *  PM7        - The PM7 Hamiltonian to be used
 *  SINGLET    - SPIN STATE DEFINED AS A SINGLET
 *
 *
 *
 *                 CHARGE ON SYSTEM = 0
 *
 *
 *
 *  EPS=78.4   - USE ANDREAS KLAMT'S COSMO IMPLICIT SOLVATION MODEL
 *  T=         - A TIME OF 14.0 DAYS REQUESTED
 *  DUMP=N     - RESTART FILE WRITTEN EVERY 30.0 MINUTES REQUESTED
 *  RELSCF     - DEFAULT SCF CRITERION MULTIPLIED BY 1.0000
 *              (DEFAULT SCF CRITERION = 0.00010)
 *  ITRY=      - DO A MAXIMUM OF 15000 ITERATIONS FOR SCF
 *  AUX        - OUTPUT AUXILIARY INFORMATION
 *  BONDS      - FINAL BOND-ORDER MATRIX TO BE PRINTED
 *******************************************************************************
PM7 BONDS AUX DUMP=30M ITRY=15000 T=14D CHARGE=0 SINGLET eps=78.4 RELSCF=1
 Title: ASE calculation

   ATOM   CHEMICAL          X               Y               Z
  NUMBER   SYMBOL      (ANGSTROMS)     (ANGSTROMS)     (ANGSTROMS)

     1       C          0.59869000  *   0.24421000  *   0.27816000  *
     2       H          0.19007000  *  -0.01659000  *   1.26137000  *
     3       N          0.81829000  *  -2.13693000  *  -0.20650000  *
     4       O          0.53929000  *  -2.45153000  *   0.97146000  *
     5       O          1.07336000  *  -3.06522000  *  -1.01207000  *
     6       H          1.24355000  *   1.83341000  *  -1.00172000  *
     7       C          0.87125000  *  -0.85641000  *  -0.61366000  *
     8       H          1.06882000  *  -0.65882000  *  -1.66696000  *
     9       H          2.83072000  *  -0.30934000  *  -0.84450000  *
    10       C          0.83764000  *   1.51826000  *  -0.05514000  *
    11       H          0.64608000  *   2.34878000  *   0.60303000  *
    12       C          6.85889000  *   1.36854000  *  -0.17781000  *
    13       C          7.87010000  *   2.32870000  *  -0.05409000  *
    14       C          7.50856000  *   3.68049000  *  -0.03707000  *
    15       C          6.16608000  *   4.03505000  *  -0.13770000  *
    16       C          5.19600000  *   3.04061000  *  -0.26070000  *
    17       N          5.55621000  *   1.73334000  *  -0.27965000  *
    18       H          7.08225000  *   0.28784000  *  -0.19490000  *
    19       H          5.86609000  *   5.08779000  *  -0.12334000  *
    20       H          4.12213000  *   3.27718000  *  -0.34575000  *
    21       C          9.28567000  *   1.90323000  *   0.04040000  *
    22       H          9.96247000  *   2.72315000  *   0.32977000  *
    23       H          9.66005000  *   1.51702000  *  -0.92512000  *
    24       H          9.43863000  *   1.09684000  *   0.77825000  *
    25       H          8.27712000  *   4.45634000  *   0.05543000  *
    26       H          4.30955000  *  -0.95202000  *  -0.19869000  *
    27       O          4.13132000  *  -0.29246000  *  -0.87556000  *
    28       H          4.78724000  *   0.94162000  *  -0.41662000  *



          CARTESIAN COORDINATES 

    NO.       ATOM           X           Y           Z

     1         C          0.5987      0.2442      0.2782
     2         H          0.1901     -0.0166      1.2614
     3         N          0.8183     -2.1369     -0.2065
     4         O          0.5393     -2.4515      0.9715
     5         O          1.0734     -3.0652     -1.0121
     6         H          1.2435      1.8334     -1.0017
     7         C          0.8713     -0.8564     -0.6137
     8         H          1.0688     -0.6588     -1.6670
     9         H          2.8307     -0.3093     -0.8445
    10         C          0.8376      1.5183     -0.0551
    11         H          0.6461      2.3488      0.6030
    12         C          6.8589      1.3685     -0.1778
    13         C          7.8701      2.3287     -0.0541
    14         C          7.5086      3.6805     -0.0371
    15         C          6.1661      4.0351     -0.1377
    16         C          5.1960      3.0406     -0.2607
    17         N          5.5562      1.7333     -0.2797
    18         H          7.0823      0.2878     -0.1949
    19         H          5.8661      5.0878     -0.1233
    20         H          4.1221      3.2772     -0.3458
    21         C          9.2857      1.9032      0.0404
    22         H          9.9625      2.7231      0.3298
    23         H          9.6601      1.5170     -0.9251
    24         H          9.4386      1.0968      0.7782
    25         H          8.2771      4.4563      0.0554
    26         H          4.3095     -0.9520     -0.1987
    27         O          4.1313     -0.2925     -0.8756
    28         H          4.7872      0.9416     -0.4166

 General Reference for PM7:
 "Optimization of Parameters for Semiempirical Methods VI: More Modifications to the 
 NDDO Approximations and Re-optimization of Parameters", J. J. P. Stewart, J. Mol. Mod., 1:32, 19 (2013)
 https://link.springer.com/article/10.1007/s00894-012-1667-x

           Empirical Formula: C9 H14 N2 O3  =    28 atoms



      MOLECULAR POINT GROUP   :   C1  


 SINGLET STATE CALCULATION


      RHF CALCULATION, NO. OF DOUBLY OCCUPIED LEVELS = 39


          Geometry optimization using EF
  SCF CRITERION =    0.1000E-03

          DIAGONAL MATRIX USED AS START HESSIAN

 CYCLE:     1 TIME:   0.062 TIME LEFT:  2.00W  GRAD.:   153.885 HEAT: -36.08489
 CYCLE:     2 TIME:   0.043 TIME LEFT:  2.00W  GRAD.:    81.715 HEAT: -55.16944
 CYCLE:     3 TIME:   0.074 TIME LEFT:  2.00W  GRAD.:    94.124 HEAT: -57.32723
 CYCLE:     4 TIME:   0.074 TIME LEFT:  2.00W  GRAD.:    51.338 HEAT: -58.54737
 CYCLE:     5 TIME:   0.070 TIME LEFT:  2.00W  GRAD.:    25.112 HEAT: -59.12845
 CYCLE:     6 TIME:   0.070 TIME LEFT:  2.00W  GRAD.:    13.836 HEAT: -59.28954
 CYCLE:     7 TIME:   0.035 TIME LEFT:  2.00W  GRAD.:    17.814 HEAT: -59.39076
 CYCLE:     8 TIME:   0.035 TIME LEFT:  2.00W  GRAD.:    14.000 HEAT: -59.41564
 CYCLE:     9 TIME:   0.066 TIME LEFT:  2.00W  GRAD.:    13.988 HEAT: -59.43262
 CYCLE:    10 TIME:   0.039 TIME LEFT:  2.00W  GRAD.:    11.506 HEAT: -59.47365
 CYCLE:    11 TIME:   0.035 TIME LEFT:  2.00W  GRAD.:    15.436 HEAT: -59.55940
 CYCLE:    12 TIME:   0.035 TIME LEFT:  2.00W  GRAD.:    20.076 HEAT: -59.60049
 CYCLE:    13 TIME:   0.039 TIME LEFT:  2.00W  GRAD.:    22.972 HEAT: -59.66905
 CYCLE:    14 TIME:   0.035 TIME LEFT:  2.00W  GRAD.:    16.960 HEAT: -59.71463
 CYCLE:    15 TIME:   0.066 TIME LEFT:  2.00W  GRAD.:     7.172 HEAT: -59.83792
 CYCLE:    16 TIME:   0.105 TIME LEFT:  2.00W  GRAD.:     5.791 HEAT: -59.85486
 CYCLE:    17 TIME:   0.102 TIME LEFT:  2.00W  GRAD.:     3.197 HEAT: -59.86161
 CYCLE:    18 TIME:   0.066 TIME LEFT:  2.00W  GRAD.:     2.619 HEAT: -59.86847
 CYCLE:    19 TIME:   0.246 TIME LEFT:  2.00W  GRAD.:     2.598 HEAT: -59.86902

     TRUST RADIUS NOW LESS THAN  0.00010 OPTIMIZATION TERMINATING
      THE GEOMETRY MAY NOT BE COMPLETELY OPTIMIZED
      (TO CONTINUE, ADD 'LET DDMIN=0.0' TO THE KEYWORD LINE)

 -------------------------------------------------------------------------------
 PM7 BONDS AUX DUMP=30M ITRY=15000 T=14D CHARGE=0 SINGLET eps=78.4 RELSCF=1
 Title: ASE calculation



     GEOMETRY OPTIMISED USING EIGENVECTOR FOLLOWING (EF).     
     SCF FIELD WAS ACHIEVED                                   


                              PM7 CALCULATION
                                                       MOPAC v22.0.6 Linux
                                                       Tue Mar 26 11:44:04 2024




          FINAL HEAT OF FORMATION =        -59.86902 KCAL/MOL =    -250.49197 KJ/MOL
          VAN DER WAALS AREA      =        259.55 SQUARE ANGSTROMS



          DIELECTRIC ENERGY       =         -2.73773 EV
          COSMO AREA              =        259.55 SQUARE ANGSTROMS
          COSMO VOLUME            =        263.73 CUBIC ANGSTROMS

          GRADIENT NORM           =          2.59792          =       0.49096 PER ATOM
          IONIZATION POTENTIAL    =          8.633390 EV
          HOMO LUMO ENERGIES (EV) =         -8.633 -1.298
          NO. OF FILLED LEVELS    =         39
          MOLECULAR WEIGHT        =        198.2212         POINT GROUP:  C1  

          MOLECULAR DIMENSIONS (Angstroms)

            Atom       Atom       Distance
            H    22    O     4    10.73275
            H    11    H    24     5.36373
            H     8    H     2     2.98907


          SCF CALCULATIONS        =         50

          WALL-CLOCK TIME         =      1.590 SECONDS
          COMPUTATION TIME        =          1 MINUTE AND 56.309 SECONDS



       FINAL  POINT  AND  DERIVATIVES

   PARAMETER     ATOM    TYPE            VALUE        GRADIENT
      1          1  C    CARTESIAN X     0.608922     -0.438705  KCAL/ANGSTROM
      2          1  C    CARTESIAN Y     0.242949     -0.042651  KCAL/ANGSTROM
      3          1  C    CARTESIAN Z     0.271923     -0.044551  KCAL/ANGSTROM
      4          2  H    CARTESIAN X     0.212855     -0.149778  KCAL/ANGSTROM
      5          2  H    CARTESIAN Y    -0.019213      0.004043  KCAL/ANGSTROM
      6          2  H    CARTESIAN Z     1.260002      0.096326  KCAL/ANGSTROM
      7          3  N    CARTESIAN X     0.829512     -0.197022  KCAL/ANGSTROM
      8          3  N    CARTESIAN Y    -2.125981     -0.095923  KCAL/ANGSTROM
      9          3  N    CARTESIAN Z    -0.215644     -0.012661  KCAL/ANGSTROM
     10          4  O    CARTESIAN X     0.579582     -0.502822  KCAL/ANGSTROM
     11          4  O    CARTESIAN Y    -2.441579     -0.084031  KCAL/ANGSTROM
     12          4  O    CARTESIAN Z     0.975007      0.110349  KCAL/ANGSTROM
     13          5  O    CARTESIAN X     1.069861      0.833562  KCAL/ANGSTROM
     14          5  O    CARTESIAN Y    -3.066516     -0.012860  KCAL/ANGSTROM
     15          5  O    CARTESIAN Z    -1.020372      0.331379  KCAL/ANGSTROM
     16          6  H    CARTESIAN X     1.248152      0.370305  KCAL/ANGSTROM
     17          6  H    CARTESIAN Y     1.831948     -0.091999  KCAL/ANGSTROM
     18          6  H    CARTESIAN Z    -1.006992      0.146769  KCAL/ANGSTROM
     19          7  C    CARTESIAN X     0.863201     -0.486110  KCAL/ANGSTROM
     20          7  C    CARTESIAN Y    -0.856380     -0.008052  KCAL/ANGSTROM
     21          7  C    CARTESIAN Z    -0.626358     -0.060676  KCAL/ANGSTROM
     22          8  H    CARTESIAN X     1.087650      0.539690  KCAL/ANGSTROM
     23          8  H    CARTESIAN Y    -0.654487     -0.141819  KCAL/ANGSTROM
     24          8  H    CARTESIAN Z    -1.669817      0.206100  KCAL/ANGSTROM
     25          9  H    CARTESIAN X     3.017105      0.071120  KCAL/ANGSTROM
     26          9  H    CARTESIAN Y    -0.313940      0.309425  KCAL/ANGSTROM
     27          9  H    CARTESIAN Z    -0.736592     -1.101693  KCAL/ANGSTROM
     28         10  C    CARTESIAN X     0.842844     -0.007091  KCAL/ANGSTROM
     29         10  C    CARTESIAN Y     1.518234     -0.212855  KCAL/ANGSTROM
     30         10  C    CARTESIAN Z    -0.060236      0.191268  KCAL/ANGSTROM
     31         11  H    CARTESIAN X     0.652564     -0.274554  KCAL/ANGSTROM
     32         11  H    CARTESIAN Y     2.347373     -0.053903  KCAL/ANGSTROM
     33         11  H    CARTESIAN Z     0.599415     -0.021304  KCAL/ANGSTROM
     34         12  C    CARTESIAN X     6.865646      0.074289  KCAL/ANGSTROM
     35         12  C    CARTESIAN Y     1.372204     -0.215269  KCAL/ANGSTROM
     36         12  C    CARTESIAN Z    -0.182139      0.119610  KCAL/ANGSTROM
     37         13  C    CARTESIAN X     7.874161      0.089825  KCAL/ANGSTROM
     38         13  C    CARTESIAN Y     2.333479     -0.204919  KCAL/ANGSTROM
     39         13  C    CARTESIAN Z    -0.052915      0.040648  KCAL/ANGSTROM
     40         14  C    CARTESIAN X     7.512210     -0.112426  KCAL/ANGSTROM
     41         14  C    CARTESIAN Y     3.685602     -0.218784  KCAL/ANGSTROM
     42         14  C    CARTESIAN Z    -0.032650     -0.055345  KCAL/ANGSTROM
     43         15  C    CARTESIAN X     6.170515     -0.131133  KCAL/ANGSTROM
     44         15  C    CARTESIAN Y     4.043519     -0.022327  KCAL/ANGSTROM
     45         15  C    CARTESIAN Z    -0.135596      0.007090  KCAL/ANGSTROM
     46         16  C    CARTESIAN X     5.200198     -0.128401  KCAL/ANGSTROM
     47         16  C    CARTESIAN Y     3.051422     -0.032526  KCAL/ANGSTROM
     48         16  C    CARTESIAN Z    -0.264494      0.080835  KCAL/ANGSTROM
     49         17  N    CARTESIAN X     5.562944      0.306775  KCAL/ANGSTROM
     50         17  N    CARTESIAN Y     1.742179      0.178809  KCAL/ANGSTROM
     51         17  N    CARTESIAN Z    -0.288738      0.089663  KCAL/ANGSTROM
     52         18  H    CARTESIAN X     7.093423      0.105248  KCAL/ANGSTROM
     53         18  H    CARTESIAN Y     0.291086     -0.252032  KCAL/ANGSTROM
     54         18  H    CARTESIAN Z    -0.199947      0.205250  KCAL/ANGSTROM
     55         19  H    CARTESIAN X     5.869887     -0.170796  KCAL/ANGSTROM
     56         19  H    CARTESIAN Y     5.097807      0.188302  KCAL/ANGSTROM
     57         19  H    CARTESIAN Z    -0.118253     -0.083643  KCAL/ANGSTROM
     58         20  H    CARTESIAN X     4.125612     -0.198491  KCAL/ANGSTROM
     59         20  H    CARTESIAN Y     3.290012     -0.100905  KCAL/ANGSTROM
     60         20  H    CARTESIAN Z    -0.349783      0.073656  KCAL/ANGSTROM
     61         21  C    CARTESIAN X     9.288161      0.067584  KCAL/ANGSTROM
     62         21  C    CARTESIAN Y     1.904398     -0.132853  KCAL/ANGSTROM
     63         21  C    CARTESIAN Z     0.044605     -0.074433  KCAL/ANGSTROM
     64         22  H    CARTESIAN X     9.967107     -0.213503  KCAL/ANGSTROM
     65         22  H    CARTESIAN Y     2.721534      0.024783  KCAL/ANGSTROM
     66         22  H    CARTESIAN Z     0.335886      0.002268  KCAL/ANGSTROM
     67         23  H    CARTESIAN X     9.662931      0.075361  KCAL/ANGSTROM
     68         23  H    CARTESIAN Y     1.516111     -0.041733  KCAL/ANGSTROM
     69         23  H    CARTESIAN Z    -0.920306     -0.053881  KCAL/ANGSTROM
     70         24  H    CARTESIAN X     9.437536      0.343983  KCAL/ANGSTROM
     71         24  H    CARTESIAN Y     1.096708     -0.075489  KCAL/ANGSTROM
     72         24  H    CARTESIAN Z     0.782410      0.073225  KCAL/ANGSTROM
     73         25  H    CARTESIAN X     8.282340     -0.121007  KCAL/ANGSTROM
     74         25  H    CARTESIAN Y     4.458894     -0.379113  KCAL/ANGSTROM
     75         25  H    CARTESIAN Z     0.063547     -0.100019  KCAL/ANGSTROM
     76         26  H    CARTESIAN X     4.276788     -0.207147  KCAL/ANGSTROM
     77         26  H    CARTESIAN Y    -1.022303      1.026755  KCAL/ANGSTROM
     78         26  H    CARTESIAN Z    -0.223133      0.486400  KCAL/ANGSTROM
     79         27  O    CARTESIAN X     3.981626      0.172921  KCAL/ANGSTROM
     80         27  O    CARTESIAN Y    -0.348533      0.499591  KCAL/ANGSTROM
     81         27  O    CARTESIAN Z    -0.860610     -0.667020  KCAL/ANGSTROM
     82         28  H    CARTESIAN X     4.819866      0.288500  KCAL/ANGSTROM
     83         28  H    CARTESIAN Y     0.993786      0.188467  KCAL/ANGSTROM
     84         28  H    CARTESIAN Z    -0.408939      0.014595  KCAL/ANGSTROM




   ATOM   CHEMICAL          X               Y               Z
  NUMBER   SYMBOL      (ANGSTROMS)     (ANGSTROMS)     (ANGSTROMS)

     1       C          0.60892177  *   0.24294888  *   0.27192344  *
     2       H          0.21285485  *  -0.01921318  *   1.26000176  *
     3       N          0.82951196  *  -2.12598072  *  -0.21564397  *
     4       O          0.57958203  *  -2.44157941  *   0.97500738  *
     5       O          1.06986072  *  -3.06651640  *  -1.02037215  *
     6       H          1.24815240  *   1.83194817  *  -1.00699221  *
     7       C          0.86320055  *  -0.85638004  *  -0.62635847  *
     8       H          1.08765014  *  -0.65448663  *  -1.66981672  *
     9       H          3.01710459  *  -0.31394005  *  -0.73659171  *
    10       C          0.84284375  *   1.51823400  *  -0.06023569  *
    11       H          0.65256424  *   2.34737283  *   0.59941491  *
    12       C          6.86564596  *   1.37220403  *  -0.18213856  *
    13       C          7.87416135  *   2.33347900  *  -0.05291529  *
    14       C          7.51220950  *   3.68560172  *  -0.03265011  *
    15       C          6.17051510  *   4.04351902  *  -0.13559629  *
    16       C          5.20019827  *   3.05142234  *  -0.26449378  *
    17       N          5.56294351  *   1.74217915  *  -0.28873816  *
    18       H          7.09342348  *   0.29108600  *  -0.19994661  *
    19       H          5.86988685  *   5.09780719  *  -0.11825336  *
    20       H          4.12561187  *   3.29001231  *  -0.34978271  *
    21       C          9.28816106  *   1.90439755  *   0.04460520  *
    22       H          9.96710696  *   2.72153397  *   0.33588628  *
    23       H          9.66293148  *   1.51611079  *  -0.92030560  *
    24       H          9.43753578  *   1.09670789  *   0.78240966  *
    25       H          8.28234044  *   4.45889410  *   0.06354666  *
    26       H          4.27678763  *  -1.02230335  *  -0.22313313  *
    27       O          3.98162617  *  -0.34853317  *  -0.86060971  *
    28       H          4.81986608  *   0.99378559  *  -0.40893859  *

                             CARTESIAN COORDINATES

   1    C        0.608921768     0.242948883     0.271923441
   2    H        0.212854845    -0.019213176     1.260001764
   3    N        0.829511962    -2.125980722    -0.215643966
   4    O        0.579582031    -2.441579413     0.975007385
   5    O        1.069860725    -3.066516399    -1.020372153
   6    H        1.248152403     1.831948168    -1.006992209
   7    C        0.863200551    -0.856380041    -0.626358470
   8    H        1.087650139    -0.654486633    -1.669816717
   9    H        3.017104591    -0.313940054    -0.736591715
  10    C        0.842843751     1.518234004    -0.060235694
  11    H        0.652564238     2.347372828     0.599414914
  12    C        6.865645958     1.372204026    -0.182138556
  13    C        7.874161352     2.333478995    -0.052915286
  14    C        7.512209501     3.685601720    -0.032650113
  15    C        6.170515101     4.043519023    -0.135596292
  16    C        5.200198270     3.051422338    -0.264493780
  17    N        5.562943511     1.742179152    -0.288738164
  18    H        7.093423479     0.291085999    -0.199946607
  19    H        5.869886854     5.097807185    -0.118253357
  20    H        4.125611867     3.290012314    -0.349782708
  21    C        9.288161063     1.904397546     0.044605201
  22    H        9.967106957     2.721533968     0.335886278
  23    H        9.662931478     1.516110794    -0.920305595
  24    H        9.437535778     1.096707890     0.782409657
  25    H        8.282340437     4.458894098     0.063546661
  26    H        4.276787629    -1.022303354    -0.223133129
  27    O        3.981626167    -0.348533166    -0.860609711
  28    H        4.819866079     0.993785593    -0.408938590


           Empirical Formula: C9 H14 N2 O3  =    28 atoms



      MOLECULAR POINT GROUP   :   C1  


                  EIGENVALUES  
 -38.65262 -36.02224 -30.20870 -29.71421 -28.39372 -28.01985 -27.69842 -25.64822
 -25.19657 -23.54729 -22.10421 -21.30365 -19.71300 -19.43957 -18.16542 -17.81529
 -17.62974 -17.09704 -17.05240 -16.26493 -16.08409 -15.96878 -15.22069 -14.96629
 -14.34762 -14.31844 -14.18464 -13.91180 -13.45743 -13.07911 -12.62950 -12.08045
 -11.66409 -11.46519 -11.16911 -10.98130 -10.86452 -10.68023  -8.63339  -1.29816
  -0.93891   0.38576   1.22028   1.35462   1.75039   1.99329   3.07002   3.18854
   3.54584   3.70869   4.04319   4.09252   4.22553   4.25990   4.67155   4.82589
   5.28449   5.32852   5.36273   5.40989   5.48587   5.53887   5.65038   6.06039
   6.07545   6.11608   6.33374   6.56451   6.57215   6.85938


              NET ATOMIC CHARGES AND DIPOLE CONTRIBUTIONS

  ATOM NO.   TYPE          CHARGE      No. of ELECS.   s-Pop       p-Pop       
    1          C          -0.047615        4.0476     1.07829     2.96932
    2          H           0.155995        0.8440     0.84400
    3          N           0.721661        4.2783     1.41493     2.86341
    4          O          -0.687146        6.6871     1.94442     4.74272
    5          O          -0.704141        6.7041     1.94539     4.75875
    6          H           0.148374        0.8516     0.85163
    7          C          -0.492045        4.4920     1.05601     3.43604
    8          H           0.191145        0.8089     0.80886
    9          H           0.379562        0.6204     0.62044
   10          C          -0.421562        4.4216     1.08812     3.33345
   11          H           0.147656        0.8523     0.85234
   12          C           0.002115        3.9979     1.10669     2.89120
   13          C           0.014810        3.9852     1.07360     2.91159
   14          C          -0.079916        4.0799     1.10236     2.97756
   15          C          -0.168256        4.1683     1.09329     3.07497
   16          C           0.026383        3.9736     1.10387     2.86974
   17          N          -0.152892        5.1529     1.51466     3.63823
   18          H           0.227051        0.7729     0.77295
   19          H           0.204778        0.7952     0.79522
   20          H           0.222635        0.7774     0.77737
   21          C          -0.468856        4.4689     1.04886     3.42000
   22          H           0.178148        0.8219     0.82185
   23          H           0.188714        0.8113     0.81129
   24          H           0.186798        0.8132     0.81320
   25          H           0.193492        0.8065     0.80651
   26          H           0.391759        0.6082     0.60824
   27          O          -0.740565        6.7406     1.81377     4.92680
   28          H           0.381917        0.6181     0.61808
 DIPOLE           X         Y         Z       TOTAL
 POINT-CHG.    23.985    20.873     0.393    31.799
 HYBRID        -0.307    -0.829     0.264     0.922
 SUM           23.679    20.045     0.657    31.031


          ATOMIC ORBITAL ELECTRON POPULATIONS

     Atom    s        px        py        pz   
    1  C   1.07829   0.95660   0.96724   1.04549
    2  H   0.84400
    3  N   1.41493   0.94705   0.98945   0.92692
    4  O   1.94442   1.72727   1.89950   1.11596
    5  O   1.94539   1.73867   1.47032   1.54976
    6  H   0.85163
    7  C   1.05601   1.44361   0.87399   1.11844
    8  H   0.80886
    9  H   0.62044
   10  C   1.08812   1.12623   1.05409   1.15312
   11  H   0.85234
   12  C   1.10669   0.84474   1.09799   0.94847
   13  C   1.07360   0.99202   0.96941   0.95016
   14  C   1.10236   1.04254   1.03932   0.89569
   15  C   1.09329   0.98525   1.10318   0.98654
   16  C   1.10387   1.09129   0.84071   0.93774
   17  N   1.51466   1.16325   1.16261   1.31238
   18  H   0.77295
   19  H   0.79522
   20  H   0.77737
   21  C   1.04886   1.01503   1.19862   1.20635
   22  H   0.82185
   23  H   0.81129
   24  H   0.81320
   25  H   0.80651
   26  H   0.60824
   27  O   1.81377   1.46258   1.72457   1.73965
   28  H   0.61808

          BONDING CONTRIBUTION OF EACH M.O.

  1.4495  1.4170  1.7951  1.2261  1.0776  1.9167  1.6259  1.3300  1.9887  1.8792
  1.9670  1.2884  1.9266  1.6079  1.5983  2.0472  1.5519  1.4192  1.8667  1.2739
  1.9108  1.8550  2.0032  0.8242  1.8388  1.8928  1.8956  1.9119  1.5969  1.5299
  1.0387  1.9564  1.9682  1.6202  0.4889  0.4752  0.2487  2.0813  1.2385 -2.0512
 -1.9101 -2.2996 -1.9001 -1.9424 -2.2758 -2.1681 -1.8926 -1.9009 -1.9877 -1.8454
 -1.9833 -1.8732 -1.9854 -1.9550 -1.8819 -1.9369 -1.9234 -1.9290 -1.9380 -1.9568
 -1.9216 -1.9368 -1.8211 -1.8011 -1.9222 -1.9161 -1.9547 -1.9806 -1.8836 -1.9536





            (VALENCIES)   BOND ORDERS

     1  C     (3.968)    10  C 1.911     7  C 1.077     2  H 0.960     5  O 0.012

     2  H     (0.976)     1  C 0.960

     3  N     (3.815)     7  C 1.354     4  O 1.217     5  O 1.202    10  C 0.034

     4  O     (1.550)     3  N 1.217     5  O 0.158     7  C 0.147    10  C 0.013     8  H 0.010

     5  O     (1.527)     3  N 1.202     4  O 0.158     7  C 0.140    10  C 0.014     1  C 0.012

     6  H     (0.978)    10  C 0.968

     7  C     (3.717)     3  N 1.354     1  C 1.077     8  H 0.943     4  O 0.147     5  O 0.140    10  C 0.030
                          9  H 0.012

     8  H     (0.963)     7  C 0.943     4  O 0.010

     9  H     (0.856)    27  O 0.835     7  C 0.012

    10  C     (3.941)     1  C 1.911    11  H 0.969     6  H 0.968     3  N 0.034     7  C 0.030     5  O 0.014
                          4  O 0.013

    11  H     (0.978)    10  C 0.969

    12  C     (3.903)    13  C 1.428    17  N 1.327    18  H 0.931    15  C 0.102    16  C 0.046    14  C 0.020

    13  C     (3.989)    12  C 1.428    14  C 1.405    21  C 1.021    16  C 0.105

    14  C     (3.951)    15  C 1.441    13  C 1.405    25  H 0.950    17  N 0.097    12  C 0.020    16  C 0.010

    15  C     (3.959)    16  C 1.445    14  C 1.441    19  H 0.944    12  C 0.102

    16  C     (3.902)    15  C 1.445    17  N 1.327    20  H 0.933    13  C 0.105    12  C 0.046    28  H 0.010
                         14  C 0.010

    17  N     (3.560)    16  C 1.327    12  C 1.327    28  H 0.755    14  C 0.097    27  O 0.023

    18  H     (0.948)    12  C 0.931

    19  H     (0.958)    15  C 0.944

    20  H     (0.950)    16  C 0.933

    21  C     (3.899)    13  C 1.021    22  H 0.957    24  H 0.948    23  H 0.942

    22  H     (0.968)    21  C 0.957

    23  H     (0.964)    21  C 0.942

    24  H     (0.965)    21  C 0.948

    25  H     (0.963)    14  C 0.950

    26  H     (0.847)    27  O 0.843

    27  O     (1.778)    26  H 0.843     9  H 0.835    28  H 0.063    17  N 0.023

    28  H     (0.854)    17  N 0.755    27  O 0.063    16  C 0.010


 **********************
 *                    *
 * JOB ENDED NORMALLY *
 *                    *
 **********************



 TOTAL JOB TIME:             1.60 SECONDS

 == MOPAC DONE ==
