 *******************************************************************************
 **                                                                           **
 **                              MOPAC v22.1.0                                **
 **                                                                           **
 *******************************************************************************
 **          Digital Object Identifier (DOI): 10.5281/zenodo.6511958          **
 **    Visit the DOI location for information on how to cite this program.    **
 *******************************************************************************

                              PM7 CALCULATION RESULTS

 *******************************************************************************
 *  CALCULATION DONE:                                Sat Mar 23 14:58:19 2024  *
 *  PM7        - The PM7 Hamiltonian to be used
 *  SINGLET    - SPIN STATE DEFINED AS A SINGLET
 *
 *
 *
 *                 CHARGE ON SYSTEM = 0
 *
 *
 *
 *  EPS=78.4   - USE ANDREAS KLAMT'S COSMO IMPLICIT SOLVATION MODEL
 *  THREADS    - USE A MAXIMUM OF 40 THREADS
 *  T=         - A TIME OF 14.0 DAYS REQUESTED
 *  DUMP=N     - RESTART FILE WRITTEN EVERY 30.0 MINUTES REQUESTED
 *  ITRY=      - DO A MAXIMUM OF 15000 ITERATIONS FOR SCF
 *  AUX        - OUTPUT AUXILIARY INFORMATION
 *  PL         - MONITOR CONVERGENCE IN DENSITY MATRIX
 *******************************************************************************
PM7 CHARGE=0 SINGLET AUX DUMP=30M ITRY=15000 eps=78.4 T=14D PL THREADS=40

 Mopac file generated by Gabedit
   ATOM   CHEMICAL          X               Y               Z
  NUMBER   SYMBOL      (ANGSTROMS)     (ANGSTROMS)     (ANGSTROMS)

     1       C          0.78832000  *  -0.20383000  *   0.10825000  *
     2       H          0.81762000  *  -0.29272000  *  -0.98750000  *
     3       N          0.57765000  *  -2.63204000  *   0.34244000  *
     4       O          0.61578000  *  -2.91730000  *  -0.84709000  *
     5       O         -0.06558000  *  -3.29477000  *   1.13917000  *
     6       H          1.88440000  *  -0.47087000  *   2.67969000  *
     7       C          1.35415000  *  -1.43399000  *   0.81014000  *
     8       H          2.42308000  *  -1.61029000  *   0.48923000  *
     9       H         -0.25155000  *   0.00579000  *   0.39515000  *
    10       C          1.27313000  *  -1.31474000  *   2.32450000  *
    11       H          0.24761000  *  -1.14051000  *   2.68023000  *
    12       C          6.42407000  *  -1.21708000  *  -1.02424000  *
    13       C          7.76616000  *  -1.46898000  *  -1.33085000  *
    14       C          8.33553000  *  -2.66658000  *  -0.90136000  *
    15       C          7.55526000  *  -3.57142000  *  -0.18422000  *
    16       C          6.22027000  *  -3.24342000  *   0.08096000  *
    17       N          5.66236000  *  -2.08680000  *  -0.32975000  *
    18       H          8.34893000  *  -0.74195000  *  -1.89439000  *
    19       H          9.38063000  *  -2.89335000  *  -1.12548000  *
    20       H          7.97090000  *  -4.51591000  *   0.16416000  *
    21       H          1.37449000  *   0.69176000  *   0.36917000  *
    22       H          1.64410000  *  -2.21555000  *   2.83475000  *
    23       H          5.56325000  *  -3.92275000  *   0.64112000  *
    24       H          5.92878000  *  -0.28952000  *  -1.34069000  *
    25       H          4.19288000  *  -2.82976000  *   0.84297500  *
    26       H          4.65514500  *  -1.30502700  *  -0.12861500  *
    27       O          4.22869100  *  -1.69830000  *   0.74659200  *



          CARTESIAN COORDINATES 

    NO.       ATOM           X           Y           Z

     1         C          0.7883     -0.2038      0.1083
     2         H          0.8176     -0.2927     -0.9875
     3         N          0.5777     -2.6320      0.3424
     4         O          0.6158     -2.9173     -0.8471
     5         O         -0.0656     -3.2948      1.1392
     6         H          1.8844     -0.4709      2.6797
     7         C          1.3541     -1.4340      0.8101
     8         H          2.4231     -1.6103      0.4892
     9         H         -0.2515      0.0058      0.3952
    10         C          1.2731     -1.3147      2.3245
    11         H          0.2476     -1.1405      2.6802
    12         C          6.4241     -1.2171     -1.0242
    13         C          7.7662     -1.4690     -1.3309
    14         C          8.3355     -2.6666     -0.9014
    15         C          7.5553     -3.5714     -0.1842
    16         C          6.2203     -3.2434      0.0810
    17         N          5.6624     -2.0868     -0.3298
    18         H          8.3489     -0.7420     -1.8944
    19         H          9.3806     -2.8933     -1.1255
    20         H          7.9709     -4.5159      0.1642
    21         H          1.3745      0.6918      0.3692
    22         H          1.6441     -2.2155      2.8348
    23         H          5.5633     -3.9228      0.6411
    24         H          5.9288     -0.2895     -1.3407
    25         H          4.1929     -2.8298      0.8430
    26         H          4.6551     -1.3050     -0.1286
    27         O          4.2287     -1.6983      0.7466

 General Reference for PM7:
 "Optimization of Parameters for Semiempirical Methods VI: More Modifications to the 
 NDDO Approximations and Re-optimization of Parameters", J. J. P. Stewart, J. Mol. Mod., 1:32, 19 (2013)
 https://link.springer.com/article/10.1007/s00894-012-1667-x

           Empirical Formula: C8 H14 N2 O3  =    27 atoms



      MOLECULAR POINT GROUP   :   C1  


 SINGLET STATE CALCULATION


      RHF CALCULATION, NO. OF DOUBLY OCCUPIED LEVELS = 37


          Geometry optimization using EF
 ITERATION   1 PLS= 0.100E+01 0.000E+00 ENERGY    12158.816165 DELTAE    0.0000000
 ITERATION   2 PLS= 0.117E+01 0.000E+00 ENERGY      173.531220 DELTAE    0.0000000
 ITERATION   3 PLS= 0.933E-01 0.000E+00 ENERGY       92.611765 DELTAE  -80.9194550
 ITERATION   4 PLS= 0.614E-01 0.000E+00 ENERGY      -85.843520 DELTAE -178.4552850
 ITERATION   5 PLS= 0.229E-01 0.000E+00 ENERGY       23.508944 DELTAE  109.3524642
 ITERATION   6 PLS= 0.239E-01 0.000E+00 ENERGY       19.880133 DELTAE   -3.6288111
 ITERATION   7 PLS= 0.150E-01 0.000E+00 ENERGY       15.735168 DELTAE   -4.1449653
 ITERATION   8 PLS= 0.459E-02 0.000E+00 ENERGY       18.398837 DELTAE    2.6636690
 ITERATION   9 PLS= 0.195E-02 0.000E+00 ENERGY       18.382826 DELTAE   -0.0160110
 ITERATION  10 PLS= 0.855E-03 0.000E+00 ENERGY       18.374733 DELTAE   -0.0080927
 ITERATION  11 PLS= 0.176E-03 0.000E+00 ENERGY       18.378603 DELTAE    0.0038695
 ITERATION  12 PLS= 0.127E-03 0.000E+00 ENERGY       18.378571 DELTAE   -0.0000317
 ITERATION   1 PLS= 0.923E-04 0.000E+00 ENERGY        3.267625 DELTAE  -96.7323747
 ITERATION   2 PLS= 0.263E-01 0.000E+00 ENERGY        1.851613 DELTAE   -1.4160118
 ITERATION   3 PLS= 0.120E-01 0.000E+00 ENERGY        1.533000 DELTAE   -0.3186135
 ITERATION   4 PLS= 0.593E-02 0.000E+00 ENERGY        1.280405 DELTAE   -0.2525951
 ITERATION   5 PLS= 0.908E-03 0.000E+00 ENERGY        1.396087 DELTAE    0.1156820
 ITERATION   6 PLS= 0.570E-03 0.000E+00 ENERGY        1.394690 DELTAE   -0.0013965
 ITERATION   7 PLS= 0.347E-03 0.000E+00 ENERGY        1.392175 DELTAE   -0.0025153
 ITERATION   8 PLS= 0.610E-04 0.000E+00 ENERGY        1.393790 DELTAE    0.0016150

          DIAGONAL MATRIX USED AS START HESSIAN

 CYCLE:     1 TIME:   0.105 TIME LEFT:  2.00W  GRAD.:   269.990 HEAT:  1.393787
 ITERATION   1 PLS= 0.330E-04 0.000E+00 ENERGY      -18.793752 DELTAE -118.7937523
 ITERATION   2 PLS= 0.408E-01 0.000E+00 ENERGY      -28.970823 DELTAE  -10.1770704
 ITERATION   3 PLS= 0.186E-01 0.000E+00 ENERGY      -30.544594 DELTAE   -1.5737712
 ITERATION   4 PLS= 0.880E-02 0.000E+00 ENERGY      -31.376531 DELTAE   -0.8319371
 ITERATION   5 PLS= 0.856E-03 0.000E+00 ENERGY      -30.981138 DELTAE    0.3953926
 ITERATION   6 PLS= 0.507E-03 0.000E+00 ENERGY      -30.982133 DELTAE   -0.0009951
 CYCLE:     2 TIME:   0.035 TIME LEFT:  2.00W  GRAD.:   132.513 HEAT: -30.98295
 ITERATION   1 PLS= 0.287E-03 0.000E+00 ENERGY      -27.997538 DELTAE -127.9975383
 ITERATION   2 PLS= 0.417E-01 0.000E+00 ENERGY      -40.321190 DELTAE  -12.3236513
 ITERATION   3 PLS= 0.114E-01 0.000E+00 ENERGY      -41.896158 DELTAE   -1.5749688
 ITERATION   4 PLS= 0.583E-02 0.000E+00 ENERGY      -42.754574 DELTAE   -0.8584153
 ITERATION   5 PLS= 0.265E-02 0.000E+00 ENERGY      -42.366434 DELTAE    0.3881400
 ITERATION   6 PLS= 0.189E-02 0.000E+00 ENERGY      -42.377373 DELTAE   -0.0109396
 ITERATION   7 PLS= 0.137E-02 0.000E+00 ENERGY      -42.415491 DELTAE   -0.0381173
 ITERATION   8 PLS= 0.128E-03 0.000E+00 ENERGY      -42.388162 DELTAE    0.0273282
 CYCLE:     3 TIME:   0.043 TIME LEFT:  2.00W  GRAD.:   182.267 HEAT: -42.38819
 ITERATION   1 PLS= 0.675E-04 0.000E+00 ENERGY      -23.566506 DELTAE -123.5665064
 ITERATION   2 PLS= 0.286E-01 0.000E+00 ENERGY      -42.761027 DELTAE  -19.1945210
 ITERATION   3 PLS= 0.901E-02 0.000E+00 ENERGY      -45.241865 DELTAE   -2.4808373
 ITERATION   4 PLS= 0.431E-02 0.000E+00 ENERGY      -46.388549 DELTAE   -1.1466845
 ITERATION   5 PLS= 0.122E-02 0.000E+00 ENERGY      -45.912171 DELTAE    0.4763781
 ITERATION   6 PLS= 0.925E-03 0.000E+00 ENERGY      -45.925295 DELTAE   -0.0131237
 ITERATION   7 PLS= 0.742E-03 0.000E+00 ENERGY      -45.964720 DELTAE   -0.0394256
 ITERATION   8 PLS= 0.197E-03 0.000E+00 ENERGY      -45.937631 DELTAE    0.0270892
 CYCLE:     4 TIME:   0.039 TIME LEFT:  2.00W  GRAD.:   235.875 HEAT: -45.93768
 ITERATION   1 PLS= 0.123E-03 0.000E+00 ENERGY       -8.721064 DELTAE -108.7210640
 ITERATION   2 PLS= 0.504E-01 0.000E+00 ENERGY      -33.254975 DELTAE  -24.5339112
 ITERATION   3 PLS= 0.196E-01 0.000E+00 ENERGY      -36.624905 DELTAE   -3.3699296
 ITERATION   4 PLS= 0.118E-01 0.000E+00 ENERGY      -38.662720 DELTAE   -2.0378154
 ITERATION   5 PLS= 0.310E-02 0.000E+00 ENERGY      -37.595988 DELTAE    1.0667322
 ITERATION   6 PLS= 0.188E-02 0.000E+00 ENERGY      -37.608261 DELTAE   -0.0122728
 ITERATION   7 PLS= 0.130E-02 0.000E+00 ENERGY      -37.631914 DELTAE   -0.0236531
 ITERATION   8 PLS= 0.256E-03 0.000E+00 ENERGY      -37.617077 DELTAE    0.0148364
 ITERATION   1 PLS= 0.179E-03 0.000E+00 ENERGY      -48.604949 DELTAE -148.6049494
 ITERATION   2 PLS= 0.174E-01 0.000E+00 ENERGY      -54.513411 DELTAE   -5.9084619
 ITERATION   3 PLS= 0.981E-02 0.000E+00 ENERGY      -55.381422 DELTAE   -0.8680106
 ITERATION   4 PLS= 0.559E-02 0.000E+00 ENERGY      -55.938658 DELTAE   -0.5572358
 ITERATION   5 PLS= 0.145E-02 0.000E+00 ENERGY      -55.663469 DELTAE    0.2751891
 ITERATION   6 PLS= 0.101E-02 0.000E+00 ENERGY      -55.667841 DELTAE   -0.0043724
 ITERATION   7 PLS= 0.723E-03 0.000E+00 ENERGY      -55.678028 DELTAE   -0.0101871
 CYCLE:     5 TIME:   0.078 TIME LEFT:  2.00W  GRAD.:   145.109 HEAT: -55.67157
 ITERATION   1 PLS= 0.131E-03 0.000E+00 ENERGY      -29.281067 DELTAE -129.2810670
 ITERATION   2 PLS= 0.491E-01 0.000E+00 ENERGY      -45.847403 DELTAE  -16.5663356
 ITERATION   3 PLS= 0.188E-01 0.000E+00 ENERGY      -47.588441 DELTAE   -1.7410385
 ITERATION   4 PLS= 0.888E-02 0.000E+00 ENERGY      -48.547324 DELTAE   -0.9588826
 ITERATION   5 PLS= 0.220E-02 0.000E+00 ENERGY      -48.136192 DELTAE    0.4111322
 ITERATION   6 PLS= 0.159E-02 0.000E+00 ENERGY      -48.151096 DELTAE   -0.0149047
 ITERATION   7 PLS= 0.115E-02 0.000E+00 ENERGY      -48.195151 DELTAE   -0.0440551
 ITERATION   8 PLS= 0.110E-03 0.000E+00 ENERGY      -48.165310 DELTAE    0.0298417
 ITERATION   1 PLS= 0.819E-04 0.000E+00 ENERGY      -54.472167 DELTAE -154.4721671
 ITERATION   2 PLS= 0.273E-01 0.000E+00 ENERGY      -58.984951 DELTAE   -4.5127841
 ITERATION   3 PLS= 0.102E-01 0.000E+00 ENERGY      -59.462575 DELTAE   -0.4776242
 ITERATION   4 PLS= 0.488E-02 0.000E+00 ENERGY      -59.720390 DELTAE   -0.2578147
 ITERATION   5 PLS= 0.871E-03 0.000E+00 ENERGY      -59.612959 DELTAE    0.1074311
 ITERATION   6 PLS= 0.634E-03 0.000E+00 ENERGY      -59.616679 DELTAE   -0.0037197
 CYCLE:     6 TIME:   0.074 TIME LEFT:  2.00W  GRAD.:   106.627 HEAT: -59.62589
 ITERATION   1 PLS= 0.457E-03 0.000E+00 ENERGY      -50.098867 DELTAE -150.0988670
 ITERATION   2 PLS= 0.461E-01 0.000E+00 ENERGY      -57.517495 DELTAE   -7.4186276
 ITERATION   3 PLS= 0.166E-01 0.000E+00 ENERGY      -58.068999 DELTAE   -0.5515046
 ITERATION   4 PLS= 0.772E-02 0.000E+00 ENERGY      -58.283249 DELTAE   -0.2142498
 ITERATION   5 PLS= 0.154E-02 0.000E+00 ENERGY      -58.193419 DELTAE    0.0898298
 ITERATION   1 PLS= 0.910E-03 0.000E+00 ENERGY      -59.626903 DELTAE -159.6269028
 ITERATION   2 PLS= 0.224E-01 0.000E+00 ENERGY      -61.389725 DELTAE   -1.7628226
 ITERATION   3 PLS= 0.856E-02 0.000E+00 ENERGY      -61.526392 DELTAE   -0.1366664
 ITERATION   4 PLS= 0.397E-02 0.000E+00 ENERGY      -61.581044 DELTAE   -0.0546525
 ITERATION   5 PLS= 0.675E-03 0.000E+00 ENERGY      -61.557505 DELTAE    0.0235392
 CYCLE:     7 TIME:   0.066 TIME LEFT:  2.00W  GRAD.:    73.069 HEAT: -61.55792
 ITERATION   1 PLS= 0.399E-03 0.000E+00 ENERGY      -61.385602 DELTAE -161.3856017
 ITERATION   2 PLS= 0.128E-01 0.000E+00 ENERGY      -62.911003 DELTAE   -1.5254016
 ITERATION   3 PLS= 0.528E-02 0.000E+00 ENERGY      -63.083583 DELTAE   -0.1725799
 ITERATION   4 PLS= 0.260E-02 0.000E+00 ENERGY      -63.176054 DELTAE   -0.0924708
 ITERATION   5 PLS= 0.951E-03 0.000E+00 ENERGY      -63.130379 DELTAE    0.0456749
 CYCLE:     8 TIME:   0.035 TIME LEFT:  2.00W  GRAD.:    73.727 HEAT: -63.13140
 ITERATION   1 PLS= 0.631E-03 0.000E+00 ENERGY      -64.681734 DELTAE -164.6817336
 ITERATION   2 PLS= 0.648E-02 0.000E+00 ENERGY      -65.335722 DELTAE   -0.6539886
 ITERATION   3 PLS= 0.204E-02 0.000E+00 ENERGY      -65.420609 DELTAE   -0.0848866
 ITERATION   4 PLS= 0.906E-03 0.000E+00 ENERGY      -65.464715 DELTAE   -0.0441064
 ITERATION   5 PLS= 0.423E-03 0.000E+00 ENERGY      -65.443892 DELTAE    0.0208235
 CYCLE:     9 TIME:   0.035 TIME LEFT:  2.00W  GRAD.:    47.462 HEAT: -65.44432
 ITERATION   1 PLS= 0.276E-03 0.000E+00 ENERGY      -62.893069 DELTAE -162.8930688
 ITERATION   2 PLS= 0.148E-01 0.000E+00 ENERGY      -65.260351 DELTAE   -2.3672825
 ITERATION   3 PLS= 0.621E-02 0.000E+00 ENERGY      -65.556946 DELTAE   -0.2965952
 ITERATION   4 PLS= 0.337E-02 0.000E+00 ENERGY      -65.709922 DELTAE   -0.1529755
 ITERATION   5 PLS= 0.958E-03 0.000E+00 ENERGY      -65.633442 DELTAE    0.0764802
 CYCLE:    10 TIME:   0.035 TIME LEFT:  2.00W  GRAD.:   121.403 HEAT: -65.63435
 ITERATION   1 PLS= 0.665E-03 0.000E+00 ENERGY      -66.828048 DELTAE -166.8280480
 ITERATION   2 PLS= 0.153E-01 0.000E+00 ENERGY      -68.685417 DELTAE   -1.8573692
 ITERATION   3 PLS= 0.713E-02 0.000E+00 ENERGY      -68.936561 DELTAE   -0.2511435
 ITERATION   4 PLS= 0.381E-02 0.000E+00 ENERGY      -69.067039 DELTAE   -0.1304787
 ITERATION   5 PLS= 0.578E-03 0.000E+00 ENERGY      -69.002570 DELTAE    0.0644693
 CYCLE:    11 TIME:   0.035 TIME LEFT:  2.00W  GRAD.:    65.849 HEAT: -69.00309
 ITERATION   1 PLS= 0.355E-03 0.000E+00 ENERGY      -58.050176 DELTAE -158.0501756
 ITERATION   2 PLS= 0.176E-01 0.000E+00 ENERGY      -64.957134 DELTAE   -6.9069583
 ITERATION   3 PLS= 0.634E-02 0.000E+00 ENERGY      -66.098982 DELTAE   -1.1418483
 ITERATION   4 PLS= 0.325E-02 0.000E+00 ENERGY      -66.973041 DELTAE   -0.8740586
 ITERATION   5 PLS= 0.207E-02 0.000E+00 ENERGY      -66.535786 DELTAE    0.4372549
 ITERATION   6 PLS= 0.141E-02 0.000E+00 ENERGY      -66.544957 DELTAE   -0.0091712
 ITERATION   7 PLS= 0.978E-03 0.000E+00 ENERGY      -66.567933 DELTAE   -0.0229757
 ITERATION   8 PLS= 0.120E-03 0.000E+00 ENERGY      -66.553134 DELTAE    0.0147989
 ITERATION   1 PLS= 0.910E-04 0.000E+00 ENERGY      -67.764300 DELTAE -167.7643003
 ITERATION   2 PLS= 0.459E-02 0.000E+00 ENERGY      -68.790673 DELTAE   -1.0263723
 ITERATION   3 PLS= 0.177E-02 0.000E+00 ENERGY      -68.964764 DELTAE   -0.1740911
 ITERATION   4 PLS= 0.948E-03 0.000E+00 ENERGY      -69.080296 DELTAE   -0.1155324
 ITERATION   5 PLS= 0.602E-03 0.000E+00 ENERGY      -69.024555 DELTAE    0.0557410
 CYCLE:    12 TIME:   0.074 TIME LEFT:  2.00W  GRAD.:    85.949 HEAT: -69.02559
 ITERATION   1 PLS= 0.429E-03 0.000E+00 ENERGY      -68.238563 DELTAE -168.2385628
 ITERATION   2 PLS= 0.103E-01 0.000E+00 ENERGY      -70.185350 DELTAE   -1.9467870
 ITERATION   3 PLS= 0.290E-02 0.000E+00 ENERGY      -70.490709 DELTAE   -0.3053596
 ITERATION   4 PLS= 0.168E-02 0.000E+00 ENERGY      -70.725755 DELTAE   -0.2350457
 ITERATION   5 PLS= 0.117E-02 0.000E+00 ENERGY      -70.618481 DELTAE    0.1072741
 ITERATION   6 PLS= 0.841E-03 0.000E+00 ENERGY      -70.622365 DELTAE   -0.0038844
 ITERATION   7 PLS= 0.595E-03 0.000E+00 ENERGY      -70.633972 DELTAE   -0.0116066
 CYCLE:    13 TIME:   0.039 TIME LEFT:  2.00W  GRAD.:    63.259 HEAT: -70.62609
 ITERATION   1 PLS= 0.394E-04 0.000E+00 ENERGY      -66.629255 DELTAE -166.6292555
 ITERATION   2 PLS= 0.160E-01 0.000E+00 ENERGY      -69.462032 DELTAE   -2.8327769
 ITERATION   3 PLS= 0.806E-02 0.000E+00 ENERGY      -69.877863 DELTAE   -0.4158308
 ITERATION   4 PLS= 0.485E-02 0.000E+00 ENERGY      -70.132446 DELTAE   -0.2545827
 ITERATION   5 PLS= 0.844E-03 0.000E+00 ENERGY      -69.993309 DELTAE    0.1391366
 ITERATION   6 PLS= 0.390E-03 0.000E+00 ENERGY      -69.994036 DELTAE   -0.0007267
 ITERATION   1 PLS= 0.196E-03 0.000E+00 ENERGY      -70.688093 DELTAE -170.6880930
 ITERATION   2 PLS= 0.471E-02 0.000E+00 ENERGY      -71.055452 DELTAE   -0.3673591
 ITERATION   3 PLS= 0.293E-02 0.000E+00 ENERGY      -71.114581 DELTAE   -0.0591294
 ITERATION   4 PLS= 0.169E-02 0.000E+00 ENERGY      -71.152078 DELTAE   -0.0374969
 ITERATION   5 PLS= 0.244E-03 0.000E+00 ENERGY      -71.131650 DELTAE    0.0204278
 CYCLE:    14 TIME:   0.074 TIME LEFT:  2.00W  GRAD.:    57.179 HEAT: -71.13175
 ITERATION   1 PLS= 0.111E-03 0.000E+00 ENERGY      -71.147163 DELTAE -171.1471634
 ITERATION   2 PLS= 0.430E-02 0.000E+00 ENERGY      -71.909319 DELTAE   -0.7621561
 ITERATION   3 PLS= 0.231E-02 0.000E+00 ENERGY      -72.013536 DELTAE   -0.1042161
 ITERATION   4 PLS= 0.117E-02 0.000E+00 ENERGY      -72.067973 DELTAE   -0.0544378
 ITERATION   5 PLS= 0.169E-03 0.000E+00 ENERGY      -72.037453 DELTAE    0.0305201
 CYCLE:    15 TIME:   0.035 TIME LEFT:  2.00W  GRAD.:    37.267 HEAT: -72.03762
 ITERATION   1 PLS= 0.108E-03 0.000E+00 ENERGY      -69.053019 DELTAE -169.0530195
 ITERATION   2 PLS= 0.864E-02 0.000E+00 ENERGY      -70.987642 DELTAE   -1.9346220
 ITERATION   3 PLS= 0.359E-02 0.000E+00 ENERGY      -71.242251 DELTAE   -0.2546095
 ITERATION   4 PLS= 0.183E-02 0.000E+00 ENERGY      -71.373773 DELTAE   -0.1315215
 ITERATION   5 PLS= 0.417E-03 0.000E+00 ENERGY      -71.301329 DELTAE    0.0724438
 ITERATION   1 PLS= 0.204E-03 0.000E+00 ENERGY      -71.817392 DELTAE -171.8173925
 ITERATION   2 PLS= 0.301E-02 0.000E+00 ENERGY      -72.127069 DELTAE   -0.3096768
 ITERATION   3 PLS= 0.116E-02 0.000E+00 ENERGY      -72.170736 DELTAE   -0.0436671
 ITERATION   4 PLS= 0.561E-03 0.000E+00 ENERGY      -72.192285 DELTAE   -0.0215491
 ITERATION   5 PLS= 0.140E-03 0.000E+00 ENERGY      -72.181504 DELTAE    0.0107812
 CYCLE:    16 TIME:   0.066 TIME LEFT:  2.00W  GRAD.:    46.243 HEAT: -72.18157
 ITERATION   1 PLS= 0.677E-04 0.000E+00 ENERGY      -72.521892 DELTAE -172.5218920
 ITERATION   2 PLS= 0.236E-02 0.000E+00 ENERGY      -72.832212 DELTAE   -0.3103204
 ITERATION   3 PLS= 0.126E-02 0.000E+00 ENERGY      -72.876646 DELTAE   -0.0444335
 ITERATION   4 PLS= 0.664E-03 0.000E+00 ENERGY      -72.903588 DELTAE   -0.0269422
 ITERATION   5 PLS= 0.212E-03 0.000E+00 ENERGY      -72.890227 DELTAE    0.0133609
 CYCLE:    17 TIME:   0.035 TIME LEFT:  2.00W  GRAD.:    17.100 HEAT: -72.89049
 ITERATION   1 PLS= 0.152E-03 0.000E+00 ENERGY      -72.154030 DELTAE -172.1540304
 ITERATION   2 PLS= 0.644E-02 0.000E+00 ENERGY      -72.711148 DELTAE   -0.5571179
 ITERATION   3 PLS= 0.412E-02 0.000E+00 ENERGY      -72.814144 DELTAE   -0.1029959
 ITERATION   4 PLS= 0.241E-02 0.000E+00 ENERGY      -72.907316 DELTAE   -0.0931717
 ITERATION   5 PLS= 0.648E-03 0.000E+00 ENERGY      -72.862361 DELTAE    0.0449544
 ITERATION   1 PLS= 0.458E-03 0.000E+00 ENERGY      -72.865761 DELTAE -172.8657611
 ITERATION   2 PLS= 0.208E-02 0.000E+00 ENERGY      -72.927718 DELTAE   -0.0619565
 ITERATION   3 PLS= 0.119E-02 0.000E+00 ENERGY      -72.938230 DELTAE   -0.0105127
 ITERATION   4 PLS= 0.661E-03 0.000E+00 ENERGY      -72.944559 DELTAE   -0.0063290
 CYCLE:    18 TIME:   0.066 TIME LEFT:  2.00W  GRAD.:    34.551 HEAT: -72.94148
 ITERATION   1 PLS= 0.779E-04 0.000E+00 ENERGY      -73.251542 DELTAE -173.2515422
 ITERATION   2 PLS= 0.260E-02 0.000E+00 ENERGY      -73.415097 DELTAE   -0.1635545
 ITERATION   3 PLS= 0.118E-02 0.000E+00 ENERGY      -73.442777 DELTAE   -0.0276808
 ITERATION   4 PLS= 0.639E-03 0.000E+00 ENERGY      -73.461852 DELTAE   -0.0190743
 CYCLE:    19 TIME:   0.035 TIME LEFT:  2.00W  GRAD.:    17.973 HEAT: -73.45269
 ITERATION   1 PLS= 0.265E-03 0.000E+00 ENERGY      -73.339717 DELTAE -173.3397166
 ITERATION   2 PLS= 0.754E-02 0.000E+00 ENERGY      -73.755828 DELTAE   -0.4161113
 ITERATION   3 PLS= 0.267E-02 0.000E+00 ENERGY      -73.818783 DELTAE   -0.0629551
 ITERATION   4 PLS= 0.121E-02 0.000E+00 ENERGY      -73.864834 DELTAE   -0.0460510
 ITERATION   5 PLS= 0.454E-03 0.000E+00 ENERGY      -73.841490 DELTAE    0.0233440
 CYCLE:    20 TIME:   0.035 TIME LEFT:  2.00W  GRAD.:    27.190 HEAT: -73.84191
 ITERATION   1 PLS= 0.307E-03 0.000E+00 ENERGY      -74.039689 DELTAE -174.0396886
 ITERATION   2 PLS= 0.438E-02 0.000E+00 ENERGY      -74.420556 DELTAE   -0.3808678
 ITERATION   3 PLS= 0.231E-02 0.000E+00 ENERGY      -74.488602 DELTAE   -0.0680456
 ITERATION   4 PLS= 0.122E-02 0.000E+00 ENERGY      -74.528959 DELTAE   -0.0403573
 ITERATION   5 PLS= 0.162E-03 0.000E+00 ENERGY      -74.509584 DELTAE    0.0193753
 CYCLE:    21 TIME:   0.035 TIME LEFT:  2.00W  GRAD.:    18.525 HEAT: -74.50966
 ITERATION   1 PLS= 0.100E-03 0.000E+00 ENERGY      -73.082819 DELTAE -173.0828188
 ITERATION   2 PLS= 0.942E-02 0.000E+00 ENERGY      -74.157066 DELTAE   -1.0742474
 ITERATION   3 PLS= 0.583E-02 0.000E+00 ENERGY      -74.337612 DELTAE   -0.1805454
 ITERATION   4 PLS= 0.336E-02 0.000E+00 ENERGY      -74.452492 DELTAE   -0.1148803
 ITERATION   5 PLS= 0.477E-03 0.000E+00 ENERGY      -74.393705 DELTAE    0.0587868
 ITERATION   1 PLS= 0.233E-03 0.000E+00 ENERGY      -74.375942 DELTAE -174.3759422
 ITERATION   2 PLS= 0.322E-02 0.000E+00 ENERGY      -74.533407 DELTAE   -0.1574645
 ITERATION   3 PLS= 0.181E-02 0.000E+00 ENERGY      -74.562472 DELTAE   -0.0290653
 ITERATION   4 PLS= 0.977E-03 0.000E+00 ENERGY      -74.580472 DELTAE   -0.0180003
 CYCLE:    22 TIME:   0.066 TIME LEFT:  2.00W  GRAD.:    33.379 HEAT: -74.57152
 ITERATION   1 PLS= 0.717E-04 0.000E+00 ENERGY      -74.679654 DELTAE -174.6796538
 ITERATION   2 PLS= 0.419E-02 0.000E+00 ENERGY      -74.995430 DELTAE   -0.3157758
 ITERATION   3 PLS= 0.162E-02 0.000E+00 ENERGY      -75.040747 DELTAE   -0.0453171
 ITERATION   4 PLS= 0.898E-03 0.000E+00 ENERGY      -75.063387 DELTAE   -0.0226408
 ITERATION   5 PLS= 0.156E-03 0.000E+00 ENERGY      -75.052704 DELTAE    0.0106839
 CYCLE:    23 TIME:   0.035 TIME LEFT:  2.00W  GRAD.:    22.180 HEAT: -75.05286
 ITERATION   1 PLS= 0.977E-04 0.000E+00 ENERGY      -74.312157 DELTAE -174.3121572
 ITERATION   2 PLS= 0.109E-01 0.000E+00 ENERGY      -74.955837 DELTAE   -0.6436793
 ITERATION   3 PLS= 0.401E-02 0.000E+00 ENERGY      -75.056982 DELTAE   -0.1011459
 ITERATION   4 PLS= 0.238E-02 0.000E+00 ENERGY      -75.132015 DELTAE   -0.0750321
 ITERATION   5 PLS= 0.654E-03 0.000E+00 ENERGY      -75.094346 DELTAE    0.0376689
 CYCLE:    24 TIME:   0.039 TIME LEFT:  2.00W  GRAD.:    32.181 HEAT: -75.09499
 ITERATION   1 PLS= 0.318E-03 0.000E+00 ENERGY      -75.373480 DELTAE -175.3734799
 ITERATION   2 PLS= 0.528E-02 0.000E+00 ENERGY      -75.547355 DELTAE   -0.1738750
 ITERATION   3 PLS= 0.204E-02 0.000E+00 ENERGY      -75.571714 DELTAE   -0.0243587
 ITERATION   4 PLS= 0.127E-02 0.000E+00 ENERGY      -75.585726 DELTAE   -0.0140119
 CYCLE:    25 TIME:   0.031 TIME LEFT:  2.00W  GRAD.:    10.809 HEAT: -75.57875
 ITERATION   1 PLS= 0.312E-03 0.000E+00 ENERGY      -75.564865 DELTAE -175.5648645
 ITERATION   2 PLS= 0.185E-02 0.000E+00 ENERGY      -75.697953 DELTAE   -0.1330889
 ITERATION   3 PLS= 0.890E-03 0.000E+00 ENERGY      -75.721494 DELTAE   -0.0235406
 ITERATION   4 PLS= 0.523E-03 0.000E+00 ENERGY      -75.738620 DELTAE   -0.0171255
 CYCLE:    26 TIME:   0.035 TIME LEFT:  2.00W  GRAD.:    14.970 HEAT: -75.73026
 ITERATION   1 PLS= 0.217E-03 0.000E+00 ENERGY      -75.777012 DELTAE -175.7770118
 ITERATION   2 PLS= 0.201E-02 0.000E+00 ENERGY      -75.978356 DELTAE   -0.2013438
 ITERATION   3 PLS= 0.947E-03 0.000E+00 ENERGY      -76.014142 DELTAE   -0.0357863
 ITERATION   4 PLS= 0.495E-03 0.000E+00 ENERGY      -76.034904 DELTAE   -0.0207624
 ITERATION   5 PLS= 0.159E-03 0.000E+00 ENERGY      -76.023610 DELTAE    0.0112946
 CYCLE:    27 TIME:   0.035 TIME LEFT:  2.00W  GRAD.:    12.271 HEAT: -76.02367
 ITERATION   1 PLS= 0.106E-03 0.000E+00 ENERGY      -75.042910 DELTAE -175.0429097
 ITERATION   2 PLS= 0.360E-02 0.000E+00 ENERGY      -76.171892 DELTAE   -1.1289820
 ITERATION   3 PLS= 0.190E-02 0.000E+00 ENERGY      -76.380412 DELTAE   -0.2085208
 ITERATION   4 PLS= 0.114E-02 0.000E+00 ENERGY      -76.521531 DELTAE   -0.1411181
 ITERATION   5 PLS= 0.346E-03 0.000E+00 ENERGY      -76.436322 DELTAE    0.0852085
 CYCLE:    28 TIME:   0.035 TIME LEFT:  2.00W  GRAD.:    13.870 HEAT: -76.43701
 ITERATION   1 PLS= 0.219E-03 0.000E+00 ENERGY      -75.551311 DELTAE -175.5513114
 ITERATION   2 PLS= 0.471E-02 0.000E+00 ENERGY      -76.372715 DELTAE   -0.8214040
 ITERATION   3 PLS= 0.239E-02 0.000E+00 ENERGY      -76.523904 DELTAE   -0.1511888
 ITERATION   4 PLS= 0.121E-02 0.000E+00 ENERGY      -76.608334 DELTAE   -0.0844301
 ITERATION   5 PLS= 0.389E-03 0.000E+00 ENERGY      -76.564465 DELTAE    0.0438696
 CYCLE:    29 TIME:   0.035 TIME LEFT:  2.00W  GRAD.:    12.233 HEAT: -76.56470
 ITERATION   1 PLS= 0.257E-03 0.000E+00 ENERGY      -76.434888 DELTAE -176.4348877
 ITERATION   2 PLS= 0.301E-02 0.000E+00 ENERGY      -76.687604 DELTAE   -0.2527163
 ITERATION   3 PLS= 0.150E-02 0.000E+00 ENERGY      -76.736590 DELTAE   -0.0489857
 ITERATION   4 PLS= 0.753E-03 0.000E+00 ENERGY      -76.767315 DELTAE   -0.0307253
 ITERATION   5 PLS= 0.175E-03 0.000E+00 ENERGY      -76.751446 DELTAE    0.0158691
 CYCLE:    30 TIME:   0.039 TIME LEFT:  2.00W  GRAD.:     9.414 HEAT: -76.75160
 ITERATION   1 PLS= 0.114E-03 0.000E+00 ENERGY      -76.181366 DELTAE -176.1813660
 ITERATION   2 PLS= 0.445E-02 0.000E+00 ENERGY      -76.749231 DELTAE   -0.5678647
 ITERATION   3 PLS= 0.217E-02 0.000E+00 ENERGY      -76.858215 DELTAE   -0.1089839
 ITERATION   4 PLS= 0.114E-02 0.000E+00 ENERGY      -76.932751 DELTAE   -0.0745359
 ITERATION   5 PLS= 0.205E-03 0.000E+00 ENERGY      -76.889646 DELTAE    0.0431046
 CYCLE:    31 TIME:   0.035 TIME LEFT:  2.00W  GRAD.:    10.335 HEAT: -76.88994
 ITERATION   1 PLS= 0.135E-03 0.000E+00 ENERGY      -76.552398 DELTAE -176.5523983
 ITERATION   2 PLS= 0.276E-02 0.000E+00 ENERGY      -76.891815 DELTAE   -0.3394165
 ITERATION   3 PLS= 0.107E-02 0.000E+00 ENERGY      -76.953386 DELTAE   -0.0615717
 ITERATION   4 PLS= 0.555E-03 0.000E+00 ENERGY      -76.985085 DELTAE   -0.0316982
 ITERATION   5 PLS= 0.149E-03 0.000E+00 ENERGY      -76.969624 DELTAE    0.0154611
 CYCLE:    32 TIME:   0.039 TIME LEFT:  2.00W  GRAD.:     8.076 HEAT: -76.96969
 ITERATION   1 PLS= 0.928E-04 0.000E+00 ENERGY      -76.994776 DELTAE -176.9947763
 ITERATION   2 PLS= 0.117E-02 0.000E+00 ENERGY      -77.034569 DELTAE   -0.0397929
 ITERATION   3 PLS= 0.447E-03 0.000E+00 ENERGY      -77.041382 DELTAE   -0.0068125
 ITERATION   4 PLS= 0.252E-03 0.000E+00 ENERGY      -77.045378 DELTAE   -0.0039964
 CYCLE:    33 TIME:   0.035 TIME LEFT:  2.00W  GRAD.:     6.105 HEAT: -77.04338
 ITERATION   1 PLS= 0.696E-04 0.000E+00 ENERGY      -77.018684 DELTAE -177.0186844
 ITERATION   2 PLS= 0.219E-02 0.000E+00 ENERGY      -77.129412 DELTAE   -0.1107273
 ITERATION   3 PLS= 0.106E-02 0.000E+00 ENERGY      -77.149687 DELTAE   -0.0202749
 ITERATION   4 PLS= 0.514E-03 0.000E+00 ENERGY      -77.160712 DELTAE   -0.0110256
 CYCLE:    34 TIME:   0.031 TIME LEFT:  2.00W  GRAD.:     5.877 HEAT: -77.15504
 ITERATION   1 PLS= 0.725E-04 0.000E+00 ENERGY      -77.096695 DELTAE -177.0966951
 ITERATION   2 PLS= 0.183E-02 0.000E+00 ENERGY      -77.185488 DELTAE   -0.0887926
 ITERATION   3 PLS= 0.862E-03 0.000E+00 ENERGY      -77.202133 DELTAE   -0.0166457
 ITERATION   4 PLS= 0.420E-03 0.000E+00 ENERGY      -77.211307 DELTAE   -0.0091733
 CYCLE:    35 TIME:   0.035 TIME LEFT:  2.00W  GRAD.:     6.123 HEAT: -77.20680
 ITERATION   1 PLS= 0.102E-03 0.000E+00 ENERGY      -77.143752 DELTAE -177.1437521
 ITERATION   2 PLS= 0.251E-02 0.000E+00 ENERGY      -77.267249 DELTAE   -0.1234965
 ITERATION   3 PLS= 0.111E-02 0.000E+00 ENERGY      -77.290427 DELTAE   -0.0231788
 ITERATION   4 PLS= 0.514E-03 0.000E+00 ENERGY      -77.302162 DELTAE   -0.0117348
 CYCLE:    36 TIME:   0.035 TIME LEFT:  2.00W  GRAD.:     4.819 HEAT: -77.29623
 ITERATION   1 PLS= 0.762E-04 0.000E+00 ENERGY      -77.250022 DELTAE -177.2500219
 ITERATION   2 PLS= 0.145E-02 0.000E+00 ENERGY      -77.318695 DELTAE   -0.0686733
 ITERATION   3 PLS= 0.606E-03 0.000E+00 ENERGY      -77.331999 DELTAE   -0.0133042
 ITERATION   4 PLS= 0.263E-03 0.000E+00 ENERGY      -77.339302 DELTAE   -0.0073024
 CYCLE:    37 TIME:   0.035 TIME LEFT:  2.00W  GRAD.:     3.610 HEAT: -77.33578
 ITERATION   1 PLS= 0.570E-04 0.000E+00 ENERGY      -77.050861 DELTAE -177.0508608
 ITERATION   2 PLS= 0.319E-02 0.000E+00 ENERGY      -77.327578 DELTAE   -0.2767172
 ITERATION   3 PLS= 0.138E-02 0.000E+00 ENERGY      -77.379575 DELTAE   -0.0519965
 ITERATION   4 PLS= 0.659E-03 0.000E+00 ENERGY      -77.405315 DELTAE   -0.0257404
 ITERATION   5 PLS= 0.135E-03 0.000E+00 ENERGY      -77.392893 DELTAE    0.0124224
 CYCLE:    38 TIME:   0.039 TIME LEFT:  2.00W  GRAD.:     4.876 HEAT: -77.39293
 ITERATION   1 PLS= 0.846E-04 0.000E+00 ENERGY      -77.193567 DELTAE -177.1935669
 ITERATION   2 PLS= 0.359E-02 0.000E+00 ENERGY      -77.414784 DELTAE   -0.2212172
 ITERATION   3 PLS= 0.160E-02 0.000E+00 ENERGY      -77.456712 DELTAE   -0.0419277
 ITERATION   4 PLS= 0.709E-03 0.000E+00 ENERGY      -77.477343 DELTAE   -0.0206312
 CYCLE:    39 TIME:   0.035 TIME LEFT:  2.00W  GRAD.:     4.193 HEAT: -77.46746
 ITERATION   1 PLS= 0.993E-04 0.000E+00 ENERGY      -77.409576 DELTAE -177.4095759
 ITERATION   2 PLS= 0.290E-02 0.000E+00 ENERGY      -77.485527 DELTAE   -0.0759512
 ITERATION   3 PLS= 0.124E-02 0.000E+00 ENERGY      -77.500391 DELTAE   -0.0148636
 ITERATION   4 PLS= 0.528E-03 0.000E+00 ENERGY      -77.508536 DELTAE   -0.0081452
 CYCLE:    40 TIME:   0.035 TIME LEFT:  2.00W  GRAD.:     3.608 HEAT: -77.50466
 ITERATION   1 PLS= 0.969E-04 0.000E+00 ENERGY      -76.878690 DELTAE -176.8786904
 ITERATION   2 PLS= 0.542E-02 0.000E+00 ENERGY      -77.474778 DELTAE   -0.5960873
 ITERATION   3 PLS= 0.251E-02 0.000E+00 ENERGY      -77.591132 DELTAE   -0.1163545
 ITERATION   4 PLS= 0.114E-02 0.000E+00 ENERGY      -77.648624 DELTAE   -0.0574921
 ITERATION   5 PLS= 0.122E-03 0.000E+00 ENERGY      -77.622106 DELTAE    0.0265179
 CYCLE:    41 TIME:   0.039 TIME LEFT:  2.00W  GRAD.:     5.979 HEAT: -77.62221
 ITERATION   1 PLS= 0.820E-04 0.000E+00 ENERGY      -77.454506 DELTAE -177.4545060
 ITERATION   2 PLS= 0.265E-02 0.000E+00 ENERGY      -77.612815 DELTAE   -0.1583092
 ITERATION   3 PLS= 0.114E-02 0.000E+00 ENERGY      -77.644923 DELTAE   -0.0321082
 ITERATION   4 PLS= 0.523E-03 0.000E+00 ENERGY      -77.663092 DELTAE   -0.0181689
 CYCLE:    42 TIME:   0.035 TIME LEFT:  2.00W  GRAD.:     5.453 HEAT: -77.65427
 ITERATION   1 PLS= 0.753E-04 0.000E+00 ENERGY      -74.562333 DELTAE -174.5623326
 ITERATION   2 PLS= 0.104E-01 0.000E+00 ENERGY      -77.096945 DELTAE   -2.5346127
 ITERATION   3 PLS= 0.513E-02 0.000E+00 ENERGY      -77.602548 DELTAE   -0.5056028
 ITERATION   4 PLS= 0.244E-02 0.000E+00 ENERGY      -77.870654 DELTAE   -0.2681060
 ITERATION   5 PLS= 0.262E-03 0.000E+00 ENERGY      -77.741642 DELTAE    0.1290122
 ITERATION   6 PLS= 0.159E-03 0.000E+00 ENERGY      -77.741950 DELTAE   -0.0003080
 CYCLE:    43 TIME:   0.039 TIME LEFT:  2.00W  GRAD.:     8.768 HEAT: -77.74228
 ITERATION   1 PLS= 0.990E-04 0.000E+00 ENERGY      -77.328583 DELTAE -177.3285835
 ITERATION   2 PLS= 0.509E-02 0.000E+00 ENERGY      -77.620926 DELTAE   -0.2923427
 ITERATION   3 PLS= 0.155E-02 0.000E+00 ENERGY      -77.670791 DELTAE   -0.0498648
 ITERATION   4 PLS= 0.933E-03 0.000E+00 ENERGY      -77.698734 DELTAE   -0.0279428
 ITERATION   5 PLS= 0.239E-03 0.000E+00 ENERGY      -77.684686 DELTAE    0.0140478
 ITERATION   1 PLS= 0.129E-03 0.000E+00 ENERGY      -77.722735 DELTAE -177.7227348
 ITERATION   2 PLS= 0.157E-02 0.000E+00 ENERGY      -77.766326 DELTAE   -0.0435907
 ITERATION   3 PLS= 0.487E-03 0.000E+00 ENERGY      -77.773933 DELTAE   -0.0076078
 ITERATION   4 PLS= 0.258E-03 0.000E+00 ENERGY      -77.777525 DELTAE   -0.0035919
 CYCLE:    44 TIME:   0.070 TIME LEFT:  2.00W  GRAD.:     7.083 HEAT: -77.77596
 ITERATION   1 PLS= 0.812E-04 0.000E+00 ENERGY      -77.691809 DELTAE -177.6918089
 ITERATION   2 PLS= 0.217E-02 0.000E+00 ENERGY      -77.838667 DELTAE   -0.1468583
 ITERATION   3 PLS= 0.112E-02 0.000E+00 ENERGY      -77.867430 DELTAE   -0.0287624
 ITERATION   4 PLS= 0.571E-03 0.000E+00 ENERGY      -77.883506 DELTAE   -0.0160766
 CYCLE:    45 TIME:   0.035 TIME LEFT:  2.00W  GRAD.:     5.288 HEAT: -77.87605
 ITERATION   1 PLS= 0.121E-03 0.000E+00 ENERGY      -77.529969 DELTAE -177.5299687
 ITERATION   2 PLS= 0.370E-02 0.000E+00 ENERGY      -77.840129 DELTAE   -0.3101607
 ITERATION   3 PLS= 0.178E-02 0.000E+00 ENERGY      -77.901018 DELTAE   -0.0608886
 ITERATION   4 PLS= 0.855E-03 0.000E+00 ENERGY      -77.932597 DELTAE   -0.0315793
 ITERATION   5 PLS= 0.108E-03 0.000E+00 ENERGY      -77.917464 DELTAE    0.0151335
 CYCLE:    46 TIME:   0.039 TIME LEFT:  2.00W  GRAD.:     5.115 HEAT: -77.91750
 ITERATION   1 PLS= 0.663E-04 0.000E+00 ENERGY      -77.915742 DELTAE -177.9157422
 ITERATION   2 PLS= 0.125E-02 0.000E+00 ENERGY      -77.952610 DELTAE   -0.0368677
 ITERATION   3 PLS= 0.574E-03 0.000E+00 ENERGY      -77.960049 DELTAE   -0.0074394
 ITERATION   4 PLS= 0.282E-03 0.000E+00 ENERGY      -77.964589 DELTAE   -0.0045403
 CYCLE:    47 TIME:   0.035 TIME LEFT:  2.00W  GRAD.:     3.776 HEAT: -77.96231
 ITERATION   1 PLS= 0.458E-04 0.000E+00 ENERGY      -77.797295 DELTAE -177.7972949
 ITERATION   2 PLS= 0.211E-02 0.000E+00 ENERGY      -77.951580 DELTAE   -0.1542850
 ITERATION   3 PLS= 0.113E-02 0.000E+00 ENERGY      -77.983430 DELTAE   -0.0318498
 ITERATION   4 PLS= 0.588E-03 0.000E+00 ENERGY      -78.003958 DELTAE   -0.0205279
 ITERATION   5 PLS= 0.844E-04 0.000E+00 ENERGY      -77.993181 DELTAE    0.0107765
 CYCLE:    48 TIME:   0.039 TIME LEFT:  2.00W  GRAD.:     4.286 HEAT: -77.99322
 ITERATION   1 PLS= 0.415E-04 0.000E+00 ENERGY      -77.359390 DELTAE -177.3593903
 ITERATION   2 PLS= 0.452E-02 0.000E+00 ENERGY      -77.889402 DELTAE   -0.5300114
 ITERATION   3 PLS= 0.202E-02 0.000E+00 ENERGY      -77.996162 DELTAE   -0.1067604
 ITERATION   4 PLS= 0.922E-03 0.000E+00 ENERGY      -78.055838 DELTAE   -0.0596761
 ITERATION   5 PLS= 0.128E-03 0.000E+00 ENERGY      -78.026460 DELTAE    0.0293784
 CYCLE:    49 TIME:   0.035 TIME LEFT:  2.00W  GRAD.:     5.181 HEAT: -78.02654
 ITERATION   1 PLS= 0.779E-04 0.000E+00 ENERGY      -78.012508 DELTAE -178.0125082
 ITERATION   2 PLS= 0.183E-02 0.000E+00 ENERGY      -78.064267 DELTAE   -0.0517592
 ITERATION   3 PLS= 0.890E-03 0.000E+00 ENERGY      -78.074773 DELTAE   -0.0105060
 ITERATION   4 PLS= 0.484E-03 0.000E+00 ENERGY      -78.082488 DELTAE   -0.0077146
 CYCLE:    50 TIME:   0.039 TIME LEFT:  2.00W  GRAD.:     4.156 HEAT: -78.07822
 ITERATION   1 PLS= 0.101E-03 0.000E+00 ENERGY      -77.784275 DELTAE -177.7842745
 ITERATION   2 PLS= 0.188E-02 0.000E+00 ENERGY      -77.969520 DELTAE   -0.1852450
 ITERATION   3 PLS= 0.962E-03 0.000E+00 ENERGY      -78.007301 DELTAE   -0.0377818
 ITERATION   4 PLS= 0.491E-03 0.000E+00 ENERGY      -78.033064 DELTAE   -0.0257623
 ITERATION   5 PLS= 0.158E-03 0.000E+00 ENERGY      -78.018755 DELTAE    0.0143091
 ITERATION   1 PLS= 0.101E-03 0.000E+00 ENERGY      -77.967379 DELTAE -177.9673787
 ITERATION   2 PLS= 0.987E-03 0.000E+00 ENERGY      -78.018376 DELTAE   -0.0509976
 ITERATION   3 PLS= 0.451E-03 0.000E+00 ENERGY      -78.028572 DELTAE   -0.0101952
 ITERATION   4 PLS= 0.212E-03 0.000E+00 ENERGY      -78.034768 DELTAE   -0.0061962
 ITERATION   1 PLS= 0.463E-04 0.000E+00 ENERGY      -78.033689 DELTAE -178.0336889
 ITERATION   2 PLS= 0.599E-03 0.000E+00 ENERGY      -78.048644 DELTAE   -0.0149554
 ITERATION   3 PLS= 0.259E-03 0.000E+00 ENERGY      -78.051679 DELTAE   -0.0030349
 ITERATION   4 PLS= 0.137E-03 0.000E+00 ENERGY      -78.053691 DELTAE   -0.0020117
 ITERATION   1 PLS= 0.420E-04 0.000E+00 ENERGY      -78.040447 DELTAE -178.0404474
 ITERATION   2 PLS= 0.591E-03 0.000E+00 ENERGY      -78.044748 DELTAE   -0.0043009
 ITERATION   3 PLS= 0.295E-03 0.000E+00 ENERGY      -78.045654 DELTAE   -0.0009052
 ITERATION   4 PLS= 0.148E-03 0.000E+00 ENERGY      -78.046287 DELTAE   -0.0006336
 ITERATION   1 PLS= 0.372E-04 0.000E+00 ENERGY      -78.082356 DELTAE -178.0823555
 ITERATION   2 PLS= 0.390E-03 0.000E+00 ENERGY      -78.083513 DELTAE   -0.0011579
 ITERATION   3 PLS= 0.197E-03 0.000E+00 ENERGY      -78.083756 DELTAE   -0.0002423
 ITERATION   4 PLS= 0.987E-04 0.000E+00 ENERGY      -78.083921 DELTAE   -0.0001648
 CYCLE:    51 TIME:   0.152 TIME LEFT:  2.00W  GRAD.:     3.000 HEAT: -78.08384
 ITERATION   1 PLS= 0.220E-04 0.000E+00 ENERGY      -77.952868 DELTAE -177.9528683
 ITERATION   2 PLS= 0.432E-02 0.000E+00 ENERGY      -78.045517 DELTAE   -0.0926488
 ITERATION   3 PLS= 0.221E-02 0.000E+00 ENERGY      -78.066146 DELTAE   -0.0206288
 ITERATION   4 PLS= 0.112E-02 0.000E+00 ENERGY      -78.080922 DELTAE   -0.0147764
 ITERATION   5 PLS= 0.134E-03 0.000E+00 ENERGY      -78.073736 DELTAE    0.0071861
 ITERATION   1 PLS= 0.869E-04 0.000E+00 ENERGY      -78.040830 DELTAE -178.0408302
 ITERATION   2 PLS= 0.209E-02 0.000E+00 ENERGY      -78.067527 DELTAE   -0.0266972
 ITERATION   3 PLS= 0.103E-02 0.000E+00 ENERGY      -78.073301 DELTAE   -0.0057733
 ITERATION   4 PLS= 0.516E-03 0.000E+00 ENERGY      -78.077230 DELTAE   -0.0039297
 ITERATION   1 PLS= 0.756E-04 0.000E+00 ENERGY      -78.046106 DELTAE -178.0461064
 ITERATION   2 PLS= 0.119E-02 0.000E+00 ENERGY      -78.053218 DELTAE   -0.0071117
 ITERATION   3 PLS= 0.594E-03 0.000E+00 ENERGY      -78.054809 DELTAE   -0.0015906
 ITERATION   4 PLS= 0.297E-03 0.000E+00 ENERGY      -78.055964 DELTAE   -0.0011556
 ITERATION   1 PLS= 0.368E-04 0.000E+00 ENERGY      -78.048145 DELTAE -178.0481450
 ITERATION   2 PLS= 0.559E-03 0.000E+00 ENERGY      -78.049891 DELTAE   -0.0017460
 ITERATION   3 PLS= 0.283E-03 0.000E+00 ENERGY      -78.050294 DELTAE   -0.0004030
 ITERATION   4 PLS= 0.143E-03 0.000E+00 ENERGY      -78.050621 DELTAE   -0.0003265
 ITERATION   1 PLS= 0.249E-04 0.000E+00 ENERGY      -78.087234 DELTAE -178.0872338
 ITERATION   2 PLS= 0.287E-03 0.000E+00 ENERGY      -78.087745 DELTAE   -0.0005116
 ITERATION   3 PLS= 0.139E-03 0.000E+00 ENERGY      -78.087862 DELTAE   -0.0001166
 ITERATION   4 PLS= 0.709E-04 0.000E+00 ENERGY      -78.087957 DELTAE   -0.0000946
 CYCLE:    52 TIME:   0.145 TIME LEFT:  2.00W  GRAD.:     2.451 HEAT: -78.08792
 ITERATION   1 PLS= 0.201E-04 0.000E+00 ENERGY      -76.966821 DELTAE -176.9668215
 ITERATION   2 PLS= 0.994E-02 0.000E+00 ENERGY      -77.851133 DELTAE   -0.8843115
 ITERATION   3 PLS= 0.522E-02 0.000E+00 ENERGY      -78.041472 DELTAE   -0.1903386
 ITERATION   4 PLS= 0.269E-02 0.000E+00 ENERGY      -78.172710 DELTAE   -0.1312385
 ITERATION   5 PLS= 0.382E-03 0.000E+00 ENERGY      -78.105430 DELTAE    0.0672800
 ITERATION   6 PLS= 0.245E-03 0.000E+00 ENERGY      -78.105778 DELTAE   -0.0003480
 CYCLE:    53 TIME:   0.035 TIME LEFT:  2.00W  GRAD.:    10.595 HEAT: -78.10642
 ITERATION   1 PLS= 0.158E-03 0.000E+00 ENERGY      -77.996264 DELTAE -177.9962640
 ITERATION   2 PLS= 0.205E-02 0.000E+00 ENERGY      -78.096463 DELTAE   -0.1001988
 ITERATION   3 PLS= 0.107E-02 0.000E+00 ENERGY      -78.117208 DELTAE   -0.0207447
 ITERATION   4 PLS= 0.555E-03 0.000E+00 ENERGY      -78.131072 DELTAE   -0.0138649
 CYCLE:    54 TIME:   0.035 TIME LEFT:  2.00W  GRAD.:     5.011 HEAT: -78.12418
 ITERATION   1 PLS= 0.121E-03 0.000E+00 ENERGY      -78.071034 DELTAE -178.0710344
 ITERATION   2 PLS= 0.187E-02 0.000E+00 ENERGY      -78.143153 DELTAE   -0.0721190
 ITERATION   3 PLS= 0.915E-03 0.000E+00 ENERGY      -78.159135 DELTAE   -0.0159818
 ITERATION   4 PLS= 0.450E-03 0.000E+00 ENERGY      -78.171726 DELTAE   -0.0125908
 CYCLE:    55 TIME:   0.035 TIME LEFT:  2.00W  GRAD.:     2.322 HEAT: -78.16501
 ITERATION   1 PLS= 0.688E-04 0.000E+00 ENERGY      -77.604343 DELTAE -177.6043426
 ITERATION   2 PLS= 0.737E-02 0.000E+00 ENERGY      -78.084550 DELTAE   -0.4802069
 ITERATION   3 PLS= 0.373E-02 0.000E+00 ENERGY      -78.191036 DELTAE   -0.1064866
 ITERATION   4 PLS= 0.187E-02 0.000E+00 ENERGY      -78.265695 DELTAE   -0.0746592
 ITERATION   5 PLS= 0.116E-03 0.000E+00 ENERGY      -78.226802 DELTAE    0.0388938
 ITERATION   6 PLS= 0.703E-04 0.000E+00 ENERGY      -78.226912 DELTAE   -0.0001108
 CYCLE:    56 TIME:   0.039 TIME LEFT:  2.00W  GRAD.:     4.942 HEAT: -78.22705
 ITERATION   1 PLS= 0.436E-04 0.000E+00 ENERGY      -77.735665 DELTAE -177.7356647
 ITERATION   2 PLS= 0.766E-02 0.000E+00 ENERGY      -78.127369 DELTAE   -0.3917041
 ITERATION   3 PLS= 0.389E-02 0.000E+00 ENERGY      -78.213274 DELTAE   -0.0859048
 ITERATION   4 PLS= 0.196E-02 0.000E+00 ENERGY      -78.270567 DELTAE   -0.0572934
 ITERATION   5 PLS= 0.133E-03 0.000E+00 ENERGY      -78.241398 DELTAE    0.0291693
 CYCLE:    57 TIME:   0.039 TIME LEFT:  2.00W  GRAD.:     5.661 HEAT: -78.24145
 ITERATION   1 PLS= 0.720E-04 0.000E+00 ENERGY      -76.873044 DELTAE -176.8730444
 ITERATION   2 PLS= 0.115E-01 0.000E+00 ENERGY      -77.946224 DELTAE   -1.0731797
 ITERATION   3 PLS= 0.589E-02 0.000E+00 ENERGY      -78.179515 DELTAE   -0.2332910
 ITERATION   4 PLS= 0.298E-02 0.000E+00 ENERGY      -78.336227 DELTAE   -0.1567116
 ITERATION   5 PLS= 0.272E-03 0.000E+00 ENERGY      -78.255632 DELTAE    0.0805945
 CYCLE:    58 TIME:   0.039 TIME LEFT:  2.00W  GRAD.:     5.298 HEAT: -78.25580
 ITERATION   1 PLS= 0.147E-03 0.000E+00 ENERGY      -77.978864 DELTAE -177.9788635
 ITERATION   2 PLS= 0.535E-02 0.000E+00 ENERGY      -78.259836 DELTAE   -0.2809728
 ITERATION   3 PLS= 0.268E-02 0.000E+00 ENERGY      -78.320722 DELTAE   -0.0608858
 ITERATION   4 PLS= 0.133E-02 0.000E+00 ENERGY      -78.361865 DELTAE   -0.0411425
 ITERATION   5 PLS= 0.192E-03 0.000E+00 ENERGY      -78.341001 DELTAE    0.0208638
 CYCLE:    59 TIME:   0.035 TIME LEFT:  2.00W  GRAD.:     4.403 HEAT: -78.34108
 ITERATION   1 PLS= 0.108E-03 0.000E+00 ENERGY      -77.397572 DELTAE -177.3975718
 ITERATION   2 PLS= 0.242E-02 0.000E+00 ENERGY      -78.187578 DELTAE   -0.7900057
 ITERATION   3 PLS= 0.127E-02 0.000E+00 ENERGY      -78.354750 DELTAE   -0.1671721
 ITERATION   4 PLS= 0.812E-03 0.000E+00 ENERGY      -78.496458 DELTAE   -0.1417085
 ITERATION   5 PLS= 0.302E-03 0.000E+00 ENERGY      -78.408251 DELTAE    0.0882070
 ITERATION   6 PLS= 0.147E-03 0.000E+00 ENERGY      -78.408766 DELTAE   -0.0005151
 CYCLE:    60 TIME:   0.043 TIME LEFT:  2.00W  GRAD.:     4.983 HEAT: -78.40909
 ITERATION   1 PLS= 0.802E-04 0.000E+00 ENERGY      -78.301890 DELTAE -178.3018903
 ITERATION   2 PLS= 0.449E-02 0.000E+00 ENERGY      -78.461484 DELTAE   -0.1595936
 ITERATION   3 PLS= 0.220E-02 0.000E+00 ENERGY      -78.496617 DELTAE   -0.0351328
 ITERATION   4 PLS= 0.109E-02 0.000E+00 ENERGY      -78.520000 DELTAE   -0.0233828
 ITERATION   5 PLS= 0.151E-03 0.000E+00 ENERGY      -78.508637 DELTAE    0.0113622
 CYCLE:    61 TIME:   0.035 TIME LEFT:  2.00W  GRAD.:     6.708 HEAT: -78.50870
 ITERATION   1 PLS= 0.894E-04 0.000E+00 ENERGY      -77.205205 DELTAE -177.2052050
 ITERATION   2 PLS= 0.440E-02 0.000E+00 ENERGY      -78.297597 DELTAE   -1.0923918
 ITERATION   3 PLS= 0.211E-02 0.000E+00 ENERGY      -78.528694 DELTAE   -0.2310975
 ITERATION   4 PLS= 0.103E-02 0.000E+00 ENERGY      -78.705824 DELTAE   -0.1771299
 ITERATION   5 PLS= 0.284E-03 0.000E+00 ENERGY      -78.602286 DELTAE    0.1035380
 ITERATION   6 PLS= 0.152E-03 0.000E+00 ENERGY      -78.602675 DELTAE   -0.0003893
 CYCLE:    62 TIME:   0.043 TIME LEFT:  2.00W  GRAD.:     5.994 HEAT: -78.60291
 ITERATION   1 PLS= 0.845E-04 0.000E+00 ENERGY      -78.400675 DELTAE -178.4006750
 ITERATION   2 PLS= 0.104E-02 0.000E+00 ENERGY      -78.597743 DELTAE   -0.1970679
 ITERATION   3 PLS= 0.567E-03 0.000E+00 ENERGY      -78.639108 DELTAE   -0.0413651
 ITERATION   4 PLS= 0.364E-03 0.000E+00 ENERGY      -78.676756 DELTAE   -0.0376477
 ITERATION   5 PLS= 0.711E-04 0.000E+00 ENERGY      -78.652189 DELTAE    0.0245665
 CYCLE:    63 TIME:   0.039 TIME LEFT:  2.00W  GRAD.:     4.630 HEAT: -78.65238
 ITERATION   1 PLS= 0.392E-04 0.000E+00 ENERGY      -76.217415 DELTAE -176.2174145
 ITERATION   2 PLS= 0.698E-02 0.000E+00 ENERGY      -78.095644 DELTAE   -1.8782290
 ITERATION   3 PLS= 0.346E-02 0.000E+00 ENERGY      -78.495072 DELTAE   -0.3994285
 ITERATION   4 PLS= 0.172E-02 0.000E+00 ENERGY      -78.803783 DELTAE   -0.3087111
 ITERATION   5 PLS= 0.244E-03 0.000E+00 ENERGY      -78.623414 DELTAE    0.1803691
 ITERATION   6 PLS= 0.143E-03 0.000E+00 ENERGY      -78.624064 DELTAE   -0.0006502
 ITERATION   1 PLS= 0.861E-04 0.000E+00 ENERGY      -78.095666 DELTAE -178.0956664
 ITERATION   2 PLS= 0.378E-02 0.000E+00 ENERGY      -78.599211 DELTAE   -0.5035448
 ITERATION   3 PLS= 0.179E-02 0.000E+00 ENERGY      -78.705900 DELTAE   -0.1066893
 ITERATION   4 PLS= 0.859E-03 0.000E+00 ENERGY      -78.784594 DELTAE   -0.0786934
 ITERATION   5 PLS= 0.168E-03 0.000E+00 ENERGY      -78.740000 DELTAE    0.0445939
 CYCLE:    64 TIME:   0.074 TIME LEFT:  2.00W  GRAD.:     5.021 HEAT: -78.74014
 ITERATION   1 PLS= 0.955E-04 0.000E+00 ENERGY      -78.535833 DELTAE -178.5358333
 ITERATION   2 PLS= 0.219E-02 0.000E+00 ENERGY      -78.627705 DELTAE   -0.0918721
 ITERATION   3 PLS= 0.109E-02 0.000E+00 ENERGY      -78.647353 DELTAE   -0.0196480
 ITERATION   4 PLS= 0.538E-03 0.000E+00 ENERGY      -78.660283 DELTAE   -0.0129297
 ITERATION   1 PLS= 0.142E-03 0.000E+00 ENERGY      -78.609108 DELTAE -178.6091083
 ITERATION   2 PLS= 0.913E-03 0.000E+00 ENERGY      -78.638929 DELTAE   -0.0298204
 ITERATION   3 PLS= 0.443E-03 0.000E+00 ENERGY      -78.645240 DELTAE   -0.0063114
 ITERATION   4 PLS= 0.215E-03 0.000E+00 ENERGY      -78.649705 DELTAE   -0.0044650
 ITERATION   1 PLS= 0.586E-04 0.000E+00 ENERGY      -78.646267 DELTAE -178.6462671
 ITERATION   2 PLS= 0.463E-03 0.000E+00 ENERGY      -78.654261 DELTAE   -0.0079944
 ITERATION   3 PLS= 0.200E-03 0.000E+00 ENERGY      -78.656004 DELTAE   -0.0017430
 ITERATION   4 PLS= 0.966E-04 0.000E+00 ENERGY      -78.657254 DELTAE   -0.0012498
 ITERATION   1 PLS= 0.462E-04 0.000E+00 ENERGY      -78.645884 DELTAE -178.6458837
 ITERATION   2 PLS= 0.394E-03 0.000E+00 ENERGY      -78.648421 DELTAE   -0.0025377
 ITERATION   3 PLS= 0.207E-03 0.000E+00 ENERGY      -78.648989 DELTAE   -0.0005672
 ITERATION   4 PLS= 0.108E-03 0.000E+00 ENERGY      -78.649407 DELTAE   -0.0004183
 ITERATION   1 PLS= 0.237E-04 0.000E+00 ENERGY      -78.749837 DELTAE -178.7498374
 ITERATION   2 PLS= 0.916E-03 0.000E+00 ENERGY      -78.750806 DELTAE   -0.0009687
 ITERATION   3 PLS= 0.362E-03 0.000E+00 ENERGY      -78.750992 DELTAE   -0.0001862
 ITERATION   4 PLS= 0.167E-03 0.000E+00 ENERGY      -78.751099 DELTAE   -0.0001070
 CYCLE:    65 TIME:   0.148 TIME LEFT:  2.00W  GRAD.:     3.918 HEAT: -78.75105
 ITERATION   1 PLS= 0.223E-04 0.000E+00 ENERGY      -78.654725 DELTAE -178.6547250
 ITERATION   2 PLS= 0.935E-03 0.000E+00 ENERGY      -78.658377 DELTAE   -0.0036516
 ITERATION   3 PLS= 0.375E-03 0.000E+00 ENERGY      -78.659205 DELTAE   -0.0008287
 ITERATION   4 PLS= 0.193E-03 0.000E+00 ENERGY      -78.659871 DELTAE   -0.0006659
 ITERATION   1 PLS= 0.431E-04 0.000E+00 ENERGY      -78.649865 DELTAE -178.6498648
 ITERATION   2 PLS= 0.286E-03 0.000E+00 ENERGY      -78.650527 DELTAE   -0.0006620
 ITERATION   3 PLS= 0.148E-03 0.000E+00 ENERGY      -78.650664 DELTAE   -0.0001372
 ITERATION   4 PLS= 0.761E-04 0.000E+00 ENERGY      -78.650756 DELTAE   -0.0000923
 ITERATION   1 PLS= 0.106E-04 0.000E+00 ENERGY      -78.755310 DELTAE -178.7553102
 ITERATION   2 PLS= 0.899E-03 0.000E+00 ENERGY      -78.755919 DELTAE   -0.0006086
 ITERATION   3 PLS= 0.372E-03 0.000E+00 ENERGY      -78.756046 DELTAE   -0.0001271
 ITERATION   4 PLS= 0.168E-03 0.000E+00 ENERGY      -78.756141 DELTAE   -0.0000949
 CYCLE:    66 TIME:   0.098 TIME LEFT:  2.00W  GRAD.:     3.457 HEAT: -78.75610
 ITERATION   1 PLS= 0.221E-04 0.000E+00 ENERGY      -77.016320 DELTAE -177.0163205
 ITERATION   2 PLS= 0.233E-02 0.000E+00 ENERGY      -78.443889 DELTAE   -1.4275684
 ITERATION   3 PLS= 0.153E-02 0.000E+00 ENERGY      -78.749804 DELTAE   -0.3059155
 ITERATION   4 PLS= 0.103E-02 0.000E+00 ENERGY      -79.021873 DELTAE   -0.2720688
 ITERATION   5 PLS= 0.260E-03 0.000E+00 ENERGY      -78.850242 DELTAE    0.1716315
 ITERATION   6 PLS= 0.166E-03 0.000E+00 ENERGY      -78.851350 DELTAE   -0.0011083
 CYCLE:    67 TIME:   0.039 TIME LEFT:  2.00W  GRAD.:    10.695 HEAT: -78.85219
 ITERATION   1 PLS= 0.107E-03 0.000E+00 ENERGY      -78.791374 DELTAE -178.7913737
 ITERATION   2 PLS= 0.193E-02 0.000E+00 ENERGY      -78.865911 DELTAE   -0.0745370
 ITERATION   3 PLS= 0.959E-03 0.000E+00 ENERGY      -78.882215 DELTAE   -0.0163040
 ITERATION   4 PLS= 0.475E-03 0.000E+00 ENERGY      -78.894516 DELTAE   -0.0123014
 CYCLE:    68 TIME:   0.035 TIME LEFT:  2.00W  GRAD.:     4.689 HEAT: -78.88824
 ITERATION   1 PLS= 0.113E-03 0.000E+00 ENERGY      -78.577527 DELTAE -178.5775269
 ITERATION   2 PLS= 0.384E-02 0.000E+00 ENERGY      -78.930489 DELTAE   -0.3529625
 ITERATION   3 PLS= 0.181E-02 0.000E+00 ENERGY      -79.006916 DELTAE   -0.0764268
 ITERATION   4 PLS= 0.861E-03 0.000E+00 ENERGY      -79.064560 DELTAE   -0.0576440
 ITERATION   5 PLS= 0.184E-03 0.000E+00 ENERGY      -79.032327 DELTAE    0.0322333
 CYCLE:    69 TIME:   0.039 TIME LEFT:  2.00W  GRAD.:     2.857 HEAT: -79.03245
 ITERATION   1 PLS= 0.996E-04 0.000E+00 ENERGY      -78.798266 DELTAE -178.7982656
 ITERATION   2 PLS= 0.280E-02 0.000E+00 ENERGY      -78.989725 DELTAE   -0.1914591
 ITERATION   3 PLS= 0.133E-02 0.000E+00 ENERGY      -79.032748 DELTAE   -0.0430235
 ITERATION   4 PLS= 0.638E-03 0.000E+00 ENERGY      -79.065533 DELTAE   -0.0327852
 ITERATION   5 PLS= 0.124E-03 0.000E+00 ENERGY      -79.047345 DELTAE    0.0181880
 CYCLE:    70 TIME:   0.035 TIME LEFT:  2.00W  GRAD.:     3.404 HEAT: -79.04739
 ITERATION   1 PLS= 0.652E-04 0.000E+00 ENERGY      -78.171142 DELTAE -178.1711423
 ITERATION   2 PLS= 0.464E-02 0.000E+00 ENERGY      -78.837979 DELTAE   -0.6668369
 ITERATION   3 PLS= 0.226E-02 0.000E+00 ENERGY      -78.982177 DELTAE   -0.1441983
 ITERATION   4 PLS= 0.110E-02 0.000E+00 ENERGY      -79.094408 DELTAE   -0.1122305
 ITERATION   5 PLS= 0.245E-03 0.000E+00 ENERGY      -79.029239 DELTAE    0.0651689
 ITERATION   6 PLS= 0.124E-03 0.000E+00 ENERGY      -79.029444 DELTAE   -0.0002046
 ITERATION   1 PLS= 0.663E-04 0.000E+00 ENERGY      -78.875473 DELTAE -178.8754726
 ITERATION   2 PLS= 0.226E-02 0.000E+00 ENERGY      -79.043163 DELTAE   -0.1676908
 ITERATION   3 PLS= 0.109E-02 0.000E+00 ENERGY      -79.079184 DELTAE   -0.0360202
 ITERATION   4 PLS= 0.530E-03 0.000E+00 ENERGY      -79.106551 DELTAE   -0.0273676
 ITERATION   5 PLS= 0.113E-03 0.000E+00 ENERGY      -79.090877 DELTAE    0.0156743
 CYCLE:    71 TIME:   0.078 TIME LEFT:  2.00W  GRAD.:     2.167 HEAT: -79.09092
 ITERATION   1 PLS= 0.625E-04 0.000E+00 ENERGY      -78.914743 DELTAE -178.9147426
 ITERATION   2 PLS= 0.289E-02 0.000E+00 ENERGY      -79.023124 DELTAE   -0.1083814
 ITERATION   3 PLS= 0.135E-02 0.000E+00 ENERGY      -79.048308 DELTAE   -0.0251840
 ITERATION   4 PLS= 0.640E-03 0.000E+00 ENERGY      -79.064949 DELTAE   -0.0166410
 ITERATION   5 PLS= 0.820E-04 0.000E+00 ENERGY      -79.056799 DELTAE    0.0081498
 ITERATION   1 PLS= 0.521E-04 0.000E+00 ENERGY      -79.005053 DELTAE -179.0050532
 ITERATION   2 PLS= 0.171E-02 0.000E+00 ENERGY      -79.034743 DELTAE   -0.0296899
 ITERATION   3 PLS= 0.825E-03 0.000E+00 ENERGY      -79.041345 DELTAE   -0.0066024
 ITERATION   4 PLS= 0.399E-03 0.000E+00 ENERGY      -79.045829 DELTAE   -0.0044837
 ITERATION   5 PLS= 0.467E-04 0.000E+00 ENERGY      -79.043532 DELTAE    0.0022970
 ITERATION   1 PLS= 0.260E-04 0.000E+00 ENERGY      -79.021510 DELTAE -179.0215096
 ITERATION   2 PLS= 0.968E-03 0.000E+00 ENERGY      -79.029827 DELTAE   -0.0083178
 ITERATION   3 PLS= 0.465E-03 0.000E+00 ENERGY      -79.031758 DELTAE   -0.0019307
 ITERATION   4 PLS= 0.223E-03 0.000E+00 ENERGY      -79.033013 DELTAE   -0.0012548
 ITERATION   1 PLS= 0.242E-04 0.000E+00 ENERGY      -79.026665 DELTAE -179.0266651
 ITERATION   2 PLS= 0.486E-03 0.000E+00 ENERGY      -79.029682 DELTAE   -0.0030168
 ITERATION   3 PLS= 0.217E-03 0.000E+00 ENERGY      -79.030384 DELTAE   -0.0007022
 ITERATION   4 PLS= 0.103E-03 0.000E+00 ENERGY      -79.030833 DELTAE   -0.0004491
 ITERATION   1 PLS= 0.119E-04 0.000E+00 ENERGY      -79.087206 DELTAE -179.0872063
 ITERATION   2 PLS= 0.424E-03 0.000E+00 ENERGY      -79.088207 DELTAE   -0.0010012
 ITERATION   3 PLS= 0.205E-03 0.000E+00 ENERGY      -79.088432 DELTAE   -0.0002248
 ITERATION   4 PLS= 0.107E-03 0.000E+00 ENERGY      -79.088583 DELTAE   -0.0001510
 CYCLE:    72 TIME:   0.152 TIME LEFT:  2.00W  GRAD.:     1.315 HEAT: -79.08851
 ITERATION   1 PLS= 0.876E-05 0.000E+00 ENERGY      -78.329351 DELTAE -178.3293509
 ITERATION   2 PLS= 0.482E-02 0.000E+00 ENERGY      -78.867134 DELTAE   -0.5377827
 ITERATION   3 PLS= 0.236E-02 0.000E+00 ENERGY      -78.987711 DELTAE   -0.1205775
 ITERATION   4 PLS= 0.116E-02 0.000E+00 ENERGY      -79.079522 DELTAE   -0.0918110
 ITERATION   5 PLS= 0.202E-03 0.000E+00 ENERGY      -79.028629 DELTAE    0.0508928
 ITERATION   6 PLS= 0.105E-03 0.000E+00 ENERGY      -79.028758 DELTAE   -0.0001288
 ITERATION   1 PLS= 0.578E-04 0.000E+00 ENERGY      -78.867894 DELTAE -178.8678945
 ITERATION   2 PLS= 0.240E-02 0.000E+00 ENERGY      -78.998621 DELTAE   -0.1307268
 ITERATION   3 PLS= 0.118E-02 0.000E+00 ENERGY      -79.027591 DELTAE   -0.0289697
 ITERATION   4 PLS= 0.583E-03 0.000E+00 ENERGY      -79.049462 DELTAE   -0.0218711
 ITERATION   5 PLS= 0.100E-03 0.000E+00 ENERGY      -79.037308 DELTAE    0.0121542
 ITERATION   6 PLS= 0.546E-04 0.000E+00 ENERGY      -79.037338 DELTAE   -0.0000299
 ITERATION   1 PLS= 0.300E-04 0.000E+00 ENERGY      -79.007932 DELTAE -179.0079317
 ITERATION   2 PLS= 0.127E-02 0.000E+00 ENERGY      -79.042147 DELTAE   -0.0342155
 ITERATION   3 PLS= 0.625E-03 0.000E+00 ENERGY      -79.049732 DELTAE   -0.0075845
 ITERATION   4 PLS= 0.309E-03 0.000E+00 ENERGY      -79.055375 DELTAE   -0.0056435
 ITERATION   5 PLS= 0.510E-04 0.000E+00 ENERGY      -79.052277 DELTAE    0.0030983
 ITERATION   6 PLS= 0.275E-04 0.000E+00 ENERGY      -79.052284 DELTAE   -0.0000076
 ITERATION   1 PLS= 0.151E-04 0.000E+00 ENERGY      -79.036948 DELTAE -179.0369481
 ITERATION   2 PLS= 0.757E-03 0.000E+00 ENERGY      -79.046346 DELTAE   -0.0093981
 ITERATION   3 PLS= 0.371E-03 0.000E+00 ENERGY      -79.048458 DELTAE   -0.0021119
 ITERATION   4 PLS= 0.183E-03 0.000E+00 ENERGY      -79.049987 DELTAE   -0.0015285
 ITERATION   5 PLS= 0.271E-04 0.000E+00 ENERGY      -79.049171 DELTAE    0.0008155
 ITERATION   1 PLS= 0.145E-04 0.000E+00 ENERGY      -79.044471 DELTAE -179.0444713
 ITERATION   2 PLS= 0.416E-03 0.000E+00 ENERGY      -79.047337 DELTAE   -0.0028658
 ITERATION   3 PLS= 0.205E-03 0.000E+00 ENERGY      -79.047999 DELTAE   -0.0006618
 ITERATION   4 PLS= 0.102E-03 0.000E+00 ENERGY      -79.048479 DELTAE   -0.0004798
 ITERATION   5 PLS= 0.126E-04 0.000E+00 ENERGY      -79.048226 DELTAE    0.0002524
 ITERATION   1 PLS= 0.740E-05 0.000E+00 ENERGY      -79.029086 DELTAE -179.0290856
 ITERATION   2 PLS= 0.139E-03 0.000E+00 ENERGY      -79.030092 DELTAE   -0.0010060
 ITERATION   3 PLS= 0.628E-04 0.000E+00 ENERGY      -79.030324 DELTAE   -0.0002320
 ITERATION   4 PLS= 0.342E-04 0.000E+00 ENERGY      -79.030481 DELTAE   -0.0001573
 ITERATION   1 PLS= 0.746E-05 0.000E+00 ENERGY      -79.075261 DELTAE -179.0752608
 ITERATION   2 PLS= 0.210E-03 0.000E+00 ENERGY      -79.075550 DELTAE   -0.0002889
 ITERATION   3 PLS= 0.962E-04 0.000E+00 ENERGY      -79.075613 DELTAE   -0.0000637
 ITERATION   4 PLS= 0.536E-04 0.000E+00 ENERGY      -79.075659 DELTAE   -0.0000451
 ITERATION   1 PLS= 0.838E-05 0.000E+00 ENERGY      -79.089240 DELTAE -179.0892400
 ITERATION   2 PLS= 0.116E-03 0.000E+00 ENERGY      -79.089335 DELTAE   -0.0000948
 ITERATION   3 PLS= 0.345E-04 0.000E+00 ENERGY      -79.089354 DELTAE   -0.0000196
 ITERATION   4 PLS= 0.162E-04 0.000E+00 ENERGY      -79.089368 DELTAE   -0.0000138
 CYCLE:    73 TIME:   0.207 TIME LEFT:  2.00W  GRAD.:     1.113 HEAT: -79.08936
 ITERATION   1 PLS= 0.504E-05 0.000E+00 ENERGY      -77.483512 DELTAE -177.4835117
 ITERATION   2 PLS= 0.811E-02 0.000E+00 ENERGY      -78.673104 DELTAE   -1.1895923
 ITERATION   3 PLS= 0.388E-02 0.000E+00 ENERGY      -78.941207 DELTAE   -0.2681027
 ITERATION   4 PLS= 0.187E-02 0.000E+00 ENERGY      -79.138462 DELTAE   -0.1972555
 ITERATION   5 PLS= 0.299E-03 0.000E+00 ENERGY      -79.031701 DELTAE    0.1067611
 ITERATION   6 PLS= 0.155E-03 0.000E+00 ENERGY      -79.031904 DELTAE   -0.0002032
 ITERATION   7 PLS= 0.846E-04 0.000E+00 ENERGY      -79.032064 DELTAE   -0.0001600
 ITERATION   1 PLS= 0.126E-04 0.000E+00 ENERGY      -78.643694 DELTAE -178.6436936
 ITERATION   2 PLS= 0.390E-02 0.000E+00 ENERGY      -78.942770 DELTAE   -0.2990765
 ITERATION   3 PLS= 0.189E-02 0.000E+00 ENERGY      -79.008614 DELTAE   -0.0658443
 ITERATION   4 PLS= 0.921E-03 0.000E+00 ENERGY      -79.056759 DELTAE   -0.0481447
 ITERATION   5 PLS= 0.155E-03 0.000E+00 ENERGY      -79.030485 DELTAE    0.0262741
 ITERATION   6 PLS= 0.849E-04 0.000E+00 ENERGY      -79.030540 DELTAE   -0.0000554
 ITERATION   1 PLS= 0.468E-04 0.000E+00 ENERGY      -78.953418 DELTAE -178.9534182
 ITERATION   2 PLS= 0.219E-02 0.000E+00 ENERGY      -79.034930 DELTAE   -0.0815119
 ITERATION   3 PLS= 0.106E-02 0.000E+00 ENERGY      -79.052995 DELTAE   -0.0180652
 ITERATION   4 PLS= 0.517E-03 0.000E+00 ENERGY      -79.065978 DELTAE   -0.0129830
 ITERATION   5 PLS= 0.793E-04 0.000E+00 ENERGY      -79.059013 DELTAE    0.0069657
 ITERATION   6 PLS= 0.433E-04 0.000E+00 ENERGY      -79.059026 DELTAE   -0.0000135
 ITERATION   1 PLS= 0.240E-04 0.000E+00 ENERGY      -79.018080 DELTAE -179.0180797
 ITERATION   2 PLS= 0.142E-02 0.000E+00 ENERGY      -79.041759 DELTAE   -0.0236790
 ITERATION   3 PLS= 0.692E-03 0.000E+00 ENERGY      -79.047150 DELTAE   -0.0053912
 ITERATION   4 PLS= 0.338E-03 0.000E+00 ENERGY      -79.050893 DELTAE   -0.0037431
 ITERATION   5 PLS= 0.371E-04 0.000E+00 ENERGY      -79.048968 DELTAE    0.0019252
 ITERATION   6 PLS= 0.214E-04 0.000E+00 ENERGY      -79.048971 DELTAE   -0.0000030
 ITERATION   1 PLS= 0.135E-04 0.000E+00 ENERGY      -79.028106 DELTAE -179.0281061
 ITERATION   2 PLS= 0.611E-03 0.000E+00 ENERGY      -79.035604 DELTAE   -0.0074982
 ITERATION   3 PLS= 0.304E-03 0.000E+00 ENERGY      -79.037359 DELTAE   -0.0017543
 ITERATION   4 PLS= 0.152E-03 0.000E+00 ENERGY      -79.038523 DELTAE   -0.0011642
 ITERATION   5 PLS= 0.198E-04 0.000E+00 ENERGY      -79.037954 DELTAE    0.0005686
 ITERATION   1 PLS= 0.127E-04 0.000E+00 ENERGY      -79.031874 DELTAE -179.0318744
 ITERATION   2 PLS= 0.231E-03 0.000E+00 ENERGY      -79.034155 DELTAE   -0.0022801
 ITERATION   3 PLS= 0.106E-03 0.000E+00 ENERGY      -79.034680 DELTAE   -0.0005255
 ITERATION   4 PLS= 0.575E-04 0.000E+00 ENERGY      -79.035029 DELTAE   -0.0003486
 ITERATION   5 PLS= 0.119E-04 0.000E+00 ENERGY      -79.034860 DELTAE    0.0001682
 ITERATION   1 PLS= 0.641E-05 0.000E+00 ENERGY      -79.029543 DELTAE -179.0295430
 ITERATION   2 PLS= 0.147E-03 0.000E+00 ENERGY      -79.030111 DELTAE   -0.0005682
 ITERATION   3 PLS= 0.791E-04 0.000E+00 ENERGY      -79.030238 DELTAE   -0.0001270
 ITERATION   4 PLS= 0.423E-04 0.000E+00 ENERGY      -79.030322 DELTAE   -0.0000840
 ITERATION   1 PLS= 0.819E-05 0.000E+00 ENERGY      -79.029541 DELTAE -179.0295407
 ITERATION   2 PLS= 0.777E-04 0.000E+00 ENERGY      -79.029677 DELTAE   -0.0001360
 ITERATION   3 PLS= 0.420E-04 0.000E+00 ENERGY      -79.029707 DELTAE   -0.0000306
 ITERATION   4 PLS= 0.225E-04 0.000E+00 ENERGY      -79.029731 DELTAE   -0.0000234
 ITERATION   1 PLS= 0.487E-05 0.000E+00 ENERGY      -79.076369 DELTAE -179.0763691
 ITERATION   2 PLS= 0.188E-03 0.000E+00 ENERGY      -79.076428 DELTAE   -0.0000587
 ITERATION   3 PLS= 0.876E-04 0.000E+00 ENERGY      -79.076441 DELTAE   -0.0000133
 ITERATION   4 PLS= 0.526E-04 0.000E+00 ENERGY      -79.076453 DELTAE   -0.0000118
 ITERATION   1 PLS= 0.803E-05 0.000E+00 ENERGY      -79.089343 DELTAE -179.0893426
 ITERATION   2 PLS= 0.114E-03 0.000E+00 ENERGY      -79.089374 DELTAE   -0.0000316
 ITERATION   3 PLS= 0.327E-04 0.000E+00 ENERGY      -79.089379 DELTAE   -0.0000044
 ITERATION   4 PLS= 0.140E-04 0.000E+00 ENERGY      -79.089381 DELTAE   -0.0000024
 CYCLE:    74 TIME:   0.238 TIME LEFT:  2.00W  GRAD.:     1.065 HEAT: -79.08938
 ITERATION   1 PLS= 0.390E-05 0.000E+00 ENERGY      -75.689688 DELTAE -175.6896882
 ITERATION   2 PLS= 0.124E-01 0.000E+00 ENERGY      -78.368549 DELTAE   -2.6788609
 ITERATION   3 PLS= 0.579E-02 0.000E+00 ENERGY      -78.973699 DELTAE   -0.6051503
 ITERATION   4 PLS= 0.275E-02 0.000E+00 ENERGY      -79.418644 DELTAE   -0.4449448
 ITERATION   5 PLS= 0.451E-03 0.000E+00 ENERGY      -79.177598 DELTAE    0.2410466
 ITERATION   6 PLS= 0.231E-03 0.000E+00 ENERGY      -79.178012 DELTAE   -0.0004142
 ITERATION   7 PLS= 0.126E-03 0.000E+00 ENERGY      -79.178298 DELTAE   -0.0002864
 ITERATION   8 PLS= 0.195E-04 0.000E+00 ENERGY      -79.178138 DELTAE    0.0001605
 CYCLE:    75 TIME:   0.043 TIME LEFT:  2.00W  GRAD.:     7.229 HEAT: -79.17814
 ITERATION   1 PLS= 0.132E-04 0.000E+00 ENERGY      -78.988513 DELTAE -178.9885127
 ITERATION   2 PLS= 0.304E-02 0.000E+00 ENERGY      -79.120595 DELTAE   -0.1320824
 ITERATION   3 PLS= 0.149E-02 0.000E+00 ENERGY      -79.150319 DELTAE   -0.0297239
 ITERATION   4 PLS= 0.727E-03 0.000E+00 ENERGY      -79.170906 DELTAE   -0.0205870
 ITERATION   5 PLS= 0.947E-04 0.000E+00 ENERGY      -79.160259 DELTAE    0.0106472
 ITERATION   1 PLS= 0.515E-04 0.000E+00 ENERGY      -79.108079 DELTAE -179.1080791
 ITERATION   2 PLS= 0.144E-02 0.000E+00 ENERGY      -79.147181 DELTAE   -0.0391015
 ITERATION   3 PLS= 0.692E-03 0.000E+00 ENERGY      -79.155807 DELTAE   -0.0086263
 ITERATION   4 PLS= 0.334E-03 0.000E+00 ENERGY      -79.162078 DELTAE   -0.0062716
 ITERATION   1 PLS= 0.587E-04 0.000E+00 ENERGY      -79.141881 DELTAE -179.1418811
 ITERATION   2 PLS= 0.110E-02 0.000E+00 ENERGY      -79.154753 DELTAE   -0.0128719
 ITERATION   3 PLS= 0.528E-03 0.000E+00 ENERGY      -79.157696 DELTAE   -0.0029431
 ITERATION   4 PLS= 0.254E-03 0.000E+00 ENERGY      -79.159767 DELTAE   -0.0020706
 ITERATION   1 PLS= 0.303E-04 0.000E+00 ENERGY      -79.162114 DELTAE -179.1621137
 ITERATION   2 PLS= 0.551E-03 0.000E+00 ENERGY      -79.166474 DELTAE   -0.0043600
 ITERATION   3 PLS= 0.259E-03 0.000E+00 ENERGY      -79.167460 DELTAE   -0.0009862
 ITERATION   4 PLS= 0.123E-03 0.000E+00 ENERGY      -79.168089 DELTAE   -0.0006294
 ITERATION   1 PLS= 0.183E-04 0.000E+00 ENERGY      -79.188773 DELTAE -179.1887730
 ITERATION   2 PLS= 0.202E-03 0.000E+00 ENERGY      -79.190118 DELTAE   -0.0013451
 ITERATION   3 PLS= 0.894E-04 0.000E+00 ENERGY      -79.190397 DELTAE   -0.0002785
 ITERATION   4 PLS= 0.482E-04 0.000E+00 ENERGY      -79.190602 DELTAE   -0.0002056
 CYCLE:    76 TIME:   0.148 TIME LEFT:  2.00W  GRAD.:     3.262 HEAT: -79.19048
 ITERATION   1 PLS= 0.109E-04 0.000E+00 ENERGY      -79.192165 DELTAE -179.1921648
 ITERATION   2 PLS= 0.325E-03 0.000E+00 ENERGY      -79.195687 DELTAE   -0.0035223
 ITERATION   3 PLS= 0.118E-03 0.000E+00 ENERGY      -79.196290 DELTAE   -0.0006033
 ITERATION   4 PLS= 0.711E-04 0.000E+00 ENERGY      -79.196659 DELTAE   -0.0003690
 CYCLE:    77 TIME:   0.031 TIME LEFT:  2.00W  GRAD.:     1.735 HEAT: -79.19646
 ITERATION   1 PLS= 0.153E-04 0.000E+00 ENERGY      -79.136133 DELTAE -179.1361332
 ITERATION   2 PLS= 0.151E-02 0.000E+00 ENERGY      -79.179447 DELTAE   -0.0433141
 ITERATION   3 PLS= 0.752E-03 0.000E+00 ENERGY      -79.188791 DELTAE   -0.0093437
 ITERATION   4 PLS= 0.375E-03 0.000E+00 ENERGY      -79.195571 DELTAE   -0.0067800
 ITERATION   5 PLS= 0.552E-04 0.000E+00 ENERGY      -79.191891 DELTAE    0.0036802
 CYCLE:    78 TIME:   0.035 TIME LEFT:  2.00W  GRAD.:     1.893 HEAT: -79.19190
 ITERATION   1 PLS= 0.346E-04 0.000E+00 ENERGY      -79.182265 DELTAE -179.1822654
 ITERATION   2 PLS= 0.477E-03 0.000E+00 ENERGY      -79.194670 DELTAE   -0.0124048
 ITERATION   3 PLS= 0.238E-03 0.000E+00 ENERGY      -79.197306 DELTAE   -0.0026361
 ITERATION   4 PLS= 0.137E-03 0.000E+00 ENERGY      -79.199504 DELTAE   -0.0021977
 ITERATION   5 PLS= 0.381E-04 0.000E+00 ENERGY      -79.198221 DELTAE    0.0012828
 CYCLE:    79 TIME:   0.039 TIME LEFT:  2.00W  GRAD.:     1.808 HEAT: -79.19823
 ITERATION   1 PLS= 0.205E-04 0.000E+00 ENERGY      -79.173199 DELTAE -179.1731993
 ITERATION   2 PLS= 0.843E-03 0.000E+00 ENERGY      -79.190640 DELTAE   -0.0174406
 ITERATION   3 PLS= 0.400E-03 0.000E+00 ENERGY      -79.194673 DELTAE   -0.0040333
 ITERATION   4 PLS= 0.191E-03 0.000E+00 ENERGY      -79.197731 DELTAE   -0.0030584
 ITERATION   5 PLS= 0.413E-04 0.000E+00 ENERGY      -79.196048 DELTAE    0.0016831
 CYCLE:    80 TIME:   0.035 TIME LEFT:  2.00W  GRAD.:     1.441 HEAT: -79.19605
 ITERATION   1 PLS= 0.224E-04 0.000E+00 ENERGY      -79.049210 DELTAE -179.0492101
 ITERATION   2 PLS= 0.175E-02 0.000E+00 ENERGY      -79.162843 DELTAE   -0.1136333
 ITERATION   3 PLS= 0.810E-03 0.000E+00 ENERGY      -79.189925 DELTAE   -0.0270815
 ITERATION   4 PLS= 0.381E-03 0.000E+00 ENERGY      -79.210500 DELTAE   -0.0205753
 ITERATION   5 PLS= 0.107E-03 0.000E+00 ENERGY      -79.199289 DELTAE    0.0112108
 ITERATION   6 PLS= 0.562E-04 0.000E+00 ENERGY      -79.199305 DELTAE   -0.0000156
 CYCLE:    81 TIME:   0.039 TIME LEFT:  2.00W  GRAD.:     2.027 HEAT: -79.19932
 ITERATION   1 PLS= 0.309E-04 0.000E+00 ENERGY      -78.673042 DELTAE -178.6730424
 ITERATION   2 PLS= 0.450E-02 0.000E+00 ENERGY      -79.128744 DELTAE   -0.4557017
 ITERATION   3 PLS= 0.209E-02 0.000E+00 ENERGY      -79.234961 DELTAE   -0.1062164
 ITERATION   4 PLS= 0.104E-02 0.000E+00 ENERGY      -79.315426 DELTAE   -0.0804655
 ITERATION   5 PLS= 0.236E-03 0.000E+00 ENERGY      -79.271470 DELTAE    0.0439565
 ITERATION   6 PLS= 0.128E-03 0.000E+00 ENERGY      -79.271542 DELTAE   -0.0000721
 CYCLE:    82 TIME:   0.035 TIME LEFT:  2.00W  GRAD.:     2.162 HEAT: -79.27160
 ITERATION   1 PLS= 0.721E-04 0.000E+00 ENERGY      -78.869532 DELTAE -178.8695323
 ITERATION   2 PLS= 0.363E-02 0.000E+00 ENERGY      -79.098996 DELTAE   -0.2294632
 ITERATION   3 PLS= 0.184E-02 0.000E+00 ENERGY      -79.153537 DELTAE   -0.0545418
 ITERATION   4 PLS= 0.915E-03 0.000E+00 ENERGY      -79.193038 DELTAE   -0.0395006
 ITERATION   5 PLS= 0.158E-03 0.000E+00 ENERGY      -79.172328 DELTAE    0.0207101
 ITERATION   6 PLS= 0.895E-04 0.000E+00 ENERGY      -79.172355 DELTAE   -0.0000271
 ITERATION   1 PLS= 0.517E-04 0.000E+00 ENERGY      -79.171056 DELTAE -179.1710557
 ITERATION   2 PLS= 0.176E-02 0.000E+00 ENERGY      -79.228352 DELTAE   -0.0572964
 ITERATION   3 PLS= 0.864E-03 0.000E+00 ENERGY      -79.241758 DELTAE   -0.0134060
 ITERATION   4 PLS= 0.426E-03 0.000E+00 ENERGY      -79.251830 DELTAE   -0.0100713
 ITERATION   5 PLS= 0.770E-04 0.000E+00 ENERGY      -79.246379 DELTAE    0.0054510
 ITERATION   1 PLS= 0.433E-04 0.000E+00 ENERGY      -79.212454 DELTAE -179.2124541
 ITERATION   2 PLS= 0.102E-02 0.000E+00 ENERGY      -79.232702 DELTAE   -0.0202482
 ITERATION   3 PLS= 0.497E-03 0.000E+00 ENERGY      -79.237507 DELTAE   -0.0048048
 ITERATION   4 PLS= 0.242E-03 0.000E+00 ENERGY      -79.241052 DELTAE   -0.0035444
 ITERATION   5 PLS= 0.493E-04 0.000E+00 ENERGY      -79.239168 DELTAE    0.0018836
 ITERATION   1 PLS= 0.279E-04 0.000E+00 ENERGY      -79.257716 DELTAE -179.2577163
 ITERATION   2 PLS= 0.496E-03 0.000E+00 ENERGY      -79.264000 DELTAE   -0.0062838
 ITERATION   3 PLS= 0.238E-03 0.000E+00 ENERGY      -79.265459 DELTAE   -0.0014589
 ITERATION   4 PLS= 0.114E-03 0.000E+00 ENERGY      -79.266459 DELTAE   -0.0010002
 CYCLE:    83 TIME:   0.133 TIME LEFT:  2.00W  GRAD.:     1.536 HEAT: -79.26594
 ITERATION   1 PLS= 0.242E-04 0.000E+00 ENERGY      -78.256061 DELTAE -178.2560605
 ITERATION   2 PLS= 0.717E-02 0.000E+00 ENERGY      -78.925150 DELTAE   -0.6690893
 ITERATION   3 PLS= 0.367E-02 0.000E+00 ENERGY      -79.083918 DELTAE   -0.1587681
 ITERATION   4 PLS= 0.184E-02 0.000E+00 ENERGY      -79.196678 DELTAE   -0.1127597
 ITERATION   5 PLS= 0.257E-03 0.000E+00 ENERGY      -79.138482 DELTAE    0.0581958
 ITERATION   6 PLS= 0.146E-03 0.000E+00 ENERGY      -79.138557 DELTAE   -0.0000752
 ITERATION   1 PLS= 0.849E-04 0.000E+00 ENERGY      -78.953800 DELTAE -178.9538002
 ITERATION   2 PLS= 0.343E-02 0.000E+00 ENERGY      -79.124520 DELTAE   -0.1707200
 ITERATION   3 PLS= 0.165E-02 0.000E+00 ENERGY      -79.164913 DELTAE   -0.0403929
 ITERATION   4 PLS= 0.803E-03 0.000E+00 ENERGY      -79.194337 DELTAE   -0.0294241
 ITERATION   5 PLS= 0.134E-03 0.000E+00 ENERGY      -79.178870 DELTAE    0.0154670
 ITERATION   6 PLS= 0.764E-04 0.000E+00 ENERGY      -79.178891 DELTAE   -0.0000207
 ITERATION   1 PLS= 0.436E-04 0.000E+00 ENERGY      -79.168501 DELTAE -179.1685015
 ITERATION   2 PLS= 0.188E-02 0.000E+00 ENERGY      -79.220619 DELTAE   -0.0521177
 ITERATION   3 PLS= 0.908E-03 0.000E+00 ENERGY      -79.232987 DELTAE   -0.0123679
 ITERATION   4 PLS= 0.440E-03 0.000E+00 ENERGY      -79.241797 DELTAE   -0.0088097
 ITERATION   5 PLS= 0.733E-04 0.000E+00 ENERGY      -79.237239 DELTAE    0.0045581
 ITERATION   6 PLS= 0.424E-04 0.000E+00 ENERGY      -79.237245 DELTAE   -0.0000059
 ITERATION   1 PLS= 0.246E-04 0.000E+00 ENERGY      -79.243792 DELTAE -179.2437916
 ITERATION   2 PLS= 0.103E-02 0.000E+00 ENERGY      -79.258918 DELTAE   -0.0151266
 ITERATION   3 PLS= 0.495E-03 0.000E+00 ENERGY      -79.262429 DELTAE   -0.0035112
 ITERATION   4 PLS= 0.238E-03 0.000E+00 ENERGY      -79.264801 DELTAE   -0.0023713
 ITERATION   5 PLS= 0.349E-04 0.000E+00 ENERGY      -79.263600 DELTAE    0.0012004
 CYCLE:    84 TIME:   0.137 TIME LEFT:  2.00W  GRAD.:     1.544 HEAT: -79.26360
 ITERATION   1 PLS= 0.207E-04 0.000E+00 ENERGY      -78.167960 DELTAE -178.1679595
 ITERATION   2 PLS= 0.787E-02 0.000E+00 ENERGY      -78.895657 DELTAE   -0.7276977
 ITERATION   3 PLS= 0.403E-02 0.000E+00 ENERGY      -79.067794 DELTAE   -0.1721367
 ITERATION   4 PLS= 0.202E-02 0.000E+00 ENERGY      -79.186361 DELTAE   -0.1185670
 ITERATION   5 PLS= 0.254E-03 0.000E+00 ENERGY      -79.126218 DELTAE    0.0601425
 ITERATION   6 PLS= 0.147E-03 0.000E+00 ENERGY      -79.126295 DELTAE   -0.0000762
 ITERATION   1 PLS= 0.863E-04 0.000E+00 ENERGY      -78.885204 DELTAE -178.8852040
 ITERATION   2 PLS= 0.384E-02 0.000E+00 ENERGY      -79.082745 DELTAE   -0.1975407
 ITERATION   3 PLS= 0.185E-02 0.000E+00 ENERGY      -79.129698 DELTAE   -0.0469532
 ITERATION   4 PLS= 0.900E-03 0.000E+00 ENERGY      -79.163295 DELTAE   -0.0335968
 ITERATION   5 PLS= 0.144E-03 0.000E+00 ENERGY      -79.145889 DELTAE    0.0174058
 ITERATION   6 PLS= 0.825E-04 0.000E+00 ENERGY      -79.145911 DELTAE   -0.0000222
 ITERATION   1 PLS= 0.475E-04 0.000E+00 ENERGY      -79.164032 DELTAE -179.1640325
 ITERATION   2 PLS= 0.215E-02 0.000E+00 ENERGY      -79.220153 DELTAE   -0.0561209
 ITERATION   3 PLS= 0.104E-02 0.000E+00 ENERGY      -79.233349 DELTAE   -0.0131954
 ITERATION   4 PLS= 0.504E-03 0.000E+00 ENERGY      -79.242266 DELTAE   -0.0089171
 ITERATION   5 PLS= 0.685E-04 0.000E+00 ENERGY      -79.237785 DELTAE    0.0044806
 ITERATION   6 PLS= 0.405E-04 0.000E+00 ENERGY      -79.237791 DELTAE   -0.0000059
 ITERATION   1 PLS= 0.239E-04 0.000E+00 ENERGY      -79.223518 DELTAE -179.2235182
 ITERATION   2 PLS= 0.981E-03 0.000E+00 ENERGY      -79.236918 DELTAE   -0.0134002
 ITERATION   3 PLS= 0.473E-03 0.000E+00 ENERGY      -79.239924 DELTAE   -0.0030060
 ITERATION   4 PLS= 0.227E-03 0.000E+00 ENERGY      -79.241863 DELTAE   -0.0019389
 ITERATION   5 PLS= 0.255E-04 0.000E+00 ENERGY      -79.240886 DELTAE    0.0009769
 ITERATION   1 PLS= 0.152E-04 0.000E+00 ENERGY      -79.238129 DELTAE -179.2381289
 ITERATION   2 PLS= 0.478E-03 0.000E+00 ENERGY      -79.241156 DELTAE   -0.0030271
 ITERATION   3 PLS= 0.232E-03 0.000E+00 ENERGY      -79.241806 DELTAE   -0.0006499
 ITERATION   4 PLS= 0.113E-03 0.000E+00 ENERGY      -79.242219 DELTAE   -0.0004128
 ITERATION   1 PLS= 0.123E-04 0.000E+00 ENERGY      -79.261576 DELTAE -179.2615763
 ITERATION   2 PLS= 0.341E-03 0.000E+00 ENERGY      -79.262279 DELTAE   -0.0007022
 ITERATION   3 PLS= 0.166E-03 0.000E+00 ENERGY      -79.262422 DELTAE   -0.0001439
 ITERATION   4 PLS= 0.806E-04 0.000E+00 ENERGY      -79.262508 DELTAE   -0.0000855
 CYCLE:    85 TIME:   0.172 TIME LEFT:  2.00W  GRAD.:     1.287 HEAT: -79.26247
 ITERATION   1 PLS= 0.719E-05 0.000E+00 ENERGY      -78.233061 DELTAE -178.2330615
 ITERATION   2 PLS= 0.949E-02 0.000E+00 ENERGY      -78.913615 DELTAE   -0.6805539
 ITERATION   3 PLS= 0.483E-02 0.000E+00 ENERGY      -79.074305 DELTAE   -0.1606894
 ITERATION   4 PLS= 0.242E-02 0.000E+00 ENERGY      -79.183523 DELTAE   -0.1092184
 ITERATION   5 PLS= 0.234E-03 0.000E+00 ENERGY      -79.128882 DELTAE    0.0546416
 ITERATION   6 PLS= 0.137E-03 0.000E+00 ENERGY      -79.128958 DELTAE   -0.0000769
 ITERATION   1 PLS= 0.809E-04 0.000E+00 ENERGY      -78.893509 DELTAE -178.8935090
 ITERATION   2 PLS= 0.435E-02 0.000E+00 ENERGY      -79.088698 DELTAE   -0.1951891
 ITERATION   3 PLS= 0.210E-02 0.000E+00 ENERGY      -79.135231 DELTAE   -0.0465327
 ITERATION   4 PLS= 0.102E-02 0.000E+00 ENERGY      -79.167904 DELTAE   -0.0326730
 ITERATION   5 PLS= 0.137E-03 0.000E+00 ENERGY      -79.151259 DELTAE    0.0166451
 ITERATION   6 PLS= 0.794E-04 0.000E+00 ENERGY      -79.151280 DELTAE   -0.0000212
 ITERATION   1 PLS= 0.461E-04 0.000E+00 ENERGY      -79.177452 DELTAE -179.1774518
 ITERATION   2 PLS= 0.244E-02 0.000E+00 ENERGY      -79.229663 DELTAE   -0.0522114
 ITERATION   3 PLS= 0.118E-02 0.000E+00 ENERGY      -79.241918 DELTAE   -0.0122548
 ITERATION   4 PLS= 0.574E-03 0.000E+00 ENERGY      -79.250129 DELTAE   -0.0082114
 ITERATION   5 PLS= 0.622E-04 0.000E+00 ENERGY      -79.246036 DELTAE    0.0040937
 ITERATION   6 PLS= 0.371E-04 0.000E+00 ENERGY      -79.246041 DELTAE   -0.0000055
 ITERATION   1 PLS= 0.220E-04 0.000E+00 ENERGY      -79.231599 DELTAE -179.2315989
 ITERATION   2 PLS= 0.126E-02 0.000E+00 ENERGY      -79.243130 DELTAE   -0.0115310
 ITERATION   3 PLS= 0.614E-03 0.000E+00 ENERGY      -79.245711 DELTAE   -0.0025809
 ITERATION   4 PLS= 0.298E-03 0.000E+00 ENERGY      -79.247365 DELTAE   -0.0016543
 ITERATION   5 PLS= 0.220E-04 0.000E+00 ENERGY      -79.246544 DELTAE    0.0008215
 ITERATION   1 PLS= 0.134E-04 0.000E+00 ENERGY      -79.263355 DELTAE -179.2633552
 ITERATION   2 PLS= 0.811E-03 0.000E+00 ENERGY      -79.265724 DELTAE   -0.0023687
 ITERATION   3 PLS= 0.398E-03 0.000E+00 ENERGY      -79.266228 DELTAE   -0.0005036
 ITERATION   4 PLS= 0.195E-03 0.000E+00 ENERGY      -79.266538 DELTAE   -0.0003109
 CYCLE:    86 TIME:   0.152 TIME LEFT:  2.00W  GRAD.:     1.117 HEAT: -79.26639
 ITERATION   1 PLS= 0.118E-04 0.000E+00 ENERGY      -78.258234 DELTAE -178.2582342
 ITERATION   2 PLS= 0.103E-01 0.000E+00 ENERGY      -78.931267 DELTAE   -0.6730324
 ITERATION   3 PLS= 0.522E-02 0.000E+00 ENERGY      -79.089062 DELTAE   -0.1577955
 ITERATION   4 PLS= 0.261E-02 0.000E+00 ENERGY      -79.194450 DELTAE   -0.1053880
 ITERATION   5 PLS= 0.225E-03 0.000E+00 ENERGY      -79.142190 DELTAE    0.0522603
 ITERATION   6 PLS= 0.132E-03 0.000E+00 ENERGY      -79.142264 DELTAE   -0.0000746
 ITERATION   1 PLS= 0.786E-04 0.000E+00 ENERGY      -78.884275 DELTAE -178.8842750
 ITERATION   2 PLS= 0.476E-02 0.000E+00 ENERGY      -79.086672 DELTAE   -0.2023968
 ITERATION   3 PLS= 0.229E-02 0.000E+00 ENERGY      -79.134900 DELTAE   -0.0482278
 ITERATION   4 PLS= 0.111E-02 0.000E+00 ENERGY      -79.168281 DELTAE   -0.0333813
 ITERATION   5 PLS= 0.136E-03 0.000E+00 ENERGY      -79.151452 DELTAE    0.0168290
 ITERATION   6 PLS= 0.798E-04 0.000E+00 ENERGY      -79.151474 DELTAE   -0.0000218
 ITERATION   1 PLS= 0.466E-04 0.000E+00 ENERGY      -79.186883 DELTAE -179.1868830
 ITERATION   2 PLS= 0.267E-02 0.000E+00 ENERGY      -79.235253 DELTAE   -0.0483702
 ITERATION   3 PLS= 0.130E-02 0.000E+00 ENERGY      -79.246446 DELTAE   -0.0111932
 ITERATION   4 PLS= 0.633E-03 0.000E+00 ENERGY      -79.253773 DELTAE   -0.0073266
 ITERATION   5 PLS= 0.545E-04 0.000E+00 ENERGY      -79.250154 DELTAE    0.0036186
 ITERATION   6 PLS= 0.329E-04 0.000E+00 ENERGY      -79.250159 DELTAE   -0.0000051
 ITERATION   1 PLS= 0.196E-04 0.000E+00 ENERGY      -79.254382 DELTAE -179.2543817
 ITERATION   2 PLS= 0.144E-02 0.000E+00 ENERGY      -79.264449 DELTAE   -0.0100668
 ITERATION   3 PLS= 0.704E-03 0.000E+00 ENERGY      -79.266661 DELTAE   -0.0022127
 ITERATION   4 PLS= 0.344E-03 0.000E+00 ENERGY      -79.268039 DELTAE   -0.0013778
 ITERATION   5 PLS= 0.196E-04 0.000E+00 ENERGY      -79.267363 DELTAE    0.0006761
 CYCLE:    87 TIME:   0.133 TIME LEFT:  2.00W  GRAD.:     1.507 HEAT: -79.26736
 ITERATION   1 PLS= 0.122E-04 0.000E+00 ENERGY      -78.286142 DELTAE -178.2861419
 ITERATION   2 PLS= 0.111E-01 0.000E+00 ENERGY      -78.946230 DELTAE   -0.6600884
 ITERATION   3 PLS= 0.560E-02 0.000E+00 ENERGY      -79.099188 DELTAE   -0.1529582
 ITERATION   4 PLS= 0.278E-02 0.000E+00 ENERGY      -79.200256 DELTAE   -0.1010681
 ITERATION   5 PLS= 0.239E-03 0.000E+00 ENERGY      -79.150313 DELTAE    0.0499430
 ITERATION   6 PLS= 0.141E-03 0.000E+00 ENERGY      -79.150390 DELTAE   -0.0000766
 ITERATION   1 PLS= 0.836E-04 0.000E+00 ENERGY      -78.901573 DELTAE -178.9015733
 ITERATION   2 PLS= 0.535E-02 0.000E+00 ENERGY      -79.094234 DELTAE   -0.1926610
 ITERATION   3 PLS= 0.259E-02 0.000E+00 ENERGY      -79.139814 DELTAE   -0.0455797
 ITERATION   4 PLS= 0.126E-02 0.000E+00 ENERGY      -79.170768 DELTAE   -0.0309544
 ITERATION   5 PLS= 0.134E-03 0.000E+00 ENERGY      -79.155351 DELTAE    0.0154169
 ITERATION   6 PLS= 0.789E-04 0.000E+00 ENERGY      -79.155373 DELTAE   -0.0000218
 ITERATION   1 PLS= 0.463E-04 0.000E+00 ENERGY      -79.195804 DELTAE -179.1958037
 ITERATION   2 PLS= 0.287E-02 0.000E+00 ENERGY      -79.239519 DELTAE   -0.0437155
 ITERATION   3 PLS= 0.140E-02 0.000E+00 ENERGY      -79.249516 DELTAE   -0.0099971
 ITERATION   4 PLS= 0.680E-03 0.000E+00 ENERGY      -79.256012 DELTAE   -0.0064953
 ITERATION   5 PLS= 0.559E-04 0.000E+00 ENERGY      -79.252815 DELTAE    0.0031971
 ITERATION   1 PLS= 0.338E-04 0.000E+00 ENERGY      -79.236892 DELTAE -179.2368920
 ITERATION   2 PLS= 0.144E-02 0.000E+00 ENERGY      -79.246194 DELTAE   -0.0093023
 ITERATION   3 PLS= 0.700E-03 0.000E+00 ENERGY      -79.248247 DELTAE   -0.0020525
 ITERATION   4 PLS= 0.341E-03 0.000E+00 ENERGY      -79.249547 DELTAE   -0.0013006
 ITERATION   5 PLS= 0.246E-04 0.000E+00 ENERGY      -79.248906 DELTAE    0.0006413
 ITERATION   1 PLS= 0.145E-04 0.000E+00 ENERGY      -79.267683 DELTAE -179.2676831
 ITERATION   2 PLS= 0.840E-03 0.000E+00 ENERGY      -79.269853 DELTAE   -0.0021695
 ITERATION   3 PLS= 0.411E-03 0.000E+00 ENERGY      -79.270319 DELTAE   -0.0004666
 ITERATION   4 PLS= 0.201E-03 0.000E+00 ENERGY      -79.270606 DELTAE   -0.0002871
 CYCLE:    88 TIME:   0.145 TIME LEFT:  2.00W  GRAD.:     1.385 HEAT: -79.27047
 ITERATION   1 PLS= 0.103E-04 0.000E+00 ENERGY      -77.367676 DELTAE -177.3676757
 ITERATION   2 PLS= 0.194E-01 0.000E+00 ENERGY      -78.731109 DELTAE   -1.3634329
 ITERATION   3 PLS= 0.974E-02 0.000E+00 ENERGY      -79.038083 DELTAE   -0.3069748
 ITERATION   4 PLS= 0.482E-02 0.000E+00 ENERGY      -79.234673 DELTAE   -0.1965896
 ITERATION   5 PLS= 0.363E-03 0.000E+00 ENERGY      -79.138235 DELTAE    0.0964383
 ITERATION   6 PLS= 0.210E-03 0.000E+00 ENERGY      -79.138416 DELTAE   -0.0001815
 ITERATION   1 PLS= 0.125E-03 0.000E+00 ENERGY      -78.653258 DELTAE -178.6532579
 ITERATION   2 PLS= 0.960E-02 0.000E+00 ENERGY      -79.041905 DELTAE   -0.3886470
 ITERATION   3 PLS= 0.462E-02 0.000E+00 ENERGY      -79.131419 DELTAE   -0.0895142
 ITERATION   4 PLS= 0.224E-02 0.000E+00 ENERGY      -79.189903 DELTAE   -0.0584843
 ITERATION   5 PLS= 0.191E-03 0.000E+00 ENERGY      -79.161203 DELTAE    0.0287002
 ITERATION   6 PLS= 0.113E-03 0.000E+00 ENERGY      -79.161251 DELTAE   -0.0000475
 ITERATION   1 PLS= 0.669E-04 0.000E+00 ENERGY      -79.091091 DELTAE -179.0910909
 ITERATION   2 PLS= 0.491E-02 0.000E+00 ENERGY      -79.175363 DELTAE   -0.0842717
 ITERATION   3 PLS= 0.238E-02 0.000E+00 ENERGY      -79.194064 DELTAE   -0.0187011
 ITERATION   4 PLS= 0.116E-02 0.000E+00 ENERGY      -79.205835 DELTAE   -0.0117711
 ITERATION   5 PLS= 0.808E-04 0.000E+00 ENERGY      -79.200076 DELTAE    0.0057586
 ITERATION   6 PLS= 0.481E-04 0.000E+00 ENERGY      -79.200087 DELTAE   -0.0000105
 ITERATION   1 PLS= 0.285E-04 0.000E+00 ENERGY      -79.201225 DELTAE -179.2012254
 ITERATION   2 PLS= 0.253E-02 0.000E+00 ENERGY      -79.220345 DELTAE   -0.0191199
 ITERATION   3 PLS= 0.123E-02 0.000E+00 ENERGY      -79.224474 DELTAE   -0.0041287
 ITERATION   4 PLS= 0.601E-03 0.000E+00 ENERGY      -79.227006 DELTAE   -0.0025316
 ITERATION   5 PLS= 0.363E-04 0.000E+00 ENERGY      -79.225766 DELTAE    0.0012396
 ITERATION   1 PLS= 0.214E-04 0.000E+00 ENERGY      -79.273084 DELTAE -179.2730844
 ITERATION   2 PLS= 0.138E-02 0.000E+00 ENERGY      -79.277861 DELTAE   -0.0047764
 ITERATION   3 PLS= 0.676E-03 0.000E+00 ENERGY      -79.278890 DELTAE   -0.0010291
 ITERATION   4 PLS= 0.331E-03 0.000E+00 ENERGY      -79.279521 DELTAE   -0.0006315
 ITERATION   5 PLS= 0.178E-04 0.000E+00 ENERGY      -79.279212 DELTAE    0.0003091
 CYCLE:    89 TIME:   0.129 TIME LEFT:  2.00W  GRAD.:     1.047 HEAT: -79.27921
 ITERATION   1 PLS= 0.108E-04 0.000E+00 ENERGY      -78.366533 DELTAE -178.3665333
 ITERATION   2 PLS= 0.127E-01 0.000E+00 ENERGY      -78.980806 DELTAE   -0.6142729
 ITERATION   3 PLS= 0.631E-02 0.000E+00 ENERGY      -79.119602 DELTAE   -0.1387961
 ITERATION   4 PLS= 0.311E-02 0.000E+00 ENERGY      -79.208827 DELTAE   -0.0892246
 ITERATION   5 PLS= 0.250E-03 0.000E+00 ENERGY      -79.165029 DELTAE    0.0437984
 ITERATION   6 PLS= 0.146E-03 0.000E+00 ENERGY      -79.165111 DELTAE   -0.0000822
 ITERATION   1 PLS= 0.864E-04 0.000E+00 ENERGY      -78.939190 DELTAE -178.9391904
 ITERATION   2 PLS= 0.637E-02 0.000E+00 ENERGY      -79.110851 DELTAE   -0.1716608
 ITERATION   3 PLS= 0.308E-02 0.000E+00 ENERGY      -79.150426 DELTAE   -0.0395750
 ITERATION   4 PLS= 0.150E-02 0.000E+00 ENERGY      -79.176274 DELTAE   -0.0258478
 ITERATION   5 PLS= 0.133E-03 0.000E+00 ENERGY      -79.163606 DELTAE    0.0126683
 ITERATION   6 PLS= 0.784E-04 0.000E+00 ENERGY      -79.163628 DELTAE   -0.0000223
 ITERATION   1 PLS= 0.462E-04 0.000E+00 ENERGY      -79.170790 DELTAE -179.1707898
 ITERATION   2 PLS= 0.322E-02 0.000E+00 ENERGY      -79.208740 DELTAE   -0.0379504
 ITERATION   3 PLS= 0.156E-02 0.000E+00 ENERGY      -79.217218 DELTAE   -0.0084781
 ITERATION   4 PLS= 0.762E-03 0.000E+00 ENERGY      -79.222598 DELTAE   -0.0053796
 ITERATION   5 PLS= 0.584E-04 0.000E+00 ENERGY      -79.219967 DELTAE    0.0026314
 ITERATION   6 PLS= 0.346E-04 0.000E+00 ENERGY      -79.219972 DELTAE   -0.0000052
 ITERATION   1 PLS= 0.205E-04 0.000E+00 ENERGY      -79.192330 DELTAE -179.1923304
 ITERATION   2 PLS= 0.159E-02 0.000E+00 ENERGY      -79.201003 DELTAE   -0.0086721
 ITERATION   3 PLS= 0.770E-03 0.000E+00 ENERGY      -79.202894 DELTAE   -0.0018918
 ITERATION   4 PLS= 0.374E-03 0.000E+00 ENERGY      -79.204072 DELTAE   -0.0011778
 ITERATION   5 PLS= 0.264E-04 0.000E+00 ENERGY      -79.203495 DELTAE    0.0005772
 ITERATION   1 PLS= 0.157E-04 0.000E+00 ENERGY      -79.277094 DELTAE -179.2770936
 ITERATION   2 PLS= 0.860E-03 0.000E+00 ENERGY      -79.279216 DELTAE   -0.0021226
 ITERATION   3 PLS= 0.423E-03 0.000E+00 ENERGY      -79.279675 DELTAE   -0.0004583
 ITERATION   4 PLS= 0.209E-03 0.000E+00 ENERGY      -79.279964 DELTAE   -0.0002891
 ITERATION   5 PLS= 0.158E-04 0.000E+00 ENERGY      -79.279821 DELTAE    0.0001422
 CYCLE:    90 TIME:   0.133 TIME LEFT:  2.00W  GRAD.:     0.946 HEAT: -79.27982

     GRADIENT =  0.94576 IS LESS THAN CUTOFF =  1.00000


 ITERATION   1 PLS= 0.994E-05 0.000E+00 ENERGY      -79.279822 DELTAE -179.2798218
 ITERATION   2 PLS= 0.609E-05 0.000E+00 ENERGY      -79.279822 DELTAE   -0.0000001
 ITERATION   3 PLS= 0.369E-05 0.000E+00 ENERGY      -79.279822 DELTAE   -0.0000001
 ITERATION   4 PLS= 0.223E-05 0.000E+00 ENERGY      -79.279822 DELTAE   -0.0000000

 -------------------------------------------------------------------------------
 PM7 CHARGE=0 SINGLET AUX DUMP=30M ITRY=15000 eps=78.4 T=14D PL THREADS=40

 Mopac file generated by Gabedit


     GEOMETRY OPTIMISED USING EIGENVECTOR FOLLOWING (EF).     
     SCF FIELD WAS ACHIEVED                                   


                              PM7 CALCULATION
                                                       MOPAC v22.1.0 Linux
                                                       Sat Mar 23 14:58:24 2024




          FINAL HEAT OF FORMATION =        -79.27982 KCAL/MOL =    -331.70678 KJ/MOL
          VAN DER WAALS AREA      =        249.91 SQUARE ANGSTROMS



          DIELECTRIC ENERGY       =         -0.73171 EV
          COSMO AREA              =        249.91 SQUARE ANGSTROMS
          COSMO VOLUME            =        249.08 CUBIC ANGSTROMS

          GRADIENT NORM           =          0.94576          =       0.18201 PER ATOM
          IONIZATION POTENTIAL    =         10.331445 EV
          HOMO LUMO ENERGIES (EV) =        -10.331 -0.427
          NO. OF FILLED LEVELS    =         37
          MOLECULAR WEIGHT        =        186.2102         POINT GROUP:  C1  

          MOLECULAR DIMENSIONS (Angstroms)

            Atom       Atom       Distance
            H    19    H    11    10.59999
            H     2    H    20     4.85811
            O     4    O    27     4.33043


          SCF CALCULATIONS        =        171

          WALL-CLOCK TIME         =      5.613 SECONDS
          COMPUTATION TIME        =          7 MINUTES AND 1.955 SECONDS




   ATOM   CHEMICAL          X               Y               Z
  NUMBER   SYMBOL      (ANGSTROMS)     (ANGSTROMS)     (ANGSTROMS)

     1       C          0.58278258  *  -0.24516166  *  -0.02623441  *
     2       H          0.62693955  *  -0.36391453  *  -1.11861011  *
     3       N          0.34789115  *  -2.65843067  *   0.26864485  *
     4       O          0.52100612  *  -3.07231317  *  -0.86959513  *
     5       O         -0.44515898  *  -3.18835613  *   1.02942916  *
     6       H          1.69365653  *  -0.48363168  *   2.56643141  *
     7       C          1.13502922  *  -1.45939402  *   0.71361189  *
     8       H          2.20711758  *  -1.64611295  *   0.40438742  *
     9       H         -0.45899791  *  -0.02237486  *   0.24295417  *
    10       C          1.04295773  *  -1.30405071  *   2.22408680  *
    11       H          0.02383211  *  -1.07083008  *   2.56317181  *
    12       C          6.69846434  *  -1.25760966  *  -0.83460811  *
    13       C          7.93194371  *  -1.46833467  *  -1.45974889  *
    14       C          8.51864099  *  -2.72944643  *  -1.37087313  *
    15       C          7.85923300  *  -3.73877486  *  -0.67165343  *
    16       C          6.62838025  *  -3.44773001  *  -0.07283676  *
    17       N          6.06017208  *  -2.22757886  *  -0.14910259  *
    18       H          8.41917435  *  -0.65996107  *  -2.00297367  *
    19       H          9.48404117  *  -2.92462052  *  -1.84452360  *
    20       H          8.28946888  *  -4.73621461  *  -0.58920497  *
    21       H          1.17111321  *   0.65340404  *   0.21768342  *
    22       H          1.36212943  *  -2.21069512  *   2.75858405  *
    23       H          6.06879299  *  -4.20788233  *   0.48949318  *
    24       H          6.19295884  *  -0.28332067  *  -0.87574438  *
    25       H          3.71843518  *  -1.84857558  *   2.25942031  *
    26       H          4.69650807  *  -1.48533183  *   1.14327282  *
    27       O          4.12810845  *  -1.09406191  *   1.82656618  *

                             CARTESIAN COORDINATES

   1    C        0.582782581    -0.245161657    -0.026234415
   2    H        0.626939547    -0.363914531    -1.118610110
   3    N        0.347891147    -2.658430674     0.268644854
   4    O        0.521006123    -3.072313173    -0.869595129
   5    O       -0.445158983    -3.188356132     1.029429161
   6    H        1.693656534    -0.483631682     2.566431412
   7    C        1.135029222    -1.459394024     0.713611893
   8    H        2.207117582    -1.646112948     0.404387417
   9    H       -0.458997912    -0.022374856     0.242954173
  10    C        1.042957734    -1.304050711     2.224086805
  11    H        0.023832114    -1.070830079     2.563171811
  12    C        6.698464344    -1.257609663    -0.834608113
  13    C        7.931943707    -1.468334673    -1.459748888
  14    C        8.518640992    -2.729446426    -1.370873134
  15    C        7.859233004    -3.738774862    -0.671653428
  16    C        6.628380248    -3.447730011    -0.072836763
  17    N        6.060172080    -2.227578856    -0.149102591
  18    H        8.419174345    -0.659961073    -2.002973673
  19    H        9.484041165    -2.924620518    -1.844523599
  20    H        8.289468879    -4.736214606    -0.589204968
  21    H        1.171113214     0.653404044     0.217683417
  22    H        1.362129426    -2.210695123     2.758584053
  23    H        6.068792987    -4.207882333     0.489493177
  24    H        6.192958841    -0.283320665    -0.875744376
  25    H        3.718435182    -1.848575578     2.259420309
  26    H        4.696508070    -1.485331833     1.143272819
  27    O        4.128108447    -1.094061912     1.826566177


           Empirical Formula: C8 H14 N2 O3  =    27 atoms



      MOLECULAR POINT GROUP   :   C1  


                  EIGENVALUES  
 -37.30775 -36.19711 -30.77189 -29.51867 -29.00066 -28.56335 -26.51537 -25.13921
 -24.47454 -22.33926 -22.11194 -20.90487 -18.62031 -18.32106 -18.03988 -17.49057
 -17.43009 -16.60387 -16.07485 -15.66525 -14.72048 -14.68838 -14.51622 -14.35988
 -13.99634 -13.84454 -13.66293 -12.83941 -12.68971 -12.60659 -12.20962 -11.94325
 -11.83839 -11.42343 -11.07965 -10.79407 -10.33144  -0.42687  -0.32926  -0.32439
   0.47574   2.11599   3.11620   3.23958   3.39198   3.86936   4.05129   4.10399
   4.39800   4.43247   4.55611   4.93240   5.00493   5.11673   5.34273   5.40986
   5.45083   5.49544   5.50043   5.71532   5.74559   5.90750   6.07849   6.51093
   6.63403   6.78334


              NET ATOMIC CHARGES AND DIPOLE CONTRIBUTIONS

  ATOM NO.   TYPE          CHARGE      No. of ELECS.   s-Pop       p-Pop       
    1          C          -0.476960        4.4770     1.05918     3.41778
    2          H           0.175264        0.8247     0.82474
    3          N           0.621230        4.3788     1.48453     2.89424
    4          O          -0.472968        6.4730     1.93989     4.53307
    5          O          -0.455666        6.4557     1.93905     4.51661
    6          H           0.180516        0.8195     0.81948
    7          C           0.003020        3.9970     1.09455     2.90243
    8          H           0.198801        0.8012     0.80120
    9          H           0.173010        0.8270     0.82699
   10          C          -0.474591        4.4746     1.05768     3.41691
   11          H           0.173125        0.8269     0.82687
   12          C           0.047958        3.9520     1.10057     2.85148
   13          C          -0.241029        4.2410     1.09150     3.14953
   14          C          -0.067773        4.0678     1.09468     2.97309
   15          C          -0.241210        4.2412     1.09198     3.14923
   16          C           0.053672        3.9463     1.10098     2.84534
   17          N          -0.447611        5.4476     1.73590     3.71171
   18          H           0.182432        0.8176     0.81757
   19          H           0.174753        0.8252     0.82525
   20          H           0.182773        0.8172     0.81723
   21          H           0.183129        0.8169     0.81687
   22          H           0.172982        0.8270     0.82702
   23          H           0.187236        0.8128     0.81276
   24          H           0.183757        0.8162     0.81624
   25          H           0.368423        0.6316     0.63158
   26          H           0.378901        0.6211     0.62110
   27          O          -0.763175        6.7632     1.81544     4.94774
 DIPOLE           X         Y         Z       TOTAL
 POINT-CHG.     5.732     2.411     0.265     6.224
 HYBRID         0.275    -0.831    -0.495     1.005
 SUM            6.007     1.581    -0.230     6.216


          ATOMIC ORBITAL ELECTRON POPULATIONS

     Atom    s        px        py        pz   
    1  C   1.05918   1.18591   1.07467   1.15720
    2  H   0.82474
    3  N   1.48453   0.95065   0.99132   0.95228
    4  O   1.93989   1.72187   1.70950   1.10171
    5  O   1.93905   1.36110   1.64012   1.51539
    6  H   0.81948
    7  C   1.09455   1.04443   0.85671   1.00128
    8  H   0.80120
    9  H   0.82699
   10  C   1.05768   1.20937   1.20500   1.00253
   11  H   0.82687
   12  C   1.10057   0.95177   1.00147   0.89824
   13  C   1.09150   1.02924   1.06121   1.05907
   14  C   1.09468   1.05108   0.97431   0.94770
   15  C   1.09198   1.02468   1.09308   1.03147
   16  C   1.10098   0.96005   0.93554   0.94975
   17  N   1.73590   1.38361   1.09733   1.23076
   18  H   0.81757
   19  H   0.82525
   20  H   0.81723
   21  H   0.81687
   22  H   0.82702
   23  H   0.81276
   24  H   0.81624
   25  H   0.63158
   26  H   0.62110
   27  O   1.81544   1.75175   1.52721   1.66878

 **********************
 *                    *
 * JOB ENDED NORMALLY *
 *                    *
 **********************



 TOTAL JOB TIME:             5.62 SECONDS

 == MOPAC DONE ==
