
                                 *****************
                                 * O   R   C   A *
                                 *****************

                                            #,                                       
                                            ###                                      
                                            ####                                     
                                            #####                                    
                                            ######                                   
                                           ########,                                 
                                     ,,################,,,,,                         
                               ,,#################################,,                 
                          ,,##########################################,,             
                       ,#########################################, ''#####,          
                    ,#############################################,,   '####,        
                  ,##################################################,,,,####,       
                ,###########''''           ''''###############################       
              ,#####''   ,,,,##########,,,,          '''####'''          '####       
            ,##' ,,,,###########################,,,                        '##       
           ' ,,###''''                  '''############,,,                           
         ,,##''                                '''############,,,,        ,,,,,,###''
      ,#''                                            '''#######################'''  
     '                                                          ''''####''''         
             ,#######,   #######,   ,#######,      ##                                
            ,#'     '#,  ##    ##  ,#'     '#,    #''#        ######   ,####,        
            ##       ##  ##   ,#'  ##            #'  '#       #        #'  '#        
            ##       ##  #######   ##           ,######,      #####,   #    #        
            '#,     ,#'  ##    ##  '#,     ,#' ,#      #,         ##   #,  ,#        
             '#######'   ##     ##  '#######'  #'      '#     #####' # '####'        



                  #######################################################
                  #                        -***-                        #
                  #          Department of theory and spectroscopy      #
                  #    Directorship and core code : Frank Neese         #
                  #        Max Planck Institute fuer Kohlenforschung    #
                  #                Kaiser Wilhelm Platz 1               #
                  #                 D-45470 Muelheim/Ruhr               #
                  #                      Germany                        #
                  #                                                     #
                  #                  All rights reserved                #
                  #                        -***-                        #
                  #######################################################


                         Program Version 5.0.4 -  RELEASE  -


 With contributions from (in alphabetic order):
   Daniel Aravena         : Magnetic Suceptibility
   Michael Atanasov       : Ab Initio Ligand Field Theory (pilot matlab implementation)
   Alexander A. Auer      : GIAO ZORA, VPT2 properties, NMR spectrum
   Ute Becker             : Parallelization
   Giovanni Bistoni       : ED, misc. LED, open-shell LED, HFLD
   Martin Brehm           : Molecular dynamics
   Dmytro Bykov           : SCF Hessian
   Vijay G. Chilkuri      : MRCI spin determinant printing, contributions to CSF-ICE
   Dipayan Datta          : RHF DLPNO-CCSD density
   Achintya Kumar Dutta   : EOM-CC, STEOM-CC
   Dmitry Ganyushin       : Spin-Orbit,Spin-Spin,Magnetic field MRCI
   Miquel Garcia          : C-PCM and meta-GGA Hessian, CC/C-PCM, Gaussian charge scheme
   Yang Guo               : DLPNO-NEVPT2, F12-NEVPT2, CIM, IAO-localization
   Andreas Hansen         : Spin unrestricted coupled pair/coupled cluster methods
   Benjamin Helmich-Paris : MC-RPA, TRAH-SCF, COSX integrals
   Lee Huntington         : MR-EOM, pCC
   Robert Izsak           : Overlap fitted RIJCOSX, COSX-SCS-MP3, EOM
   Marcus Kettner         : VPT2
   Christian Kollmar      : KDIIS, OOCD, Brueckner-CCSD(T), CCSD density, CASPT2, CASPT2-K
   Simone Kossmann        : Meta GGA functionals, TD-DFT gradient, OOMP2, MP2 Hessian
   Martin Krupicka        : Initial AUTO-CI
   Lucas Lang             : DCDCAS
   Marvin Lechner         : AUTO-CI (C++ implementation), FIC-MRCC
   Dagmar Lenk            : GEPOL surface, SMD
   Dimitrios Liakos       : Extrapolation schemes; Compound Job, initial MDCI parallelization
   Dimitrios Manganas     : Further ROCIS development; embedding schemes
   Dimitrios Pantazis     : SARC Basis sets
   Anastasios Papadopoulos: AUTO-CI, single reference methods and gradients
   Taras Petrenko         : DFT Hessian,TD-DFT gradient, ASA, ECA, R-Raman, ABS, FL, XAS/XES, NRVS
   Peter Pinski           : DLPNO-MP2, DLPNO-MP2 Gradient
   Christoph Reimann      : Effective Core Potentials
   Marius Retegan         : Local ZFS, SOC
   Christoph Riplinger    : Optimizer, TS searches, QM/MM, DLPNO-CCSD(T), (RO)-DLPNO pert. Triples
   Tobias Risthaus        : Range-separated hybrids, TD-DFT gradient, RPA, STAB
   Michael Roemelt        : Original ROCIS implementation
   Masaaki Saitow         : Open-shell DLPNO-CCSD energy and density
   Barbara Sandhoefer     : DKH picture change effects
   Avijit Sen             : IP-ROCIS
   Kantharuban Sivalingam : CASSCF convergence, NEVPT2, FIC-MRCI
   Bernardo de Souza      : ESD, SOC TD-DFT
   Georgi Stoychev        : AutoAux, RI-MP2 NMR, DLPNO-MP2 response
   Willem Van den Heuvel  : Paramagnetic NMR
   Boris Wezisla          : Elementary symmetry handling
   Frank Wennmohs         : Technical directorship


 We gratefully acknowledge several colleagues who have allowed us to
 interface, adapt or use parts of their codes:
   Stefan Grimme, W. Hujo, H. Kruse, P. Pracht,  : VdW corrections, initial TS optimization,
                  C. Bannwarth, S. Ehlert          DFT functionals, gCP, sTDA/sTD-DF
   Ed Valeev, F. Pavosevic, A. Kumar             : LibInt (2-el integral package), F12 methods
   Garnet Chan, S. Sharma, J. Yang, R. Olivares  : DMRG
   Ulf Ekstrom                                   : XCFun DFT Library
   Mihaly Kallay                                 : mrcc  (arbitrary order and MRCC methods)
   Jiri Pittner, Ondrej Demel                    : Mk-CCSD
   Frank Weinhold                                : gennbo (NPA and NBO analysis)
   Christopher J. Cramer and Donald G. Truhlar   : smd solvation model
   Lars Goerigk                                  : TD-DFT with DH, B97 family of functionals
   V. Asgeirsson, H. Jonsson                     : NEB implementation
   FAccTs GmbH                                   : IRC, NEB, NEB-TS, DLPNO-Multilevel, CI-OPT
                                                   MM, QMMM, 2- and 3-layer-ONIOM, Crystal-QMMM,
                                                   LR-CPCM, SF, NACMEs, symmetry and pop. for TD-DFT,
                                                   nearIR, NL-DFT gradient (VV10), updates on ESD,
                                                   ML-optimized integration grids
   S Lehtola, MJT Oliveira, MAL Marques          : LibXC Library
   Liviu Ungur et al                             : ANISO software


 Your calculation uses the libint2 library for the computation of 2-el integrals
 For citations please refer to: http://libint.valeyev.net

 Your ORCA version has been built with support for libXC version: 5.1.0
 For citations please refer to: https://tddft.org/programs/libxc/

 This ORCA versions uses:
   CBLAS   interface :  Fast vector & matrix operations
   LAPACKE interface :  Fast linear algebra routines
   SCALAPACK package :  Parallel linear algebra routines
   Shared memory     :  Shared parallel matrices
   BLAS/LAPACK       :  OpenBLAS 0.3.15  USE64BITINT DYNAMIC_ARCH NO_AFFINITY Prescott SINGLE_THREADED
        Core in use  :  Prescott
   Copyright (c) 2011-2014, The OpenBLAS Project


Your calculation utilizes the atom-pairwise dispersion correction
with the Becke-Johnson damping scheme (D3BJ)
Cite in your paper:
S.Grimme, S.Ehrlich, L.Goerigk, J Comput Chem, (2011), 32, 1456–1465 
S.Grimme, J.Antony, S.Ehrlich and H.Krieg, J.Chem.Phys., 132, (2010), 154104 
   

================================================================================

----- Orbital basis set information -----
Your calculation utilizes the basis: def2-TZVP
   F. Weigend and R. Ahlrichs, Phys. Chem. Chem. Phys. 7, 3297 (2005).

----- AuxJ basis set information -----
Your calculation utilizes the auxiliary basis: def2/J
   F. Weigend, Phys. Chem. Chem. Phys. 8, 1057 (2006).

================================================================================
                                        WARNINGS
                       Please study these warnings very carefully!
================================================================================


WARNING: Geometry Optimization
  ===> : Switching off AutoStart
         For restart on a previous wavefunction, please use MOREAD

INFO   : the flag for use of the SHARK integral package has been found!

================================================================================
                                       INPUT FILE
================================================================================
NAME = /home/rudenko/mop_saddle_orca_4_serv/for_orca/CH3NO2_H2O_near/orca/orca_end/end.inp
|  1> !  opt B3LYP def2-TZVP CPCM D3 
|  2> %pal nprocs 102 end
|  3> %cpcm epsilon 78.4 end 
|  4> *xyz 0 1 
|  5> C   0.52489893 -0.80576313 0.50159133
|  6> H   0.35166095 -0.1554615 -0.38020709
|  7> H   0.13560473 -0.2877358 1.40183176
|  8> H   1.62933077 -0.90386401 0.62442116
|  9> N   -0.08766212 -2.11604609 0.32628827
| 10> O   -0.5350751 -2.7007204 1.3024722
| 11> O   -0.13355109 -2.60562132 -0.79310729
| 12> H   3.90958288 -1.55402739 1.13313537
| 13> O   3.45573063 -1.12601158 1.87051362
| 14> H   3.60471583 -0.1850492 1.7231756
| 15> *
| 16> 
| 17>                          ****END OF INPUT****
================================================================================

                       *****************************
                       * Geometry Optimization Run *
                       *****************************

Geometry optimization settings:
Update method            Update   .... BFGS
Choice of coordinates    CoordSys .... Z-matrix Internals
Initial Hessian          InHess   .... Almoef's Model

Convergence Tolerances:
Energy Change            TolE     ....  5.0000e-06 Eh
Max. Gradient            TolMAXG  ....  3.0000e-04 Eh/bohr
RMS Gradient             TolRMSG  ....  1.0000e-04 Eh/bohr
Max. Displacement        TolMAXD  ....  4.0000e-03 bohr
RMS Displacement         TolRMSD  ....  2.0000e-03 bohr
Strict Convergence                ....  False
------------------------------------------------------------------------------
                        ORCA OPTIMIZATION COORDINATE SETUP
------------------------------------------------------------------------------

The optimization will be done in new redundant internal coordinates
Making redundant internal coordinates   ...  (new redundants) done
Evaluating the initial hessian          ...  (Almloef) done
Evaluating the coordinates              ...  done
Calculating the B-matrix                .... done
Calculating the G-matrix                .... done
Diagonalizing the G-matrix              .... done
The first mode is                       ....   32
The number of degrees of freedom        ....   24

    -----------------------------------------------------------------
                    Redundant Internal Coordinates


    -----------------------------------------------------------------
         Definition                    Initial Value    Approx d2E/dq
    -----------------------------------------------------------------
      1. B(H   1,C   0)                  1.1093         0.335494   
      2. B(H   2,C   0)                  1.1092         0.335570   
      3. B(H   3,C   0)                  1.1156         0.327823   
      4. B(N   4,C   0)                  1.4570         0.437528   
      5. B(O   5,N   4)                  1.2227         0.926731   
      6. B(O   6,N   4)                  1.2226         0.926900   
      7. B(H   7,H   3)                  2.4251         0.000511   
      8. B(O   8,H   7)                  0.9659         0.508863   
      9. B(O   8,H   3)                  2.2221         0.005039   
     10. B(H   9,H   3)                  2.3719         0.000621   
     11. B(H   9,O   8)                  0.9640         0.512353   
     12. A(H   1,C   0,H   2)          108.4560         0.284485   
     13. A(H   1,C   0,H   3)          107.0794         0.283454   
     14. A(H   1,C   0,N   4)          111.4636         0.327037   
     15. A(H   3,C   0,N   4)          110.5117         0.325794   
     16. A(H   2,C   0,N   4)          111.7216         0.327049   
     17. A(H   2,C   0,H   3)          107.4079         0.283464   
     18. A(C   0,H   3,H   9)          148.0877         0.126431   
     19. A(C   0,H   3,O   8)          152.1594         0.163308   
     20. A(C   0,H   3,H   7)          167.8411         0.124813   
     21. A(O   8,H   3,H   9)           23.9399         0.103379   
     22. A(H   7,H   3,H   9)           36.9653         0.095930   
     23. A(H   7,H   3,O   8)           23.4708         0.102757   
     24. A(C   0,N   4,O   5)          119.1978         0.429652   
     25. A(O   5,N   4,O   6)          121.7197         0.489352   
     26. A(C   0,N   4,O   6)          119.0811         0.429666   
     27. A(H   3,H   7,O   8)           66.3915         0.128100   
     28. A(H   3,O   8,H   9)           86.7747         0.170252   
     29. A(H   3,O   8,H   7)           90.1377         0.170127   
     30. A(H   7,O   8,H   9)          104.0780         0.319929   
     31. A(H   3,H   9,O   8)           69.2854         0.129930   
     32. D(H   9,H   3,C   0,H   1)     98.1157         0.113760   
     33. D(H   7,H   3,C   0,H   2)     87.8619         0.113760   
     34. D(O   8,H   3,C   0,H   1)    146.6822         0.113760   
     35. D(H   9,H   3,C   0,H   2)    -18.2059         0.113760   
     36. D(H   7,H   3,C   0,N   4)    -34.2391         0.113760   
     37. D(O   8,H   3,C   0,N   4)    -91.7404         0.113760   
     38. D(H   9,H   3,C   0,N   4)   -140.3069         0.113760   
     39. D(H   7,H   3,C   0,H   1)   -155.8165         0.113760   
     40. D(O   8,H   3,C   0,H   2)     30.3607         0.113760   
     41. D(O   6,N   4,C   0,H   2)    155.2042         0.016322   
     42. D(O   6,N   4,C   0,H   1)     33.6838         0.016322   
     43. D(O   5,N   4,C   0,H   3)     94.3056         0.016322   
     44. D(O   5,N   4,C   0,H   1)   -146.7449         0.016322   
     45. D(O   6,N   4,C   0,H   3)    -85.2657         0.016322   
     46. D(O   5,N   4,C   0,H   2)    -25.2245         0.016322   
     47. D(O   8,H   7,H   3,H   9)     40.8811         0.001503   
     48. D(O   8,H   7,H   3,C   0)    -81.4746         0.001503   
     49. D(H   9,O   8,H   7,H   3)    -86.7093         0.327050   
     50. D(H   9,O   8,H   3,H   7)    104.0929         0.001516   
     51. D(H   9,O   8,H   3,C   0)   -102.3957         0.001516   
     52. D(H   7,O   8,H   3,H   9)   -104.0929         0.001516   
     53. D(H   7,O   8,H   3,C   0)    153.5115         0.001516   
     54. D(H   3,H   9,O   8,H   7)     89.3325         0.332875   
     55. D(O   8,H   9,H   3,H   7)    -39.9709         0.001504   
     56. D(O   8,H   9,H   3,C   0)    120.3604         0.001504   
    -----------------------------------------------------------------

Number of atoms                         .... 10
Number of degrees of freedom            .... 56

         *************************************************************
         *                GEOMETRY OPTIMIZATION CYCLE   1            *
         *************************************************************
---------------------------------
CARTESIAN COORDINATES (ANGSTROEM)
---------------------------------
  C      0.524899   -0.805763    0.501591
  H      0.351661   -0.155462   -0.380207
  H      0.135605   -0.287736    1.401832
  H      1.629331   -0.903864    0.624421
  N     -0.087662   -2.116046    0.326288
  O     -0.535075   -2.700720    1.302472
  O     -0.133551   -2.605621   -0.793107
  H      3.909583   -1.554027    1.133135
  O      3.455731   -1.126012    1.870514
  H      3.604716   -0.185049    1.723176

----------------------------
CARTESIAN COORDINATES (A.U.)
----------------------------
  NO LB      ZA    FRAG     MASS         X           Y           Z
   0 C     6.0000    0    12.011    0.991915   -1.522672    0.947870
   1 H     1.0000    0     1.008    0.664543   -0.293780   -0.718487
   2 H     1.0000    0     1.008    0.256256   -0.543742    2.649078
   3 H     1.0000    0     1.008    3.078989   -1.708055    1.179985
   4 N     7.0000    0    14.007   -0.165657   -3.998748    0.616595
   5 O     8.0000    0    15.999   -1.011145   -5.103622    2.461316
   6 O     8.0000    0    15.999   -0.252375   -4.923911   -1.498756
   7 H     1.0000    0     1.008    7.388041   -2.936686    2.141316
   8 O     8.0000    0    15.999    6.530384   -2.127854    3.534758
   9 H     1.0000    0     1.008    6.811926   -0.349692    3.256330

--------------------------------
INTERNAL COORDINATES (ANGSTROEM)
--------------------------------
 C      0   0   0     0.000000000000     0.00000000     0.00000000
 H      1   0   0     1.109266451854     0.00000000     0.00000000
 H      1   2   0     1.109204724380   108.45597113     0.00000000
 H      1   2   3     1.115562924716   107.07935162   244.37464785
 N      1   2   3     1.456984433029   111.46361446   123.39838366
 O      5   1   2     1.222684541751   119.19777254   213.25512982
 O      5   1   2     1.222634909998   119.08111554    33.68376573
 H      4   1   2     2.425088091866   167.84107740   204.18353397
 O      8   4   1     0.965870634202    66.39154138   278.52536240
 H      9   8   4     0.964010001261   104.07801923   273.29071927

---------------------------
INTERNAL COORDINATES (A.U.)
---------------------------
 C      0   0   0     0.000000000000     0.00000000     0.00000000
 H      1   0   0     2.096209803551     0.00000000     0.00000000
 H      1   2   0     2.096093155530   108.45597113     0.00000000
 H      1   2   3     2.108108412869   107.07935162   244.37464785
 N      1   2   3     2.753301559811   111.46361446   123.39838366
 O      5   1   2     2.310538932088   119.19777254   213.25512982
 O      5   1   2     2.310445141667   119.08111554    33.68376573
 H      4   1   2     4.582752344260   167.84107740   204.18353397
 O      8   4   1     1.825230979438    66.39154138   278.52536240
 H      9   8   4     1.821714892745   104.07801923   273.29071927

---------------------
BASIS SET INFORMATION
---------------------
There are 4 groups of distinct atoms

 Group   1 Type C   : 11s6p2d1f contracted to 5s3p2d1f pattern {62111/411/11/1}
 Group   2 Type H   : 5s1p contracted to 3s1p pattern {311/1}
 Group   3 Type N   : 11s6p2d1f contracted to 5s3p2d1f pattern {62111/411/11/1}
 Group   4 Type O   : 11s6p2d1f contracted to 5s3p2d1f pattern {62111/411/11/1}

Atom   0C    basis set group =>   1
Atom   1H    basis set group =>   2
Atom   2H    basis set group =>   2
Atom   3H    basis set group =>   2
Atom   4N    basis set group =>   3
Atom   5O    basis set group =>   4
Atom   6O    basis set group =>   4
Atom   7H    basis set group =>   2
Atom   8O    basis set group =>   4
Atom   9H    basis set group =>   2
---------------------------------
AUXILIARY/J BASIS SET INFORMATION
---------------------------------
There are 4 groups of distinct atoms

 Group   1 Type C   : 12s5p4d2f1g contracted to 6s4p3d1f1g pattern {711111/2111/211/2/1}
 Group   2 Type H   : 5s2p1d contracted to 3s1p1d pattern {311/2/1}
 Group   3 Type N   : 12s5p4d2f1g contracted to 6s4p3d1f1g pattern {711111/2111/211/2/1}
 Group   4 Type O   : 12s5p4d2f1g contracted to 6s4p3d1f1g pattern {711111/2111/211/2/1}

Atom   0C    basis set group =>   1
Atom   1H    basis set group =>   2
Atom   2H    basis set group =>   2
Atom   3H    basis set group =>   2
Atom   4N    basis set group =>   3
Atom   5O    basis set group =>   4
Atom   6O    basis set group =>   4
Atom   7H    basis set group =>   2
Atom   8O    basis set group =>   4
Atom   9H    basis set group =>   2


           ************************************************************
           *        Program running with 102 parallel MPI-processes   *
           *              working on a common directory               *
           ************************************************************
------------------------------------------------------------------------------
                           ORCA GTO INTEGRAL CALCULATION
                           -- RI-GTO INTEGRALS CHOSEN --
------------------------------------------------------------------------------
------------------------------------------------------------------------------
                   ___                                                        
                  /   \      - P O W E R E D   B Y -                         
                 /     \                                                     
                 |  |  |   _    _      __       _____    __    __             
                 |  |  |  | |  | |    /  \     |  _  \  |  |  /  |          
                  \  \/   | |  | |   /    \    | | | |  |  | /  /          
                 / \  \   | |__| |  /  /\  \   | |_| |  |  |/  /          
                |  |  |   |  __  | /  /__\  \  |    /   |      \           
                |  |  |   | |  | | |   __   |  |    \   |  |\   \          
                \     /   | |  | | |  |  |  |  | |\  \  |  | \   \       
                 \___/    |_|  |_| |__|  |__|  |_| \__\ |__|  \__/        
                                                                              
                      - O R C A' S   B I G   F R I E N D -                    
                                      &                                       
                       - I N T E G R A L  F E E D E R -                       
                                                                              
 v1 FN, 2020, v2 2021                                                         
------------------------------------------------------------------------------


Reading SHARK input file /home/rudenko/mop_saddle_orca_4_serv/for_orca/CH3NO2_H2O_near/orca/orca_end/end.SHARKINP.tmp ... ok
----------------------
SHARK INTEGRAL PACKAGE
----------------------

Number of atoms                             ...     10
Number of basis functions                   ...    185
Number of shells                            ...     75
Maximum angular momentum                    ...      3
Integral batch strategy                     ... SHARK/LIBINT Hybrid
RI-J (if used) integral strategy            ... SPLIT-RIJ (Revised 2003 algorithm where possible)
Printlevel                                  ...      1
Contraction scheme used                     ... SEGMENTED contraction
Coulomb Range Separation                    ... NOT USED
Exchange Range Separation                   ... NOT USED
Finite Nucleus Model                        ... NOT USED
Auxiliary Coulomb fitting basis             ... AVAILABLE
   # of basis functions in Aux-J            ...    300
   # of shells in Aux-J                     ...    100
   Maximum angular momentum in Aux-J        ...      4
Auxiliary J/K fitting basis                 ... NOT available
Auxiliary Correlation fitting basis         ... NOT available
Auxiliary 'external' fitting basis          ... NOT available
Integral threshold                          ...     2.500000e-11
Primitive cut-off                           ...     2.500000e-12
Primitive pair pre-selection threshold      ...     2.500000e-12

Calculating pre-screening integrals         ... done (  0.0 sec) Dimension = 75
Organizing shell pair data                  ... done (  0.1 sec)
Shell pair information
Total number of shell pairs                 ...      2850
Shell pairs after pre-screening             ...      2546
Total number of primitive shell pairs       ...      8640
Primitive shell pairs kept                  ...      5922
          la=0 lb=0:    718 shell pairs
          la=1 lb=0:    731 shell pairs
          la=1 lb=1:    200 shell pairs
          la=2 lb=0:    348 shell pairs
          la=2 lb=1:    182 shell pairs
          la=2 lb=2:     48 shell pairs
          la=3 lb=0:    174 shell pairs
          la=3 lb=1:     90 shell pairs
          la=3 lb=2:     42 shell pairs
          la=3 lb=3:     13 shell pairs

Calculating one electron integrals          ... done (  0.0 sec)
Calculating RI/J V-Matrix + Cholesky decomp.... done (  0.0 sec)
Calculating Nuclear repulsion               ... done (  0.0 sec) ENN=    176.893705102062 Eh

SHARK setup successfully completed in   0.3 seconds

Maximum memory used throughout the entire GTOINT-calculation: 16.1 MB


           ************************************************************
           *        Program running with 102 parallel MPI-processes   *
           *              working on a common directory               *
           ************************************************************
-------------------------------------------------------------------------------
                                 ORCA SCF
-------------------------------------------------------------------------------

------------
SCF SETTINGS
------------
Hamiltonian:
 Density Functional     Method          .... DFT(GTOs)
 Exchange Functional    Exchange        .... B88
   X-Alpha parameter    XAlpha          ....  0.666667
   Becke's b parameter  XBeta           ....  0.004200
 Correlation Functional Correlation     .... LYP
 LDA part of GGA corr.  LDAOpt          .... VWN-5
 Gradients option       PostSCFGGA      .... off
 Hybrid DFT is turned on
   Fraction HF Exchange ScalHFX         ....  0.200000
   Scaling of DF-GGA-X  ScalDFX         ....  0.720000
   Scaling of DF-GGA-C  ScalDFC         ....  0.810000
   Scaling of DF-LDA-C  ScalLDAC        ....  1.000000
   Perturbative correction              ....  0.000000
   Density functional embedding theory  .... OFF
   NL short-range parameter             ....  4.800000
 RI-approximation to the Coulomb term is turned on
   Number of AuxJ basis functions       .... 300
   RIJ-COSX (HFX calculated with COS-X)).... on


General Settings:
 Integral files         IntName         .... /home/rudenko/mop_saddle_orca_4_serv/for_orca/CH3NO2_H2O_near/orca/orca_end/end
 Hartree-Fock type      HFTyp           .... RHF
 Total Charge           Charge          ....    0
 Multiplicity           Mult            ....    1
 Number of Electrons    NEL             ....   42
 Basis Dimension        Dim             ....  185
 Nuclear Repulsion      ENuc            ....    176.8937051021 Eh

Convergence Acceleration:
 DIIS                   CNVDIIS         .... on
   Start iteration      DIISMaxIt       ....    12
   Startup error        DIISStart       ....  0.200000
   # of expansion vecs  DIISMaxEq       ....     5
   Bias factor          DIISBfac        ....   1.050
   Max. coefficient     DIISMaxC        ....  10.000
 Trust-Rad. Augm. Hess. CNVTRAH         .... auto
   Auto Start mean grad. ratio tolernc. ....  1.125000
   Auto Start start iteration           ....    20
   Auto Start num. interpolation iter.  ....    10
   Max. Number of Micro iterations      ....    16
   Max. Number of Macro iterations      .... Maxiter - #DIIS iter
   Number of Davidson start vectors     ....     2
   Converg. threshold I  (grad. norm)   ....   1.000e-05
   Converg. threshold II (energy diff.) ....   1.000e-08
   Grad. Scal. Fac. for Micro threshold ....   0.100
   Minimum threshold for Micro iter.    ....   0.010
   NR start threshold (gradient norm)   ....   0.001
   Initial trust radius                 ....   0.400
   Minimum AH scaling param. (alpha)    ....   1.000
   Maximum AH scaling param. (alpha)    .... 1000.000
   Orbital update algorithm             .... Taylor
   White noise on init. David. guess    .... on
   Maximum white noise                  ....   0.010
   Quad. conv. algorithm                .... NR
 SOSCF                  CNVSOSCF        .... on
   Start iteration      SOSCFMaxIt      ....   150
   Startup grad/error   SOSCFStart      ....  0.003300
 Level Shifting         CNVShift        .... on
   Level shift para.    LevelShift      ....    0.2500
   Turn off err/grad.   ShiftErr        ....    0.0010
 Zerner damping         CNVZerner       .... off
 Static damping         CNVDamp         .... on
   Fraction old density DampFac         ....    0.7000
   Max. Damping (<1)    DampMax         ....    0.9800
   Min. Damping (>=0)   DampMin         ....    0.0000
   Turn off err/grad.   DampErr         ....    0.1000
 Fernandez-Rico         CNVRico         .... off

SCF Procedure:
 Maximum # iterations   MaxIter         ....   125
 SCF integral mode      SCFMode         .... Direct
   Integral package                     .... SHARK and LIBINT hybrid scheme
 Reset frequency        DirectResetFreq ....    20
 Integral Threshold     Thresh          ....  2.500e-11 Eh
 Primitive CutOff       TCut            ....  2.500e-12 Eh

Convergence Tolerance:
 Convergence Check Mode ConvCheckMode   .... Total+1el-Energy
 Convergence forced     ConvForced      .... 0
 Energy Change          TolE            ....  1.000e-08 Eh
 1-El. energy change                    ....  1.000e-05 Eh
 Orbital Gradient       TolG            ....  1.000e-05
 Orbital Rotation angle TolX            ....  1.000e-05
 DIIS Error             TolErr          ....  5.000e-07


Diagonalization of the overlap matrix:
Smallest eigenvalue                        ... 7.988e-04
Time for diagonalization                   ...    0.010 sec
Threshold for overlap eigenvalues          ... 1.000e-08
Number of eigenvalues below threshold      ... 0
Time for construction of square roots      ...    0.012 sec
Total time needed                          ...    0.023 sec

Time for model grid setup =    0.075 sec

------------------------------
INITIAL GUESS: MODEL POTENTIAL
------------------------------
Loading Hartree-Fock densities                     ... done
Calculating cut-offs                               ... done
Initializing the effective Hamiltonian             ... done
Setting up the integral package (SHARK)            ... done
Starting the Coulomb interaction                   ... done (   0.0 sec)
Reading the grid                                   ... done
Mapping shells                                     ... done
Starting the XC term evaluation                    ... done (   0.0 sec)
  promolecular density results
     # of electrons  =     41.997187739
     EX              =    -37.760044543
     EC              =     -1.457489632
     EX+EC           =    -39.217534175
Transforming the Hamiltonian                       ... done (   0.0 sec)
Diagonalizing the Hamiltonian                      ... done (   0.0 sec)
Back transforming the eigenvectors                 ... done (   0.0 sec)
Now organizing SCF variables                       ... done
                      ------------------
                      INITIAL GUESS DONE (   0.1 sec)
                      ------------------
-------------------
DFT GRID GENERATION
-------------------

General Integration Accuracy     IntAcc      ... 4.388
Radial Grid Type                 RadialGrid  ... OptM3 with GC (2021)
Angular Grid (max. ang.)         AngularGrid ... 4 (Lebedev-302)
Angular grid pruning method      GridPruning ... 4 (adaptive)
Weight generation scheme         WeightScheme... Becke
Basis function cutoff            BFCut       ... 1.0000e-11
Integration weight cutoff        WCut        ... 1.0000e-14
Angular grids for H and He will be reduced by one unit
Partially contracted basis set               ... off
Rotationally invariant grid construction     ... off

Total number of grid points                  ...    46816
Total number of batches                      ...      737
Average number of points per batch           ...       63
Average number of grid points per atom       ...     4682
Time for grid setup =    0.345 sec

--------------------
COSX GRID GENERATION
--------------------

GRIDX 1
-------
General Integration Accuracy     IntAcc      ... 3.816
Radial Grid Type                 RadialGrid  ... OptM3 with GC (2021)
Angular Grid (max. ang.)         AngularGrid ... 1 (Lebedev-50)
Angular grid pruning method      GridPruning ... 4 (adaptive)
Weight generation scheme         WeightScheme... Becke
Basis function cutoff            BFCut       ... 1.0000e-11
Integration weight cutoff        WCut        ... 1.0000e-14
Angular grids for H and He will be reduced by one unit
Partially contracted basis set               ... on
Rotationally invariant grid construction     ... off

Total number of grid points                  ...     6009
Total number of batches                      ...       99
Average number of points per batch           ...       60
Average number of grid points per atom       ...      601
UseSFitting                                  ... on

GRIDX 2
-------
General Integration Accuracy     IntAcc      ... 4.020
Radial Grid Type                 RadialGrid  ... OptM3 with GC (2021)
Angular Grid (max. ang.)         AngularGrid ... 2 (Lebedev-110)
Angular grid pruning method      GridPruning ... 4 (adaptive)
Weight generation scheme         WeightScheme... Becke
Basis function cutoff            BFCut       ... 1.0000e-11
Integration weight cutoff        WCut        ... 1.0000e-14
Angular grids for H and He will be reduced by one unit
Partially contracted basis set               ... on
Rotationally invariant grid construction     ... off

Total number of grid points                  ...    13205
Total number of batches                      ...      211
Average number of points per batch           ...       62
Average number of grid points per atom       ...     1320
UseSFitting                                  ... on

GRIDX 3
-------
General Integration Accuracy     IntAcc      ... 4.338
Radial Grid Type                 RadialGrid  ... OptM3 with GC (2021)
Angular Grid (max. ang.)         AngularGrid ... 3 (Lebedev-194)
Angular grid pruning method      GridPruning ... 4 (adaptive)
Weight generation scheme         WeightScheme... Becke
Basis function cutoff            BFCut       ... 1.0000e-11
Integration weight cutoff        WCut        ... 1.0000e-14
Angular grids for H and He will be reduced by one unit
Partially contracted basis set               ... on
Rotationally invariant grid construction     ... off

Total number of grid points                  ...    29043
Total number of batches                      ...      459
Average number of points per batch           ...       63
Average number of grid points per atom       ...     2904
UseSFitting                                  ... on

Time for X-Grid setup             =    0.305 sec


--------------------
CPCM SOLVATION MODEL
--------------------
CPCM parameters:
  Epsilon                                         ...      78.4000
  Refrac                                          ...       1.3300
  Rsolv                                           ...       1.3000
  Surface type                                    ... GAUSSIAN VDW
  Epsilon function type                           ...         CPCM
Radii:
 Radius for C  used is    3.8550 Bohr (=   2.0400 Ang.)
 Radius for H  used is    2.4944 Bohr (=   1.3200 Ang.)
 Radius for N  used is    3.5149 Bohr (=   1.8600 Ang.)
 Radius for O  used is    3.4469 Bohr (=   1.8240 Ang.)
Calculating surface                               ...        done! (  0.0s)
GEPOL surface points                              ...          672
GEPOL Volume                                      ...     678.6853
GEPOL Surface-area                                ...     465.2186
Calculating surface distance matrix               ...        done! (  0.0s)
Performing Cholesky decomposition & store         ...        done! (  0.1s)
Overall time for CPCM initialization              ...                 0.1s
--------------
SCF ITERATIONS
--------------
ITER       Energy         Delta-E        Max-DP      RMS-DP      [F,P]     Damp
               ***  Starting incremental Fock matrix formation  ***
  0   -321.2009539994   0.000000000000 0.05459215  0.00156131  0.3308845 0.7000
  1   -321.3233431667  -0.122389167333 0.04373421  0.00097053  0.1301223 0.7000
                               ***Turning on DIIS***
  2   -321.3612121851  -0.037869018409 0.04327024  0.00118596  0.0327650 0.0000
  3   -321.4346903977  -0.073478212587 0.03937918  0.00070094  0.0757169 0.0000
  4   -321.4452773610  -0.010586963299 0.01365578  0.00022819  0.0165289 0.0000
                      *** Initiating the SOSCF procedure ***
                           *** Shutting down DIIS ***
                      *** Re-Reading the Fockian *** 
                      *** Removing any level shift *** 
ITER      Energy       Delta-E        Grad      Rot      Max-DP    RMS-DP
  5   -321.44600889  -0.0007315262  0.000695  0.000695  0.003387  0.000063
               *** Restarting incremental Fock matrix formation ***
  6   -321.44603191  -0.0000230241  0.000505  0.001072  0.002883  0.000056
  7   -321.44602323   0.0000086806  0.001244  0.000973  0.000686  0.000021
  8   -321.44603835  -0.0000151200  0.000111  0.000202  0.000208  0.000005
  9   -321.44603816   0.0000001912  0.000169  0.000125  0.000158  0.000004
 10   -321.44603847  -0.0000003083  0.000009  0.000026  0.000024  0.000001
 11   -321.44603847   0.0000000023  0.000017  0.000028  0.000017  0.000000
 12   -321.44603847  -0.0000000031  0.000008  0.000017  0.000015  0.000000
 13   -321.44603847   0.0000000005  0.000007  0.000008  0.000009  0.000000
                 **** Energy Check signals convergence ****
              ***Rediagonalizing the Fockian in SOSCF/NRSCF***

               *****************************************************
               *                     SUCCESS                       *
               *           SCF CONVERGED AFTER  14 CYCLES          *
               *****************************************************

Old exchange energy                            =     -7.619376304 Eh
New exchange energy                            =     -7.619370541 Eh
Exchange energy change after final integration =      0.000005763 Eh
Total energy after final integration           =   -321.446032707 Eh
Final COS-X integration done in                =     0.178 sec

----------------
TOTAL SCF ENERGY
----------------

Total Energy       :         -321.44603271 Eh           -8746.99124 eV

Components:
Nuclear Repulsion  :          176.89370510 Eh            4813.52243 eV
Electronic Energy  :         -498.33973781 Eh          -13560.51367 eV
One Electron Energy:         -790.23764041 Eh          -21503.45941 eV
Two Electron Energy:          291.89790260 Eh            7942.94574 eV
Max COSX asymmetry :            0.00000141 Eh               0.00004 eV
CPCM Dielectric    :           -0.02506463 Eh              -0.68204 eV

Virial components:
Potential Energy   :         -641.61117545 Eh          -17459.12769 eV
Kinetic Energy     :          320.16514274 Eh            8712.13645 eV
Virial Ratio       :            2.00400072


DFT components:
N(Alpha)           :       21.000002029630 electrons
N(Beta)            :       21.000002029630 electrons
N(Total)           :       42.000004059261 electrons
E(X)               :      -30.402176728537 Eh       
E(C)               :       -1.723455974324 Eh       
E(XC)              :      -32.125632702860 Eh       
DFET-embed. en.    :        0.000000000000 Eh       
CPCM Solvation Model Properties:
Surface-charge          :           -0.01350612
Charge-correction       :            0.00011311 Eh               0.00308 eV
Free-energy (cav+disp)  :  This term is not implemented in the current solvation scheme

---------------
SCF CONVERGENCE
---------------

  Last Energy change         ...   -2.0698e-09  Tolerance :   1.0000e-08
  Last MAX-Density change    ...    1.8874e-15  Tolerance :   1.0000e-07
  Last RMS-Density change    ...    2.5750e-17  Tolerance :   5.0000e-09
  Last Orbital Gradient      ...    2.0731e-07  Tolerance :   1.0000e-05
  Last Orbital Rotation      ...    3.4674e-07  Tolerance :   1.0000e-05

             **** THE GBW FILE WAS UPDATED (/home/rudenko/mop_saddle_orca_4_serv/for_orca/CH3NO2_H2O_near/orca/orca_end/end.gbw) ****
             **** DENSITY /home/rudenko/mop_saddle_orca_4_serv/for_orca/CH3NO2_H2O_near/orca/orca_end/end.scfp WAS UPDATED ****
             **** ENERGY FILE WAS UPDATED (/home/rudenko/mop_saddle_orca_4_serv/for_orca/CH3NO2_H2O_near/orca/orca_end/end.en.tmp) ****
             **** THE GBW FILE WAS UPDATED (/home/rudenko/mop_saddle_orca_4_serv/for_orca/CH3NO2_H2O_near/orca/orca_end/end.gbw) ****
             **** DENSITY /home/rudenko/mop_saddle_orca_4_serv/for_orca/CH3NO2_H2O_near/orca/orca_end/end.scfp WAS UPDATED ****
----------------
ORBITAL ENERGIES
----------------

  NO   OCC          E(Eh)            E(eV) 
   0   2.0000     -19.168145      -521.5917 
   1   2.0000     -19.167687      -521.5793 
   2   2.0000     -19.127821      -520.4945 
   3   2.0000     -14.559972      -396.1970 
   4   2.0000     -10.220330      -278.1093 
   5   2.0000      -1.243643       -33.8412 
   6   2.0000      -1.063508       -28.9395 
   7   2.0000      -1.012310       -27.5463 
   8   2.0000      -0.818682       -22.2775 
   9   2.0000      -0.622500       -16.9391 
  10   2.0000      -0.554973       -15.1016 
  11   2.0000      -0.547362       -14.8945 
  12   2.0000      -0.532603       -14.4929 
  13   2.0000      -0.527957       -14.3664 
  14   2.0000      -0.425129       -11.5684 
  15   2.0000      -0.412473       -11.2240 
  16   2.0000      -0.395982       -10.7752 
  17   2.0000      -0.330526        -8.9941 
  18   2.0000      -0.329038        -8.9536 
  19   2.0000      -0.316086        -8.6011 
  20   2.0000      -0.303673        -8.2634 
  21   0.0000      -0.083143        -2.2624 
  22   0.0000       0.029189         0.7943 
  23   0.0000       0.077314         2.1038 
  24   0.0000       0.089427         2.4334 
  25   0.0000       0.109704         2.9852 
  26   0.0000       0.128019         3.4836 
  27   0.0000       0.148632         4.0445 
  28   0.0000       0.179610         4.8874 
  29   0.0000       0.210051         5.7158 
  30   0.0000       0.229576         6.2471 
  31   0.0000       0.245932         6.6921 
  32   0.0000       0.315289         8.5794 
  33   0.0000       0.332336         9.0433 
  34   0.0000       0.351354         9.5608 
  35   0.0000       0.386608        10.5201 
  36   0.0000       0.392054        10.6683 
  37   0.0000       0.399908        10.8820 
  38   0.0000       0.416392        11.3306 
  39   0.0000       0.422381        11.4936 
  40   0.0000       0.435403        11.8479 
  41   0.0000       0.448807        12.2127 
  42   0.0000       0.456117        12.4116 
  43   0.0000       0.492611        13.4046 
  44   0.0000       0.499724        13.5982 
  45   0.0000       0.509538        13.8652 
  46   0.0000       0.526813        14.3353 
  47   0.0000       0.539003        14.6670 
  48   0.0000       0.561618        15.2824 
  49   0.0000       0.574930        15.6446 
  50   0.0000       0.584485        15.9046 
  51   0.0000       0.597235        16.2516 
  52   0.0000       0.682367        18.5681 
  53   0.0000       0.750877        20.4324 
  54   0.0000       0.797618        21.7043 
  55   0.0000       0.823421        22.4064 
  56   0.0000       0.876717        23.8567 
  57   0.0000       0.946742        25.7622 
  58   0.0000       0.992379        27.0040 
  59   0.0000       1.019165        27.7329 
  60   0.0000       1.154507        31.4157 
  61   0.0000       1.161298        31.6005 
  62   0.0000       1.192105        32.4388 
  63   0.0000       1.206272        32.8243 
  64   0.0000       1.301934        35.4274 
  65   0.0000       1.328099        36.1394 
  66   0.0000       1.367342        37.2073 
  67   0.0000       1.374342        37.3978 
  68   0.0000       1.475290        40.1447 
  69   0.0000       1.499736        40.8099 
  70   0.0000       1.528956        41.6050 
  71   0.0000       1.546190        42.0740 
  72   0.0000       1.562693        42.5230 
  73   0.0000       1.571062        42.7508 
  74   0.0000       1.610291        43.8183 
  75   0.0000       1.632390        44.4196 
  76   0.0000       1.644285        44.7433 
  77   0.0000       1.693509        46.0827 
  78   0.0000       1.746813        47.5332 
  79   0.0000       1.762094        47.9490 
  80   0.0000       1.771308        48.1997 
  81   0.0000       1.900695        51.7206 
  82   0.0000       1.908896        51.9437 
  83   0.0000       1.921301        52.2813 
  84   0.0000       1.960783        53.3556 
  85   0.0000       2.013781        54.7978 
  86   0.0000       2.017707        54.9046 
  87   0.0000       2.033413        55.3320 
  88   0.0000       2.097708        57.0815 
  89   0.0000       2.119436        57.6728 
  90   0.0000       2.164000        58.8854 
  91   0.0000       2.200826        59.8875 
  92   0.0000       2.204372        59.9840 
  93   0.0000       2.243678        61.0536 
  94   0.0000       2.287005        62.2326 
  95   0.0000       2.305651        62.7400 
  96   0.0000       2.356129        64.1135 
  97   0.0000       2.392168        65.0942 
  98   0.0000       2.405502        65.4570 
  99   0.0000       2.476342        67.3847 
 100   0.0000       2.522332        68.6361 
 101   0.0000       2.543521        69.2127 
 102   0.0000       2.561326        69.6972 
 103   0.0000       2.575999        70.0965 
 104   0.0000       2.595805        70.6354 
 105   0.0000       2.615436        71.1696 
 106   0.0000       2.647900        72.0530 
 107   0.0000       2.700506        73.4845 
 108   0.0000       2.721081        74.0444 
 109   0.0000       2.746554        74.7375 
 110   0.0000       2.866990        78.0148 
 111   0.0000       2.891354        78.6777 
 112   0.0000       2.951930        80.3261 
 113   0.0000       2.990428        81.3737 
 114   0.0000       3.002723        81.7082 
 115   0.0000       3.031859        82.5011 
 116   0.0000       3.135231        85.3140 
 117   0.0000       3.208300        87.3023 
 118   0.0000       3.221671        87.6661 
 119   0.0000       3.283991        89.3619 
 120   0.0000       3.381199        92.0071 
 121   0.0000       3.476002        94.5868 
 122   0.0000       3.504146        95.3527 
 123   0.0000       3.584871        97.5493 
 124   0.0000       3.651421        99.3602 
 125   0.0000       3.718054       101.1734 
 126   0.0000       3.742119       101.8282 
 127   0.0000       3.915079       106.5347 
 128   0.0000       3.984366       108.4201 
 129   0.0000       4.010692       109.1365 
 130   0.0000       4.082198       111.0823 
 131   0.0000       4.121286       112.1459 
 132   0.0000       4.268760       116.1589 
 133   0.0000       4.311408       117.3194 
 134   0.0000       4.540385       123.5501 
 135   0.0000       4.558665       124.0476 
 136   0.0000       4.643869       126.3661 
 137   0.0000       4.677152       127.2718 
 138   0.0000       4.739728       128.9745 
 139   0.0000       4.802018       130.6695 
 140   0.0000       4.895491       133.2131 
 141   0.0000       5.074268       138.0778 
 142   0.0000       5.085171       138.3745 
 143   0.0000       5.094399       138.6256 
 144   0.0000       5.115709       139.2055 
 145   0.0000       5.130366       139.6044 
 146   0.0000       5.134355       139.7129 
 147   0.0000       5.198702       141.4639 
 148   0.0000       5.269182       143.3817 
 149   0.0000       5.284128       143.7884 
 150   0.0000       5.302951       144.3006 
 151   0.0000       5.375942       146.2868 
 152   0.0000       5.396771       146.8536 
 153   0.0000       5.447202       148.2259 
 154   0.0000       5.558907       151.2655 
 155   0.0000       5.636153       153.3675 
 156   0.0000       5.692193       154.8924 
 157   0.0000       5.934258       161.4794 
 158   0.0000       6.016119       163.7069 
 159   0.0000       6.213220       169.0703 
 160   0.0000       6.230251       169.5337 
 161   0.0000       6.256538       170.2491 
 162   0.0000       6.314472       171.8255 
 163   0.0000       6.322577       172.0461 
 164   0.0000       6.332250       172.3093 
 165   0.0000       6.351401       172.8304 
 166   0.0000       6.359867       173.0608 
 167   0.0000       6.373600       173.4345 
 168   0.0000       6.421117       174.7275 
 169   0.0000       6.647729       180.8939 
 170   0.0000       6.833399       185.9462 
 171   0.0000       6.855059       186.5356 
 172   0.0000       6.890647       187.5040 
 173   0.0000       6.905046       187.8958 
 174   0.0000       6.996314       190.3794 
 175   0.0000       7.085319       192.8013 
 176   0.0000       7.204508       196.0446 
 177   0.0000       7.236599       196.9179 
 178   0.0000       7.269870       197.8232 
 179   0.0000       7.379753       200.8133 
 180   0.0000      22.281884       606.3209 
 181   0.0000      32.283860       878.4885 
 182   0.0000      43.283276      1177.7978 
 183   0.0000      43.868553      1193.7240 
 184   0.0000      43.931195      1195.4286 

                    ********************************
                    * MULLIKEN POPULATION ANALYSIS *
                    ********************************

-----------------------
MULLIKEN ATOMIC CHARGES
-----------------------
   0 C :   -0.250556
   1 H :    0.171844
   2 H :    0.169028
   3 H :    0.143594
   4 N :    0.434825
   5 O :   -0.354898
   6 O :   -0.354736
   7 H :    0.364979
   8 O :   -0.689201
   9 H :    0.365122
Sum of atomic charges:    0.0000000

--------------------------------
MULLIKEN REDUCED ORBITAL CHARGES
--------------------------------
  0 C s       :     3.272532  s :     3.272532
      pz      :     1.108843  p :     2.922392
      px      :     1.039417
      py      :     0.774131
      dz2     :     0.007943  d :     0.050140
      dxz     :     0.004102
      dyz     :     0.015454
      dx2y2   :     0.012137
      dxy     :     0.010503
      f0      :     0.000392  f :     0.005492
      f+1     :     0.000432
      f-1     :     0.001427
      f+2     :     0.000328
      f-2     :     0.000517
      f+3     :     0.001439
      f-3     :     0.000956
  1 H s       :     0.807217  s :     0.807217
      pz      :     0.009634  p :     0.020939
      px      :     0.004225
      py      :     0.007079
  2 H s       :     0.809912  s :     0.809912
      pz      :     0.010371  p :     0.021060
      px      :     0.004943
      py      :     0.005745
  3 H s       :     0.831910  s :     0.831910
      pz      :     0.004847  p :     0.024497
      px      :     0.016637
      py      :     0.003013
  4 N s       :     3.312323  s :     3.312323
      pz      :     0.866503  p :     2.999239
      px      :     1.072699
      py      :     1.060037
      dz2     :     0.073013  d :     0.239032
      dxz     :     0.059473
      dyz     :     0.062463
      dx2y2   :     0.023781
      dxy     :     0.020301
      f0      :     0.003911  f :     0.014582
      f+1     :     0.002018
      f-1     :     0.002366
      f+2     :     0.002593
      f-2     :     0.002332
      f+3     :     0.000625
      f-3     :     0.000736
  5 O s       :     3.879126  s :     3.879126
      pz      :     1.396876  p :     4.431560
      px      :     1.413239
      py      :     1.621446
      dz2     :     0.010007  d :     0.040939
      dxz     :     0.010321
      dyz     :     0.012140
      dx2y2   :     0.004335
      dxy     :     0.004136
      f0      :     0.000521  f :     0.003274
      f+1     :     0.000547
      f-1     :     0.000872
      f+2     :     0.000561
      f-2     :     0.000613
      f+3     :     0.000067
      f-3     :     0.000092
  6 O s       :     3.878359  s :     3.878359
      pz      :     1.249558  p :     4.432156
      px      :     1.511108
      py      :     1.671490
      dz2     :     0.014812  d :     0.040944
      dxz     :     0.009785
      dyz     :     0.012558
      dx2y2   :     0.001796
      dxy     :     0.001992
      f0      :     0.000930  f :     0.003277
      f+1     :     0.000599
      f-1     :     0.001110
      f+2     :     0.000300
      f-2     :     0.000313
      f+3     :     0.000015
      f-3     :     0.000009
  7 H s       :     0.589582  s :     0.589582
      pz      :     0.017256  p :     0.045440
      px      :     0.016429
      py      :     0.011755
  8 O s       :     3.808726  s :     3.808726
      pz      :     1.667273  p :     4.859247
      px      :     1.820875
      py      :     1.371099
      dz2     :     0.004445  d :     0.019945
      dxz     :     0.005304
      dyz     :     0.003615
      dx2y2   :     0.004475
      dxy     :     0.002106
      f0      :     0.000028  f :     0.001283
      f+1     :     0.000242
      f-1     :     0.000251
      f+2     :     0.000064
      f-2     :     0.000231
      f+3     :     0.000123
      f-3     :     0.000343
  9 H s       :     0.589242  s :     0.589242
      pz      :     0.012167  p :     0.045636
      px      :     0.014285
      py      :     0.019183


                     *******************************
                     * LOEWDIN POPULATION ANALYSIS *
                     *******************************

----------------------
LOEWDIN ATOMIC CHARGES
----------------------
   0 C :   -0.266563
   1 H :    0.141803
   2 H :    0.141219
   3 H :    0.143147
   4 N :   -0.067161
   5 O :   -0.062890
   6 O :   -0.063851
   7 H :    0.175032
   8 O :   -0.314259
   9 H :    0.173522

-------------------------------
LOEWDIN REDUCED ORBITAL CHARGES
-------------------------------
  0 C s       :     2.870896  s :     2.870896
      pz      :     1.117293  p :     3.100614
      px      :     1.079082
      py      :     0.904239
      dz2     :     0.042533  d :     0.259823
      dxz     :     0.015497
      dyz     :     0.074851
      dx2y2   :     0.071949
      dxy     :     0.054993
      f0      :     0.002685  f :     0.035230
      f+1     :     0.003755
      f-1     :     0.005971
      f+2     :     0.002326
      f-2     :     0.004719
      f+3     :     0.009094
      f-3     :     0.006680
  1 H s       :     0.797143  s :     0.797143
      pz      :     0.029017  p :     0.061053
      px      :     0.012879
      py      :     0.019157
  2 H s       :     0.797787  s :     0.797787
      pz      :     0.030555  p :     0.060994
      px      :     0.015006
      py      :     0.015433
  3 H s       :     0.788372  s :     0.788372
      pz      :     0.013906  p :     0.068481
      px      :     0.045566
      py      :     0.009010
  4 N s       :     2.943712  s :     2.943712
      pz      :     1.105713  p :     3.294290
      px      :     1.038791
      py      :     1.149786
      dz2     :     0.244424  d :     0.754671
      dxz     :     0.167960
      dyz     :     0.208581
      dx2y2   :     0.068197
      dxy     :     0.065509
      f0      :     0.021286  f :     0.074487
      f+1     :     0.008581
      f-1     :     0.012000
      f+2     :     0.014428
      f-2     :     0.013391
      f+3     :     0.002377
      f-3     :     0.002424
  5 O s       :     3.504917  s :     3.504917
      pz      :     1.470513  p :     4.448912
      px      :     1.390791
      py      :     1.587608
      dz2     :     0.026206  d :     0.098063
      dxz     :     0.023426
      dyz     :     0.030113
      dx2y2   :     0.008116
      dxy     :     0.010202
      f0      :     0.001940  f :     0.010999
      f+1     :     0.001941
      f-1     :     0.002799
      f+2     :     0.001533
      f-2     :     0.002146
      f+3     :     0.000348
      f-3     :     0.000292
  6 O s       :     3.504785  s :     3.504785
      pz      :     1.378112  p :     4.449980
      px      :     1.453245
      py      :     1.618623
      dz2     :     0.038613  d :     0.098083
      dxz     :     0.019256
      dyz     :     0.032475
      dx2y2   :     0.004095
      dxy     :     0.003643
      f0      :     0.003387  f :     0.011002
      f+1     :     0.001752
      f-1     :     0.003856
      f+2     :     0.001029
      f-2     :     0.000852
      f+3     :     0.000065
      f-3     :     0.000061
  7 H s       :     0.665337  s :     0.665337
      pz      :     0.069270  p :     0.159631
      px      :     0.054730
      py      :     0.035631
  8 O s       :     3.460032  s :     3.460032
      pz      :     1.662260  p :     4.822676
      px      :     1.782870
      py      :     1.377545
      dz2     :     0.005953  d :     0.029218
      dxz     :     0.006237
      dyz     :     0.005850
      dx2y2   :     0.008084
      dxy     :     0.003093
      f0      :     0.000057  f :     0.002334
      f+1     :     0.000415
      f-1     :     0.000543
      f+2     :     0.000095
      f-2     :     0.000503
      f+3     :     0.000151
      f-3     :     0.000568
  9 H s       :     0.666142  s :     0.666142
      pz      :     0.037475  p :     0.160336
      px      :     0.043479
      py      :     0.079383


                      *****************************
                      * MAYER POPULATION ANALYSIS *
                      *****************************

  NA   - Mulliken gross atomic population
  ZA   - Total nuclear charge
  QA   - Mulliken gross atomic charge
  VA   - Mayer's total valence
  BVA  - Mayer's bonded valence
  FA   - Mayer's free valence

  ATOM       NA         ZA         QA         VA         BVA        FA
  0 C      6.2506     6.0000    -0.2506     3.7100     3.7100    -0.0000
  1 H      0.8282     1.0000     0.1718     0.9607     0.9607    -0.0000
  2 H      0.8310     1.0000     0.1690     0.9658     0.9658    -0.0000
  3 H      0.8564     1.0000     0.1436     1.0480     1.0480     0.0000
  4 N      6.5652     7.0000     0.4348     4.1173     4.1173    -0.0000
  5 O      8.3549     8.0000    -0.3549     1.8843     1.8843     0.0000
  6 O      8.3547     8.0000    -0.3547     1.8769     1.8769     0.0000
  7 H      0.6350     1.0000     0.3650     0.8816     0.8816    -0.0000
  8 O      8.6892     8.0000    -0.6892     1.8267     1.8267     0.0000
  9 H      0.6349     1.0000     0.3651     0.8817     0.8817     0.0000

  Mayer bond orders larger than 0.100000
B(  0-C ,  1-H ) :   0.9430 B(  0-C ,  2-H ) :   0.9497 B(  0-C ,  3-H ) :   0.9014 
B(  0-C ,  4-N ) :   0.8967 B(  3-H ,  8-O ) :   0.1161 B(  4-N ,  5-O ) :   1.6078 
B(  4-N ,  6-O ) :   1.6013 B(  5-O ,  6-O ) :   0.2060 B(  7-H ,  8-O ) :   0.8761 
B(  8-O ,  9-H ) :   0.8764 

-------
TIMINGS
-------

Total SCF time: 0 days 0 hours 0 min 7 sec 

Total time                  ....       7.348 sec
Sum of individual times     ....       6.909 sec  ( 94.0%)

Fock matrix formation       ....       5.548 sec  ( 75.5%)
  Split-RI-J                ....       0.934 sec  ( 16.8% of F)
  Chain of spheres X        ....       1.672 sec  ( 30.1% of F)
  XC integration            ....       0.758 sec  ( 13.7% of F)
    Basis function eval.    ....       0.046 sec  (  6.1% of XC)
    Density eval.           ....       0.078 sec  ( 10.3% of XC)
    XC-Functional eval.     ....       0.009 sec  (  1.2% of XC)
    XC-Potential eval.      ....       0.052 sec  (  6.9% of XC)
Diagonalization             ....       0.163 sec  (  2.2%)
Density matrix formation    ....       0.057 sec  (  0.8%)
Population analysis         ....       0.027 sec  (  0.4%)
Initial guess               ....       0.047 sec  (  0.6%)
Orbital Transformation      ....       0.000 sec  (  0.0%)
Orbital Orthonormalization  ....       0.000 sec  (  0.0%)
DIIS solution               ....       0.117 sec  (  1.6%)
SOSCF solution              ....       0.223 sec  (  3.0%)
Grid generation             ....       0.725 sec  (  9.9%)

Maximum memory used throughout the entire SCF-calculation: 64.9 MB


-------------------------------------------------------------------------------
                          DFT DISPERSION CORRECTION                            
                                                                               
                              DFTD3 V3.1  Rev 1                                
                          USING Becke-Johnson damping                          
-------------------------------------------------------------------------------
The B3LYP functional is recognized
Active option DFTDOPT                   ...         4   

molecular C6(AA) [au] = 741.713576 


            DFT-D V3
 parameters
 s6 scaling factor         :     1.0000 
 a1 scaling factor         :     0.3981 
 s8 scaling factor         :     1.9889 
 a2 scaling factor         :     4.4211 
 ad hoc parameters k1-k3   :    16.0000     1.3333    -4.0000 

 Edisp/kcal,au: -4.913405001399  -0.007830008439 
 E6   /kcal   :  -2.500183886 
 E8   /kcal   :  -2.413221115 
 % E8         :  49.115045768 

-------------------------   ----------------
Dispersion correction           -0.007830008
-------------------------   ----------------


-------------------------   --------------------
FINAL SINGLE POINT ENERGY      -321.453862715766
-------------------------   --------------------



           ************************************************************
           *        Program running with 102 parallel MPI-processes   *
           *              working on a common directory               *
           ************************************************************
------------------------------------------------------------------------------
                         ORCA SCF GRADIENT CALCULATION
------------------------------------------------------------------------------

 ... reading COSX grid (gridx3)
Gradient of the Kohn-Sham DFT energy:
Kohn-Sham wavefunction type      ... RKS
Hartree-Fock exchange scaling    ...    0.200
Number of operators              ...    1
Number of atoms                  ...   10
Basis set dimensions             ...  185
Integral neglect threshold       ... 2.5e-11
Integral primitive cutoff        ... 2.5e-12
SHARK Integral package           ... ON

Nuc. rep. gradient       (SHARK) ... done (  0.0 sec)
HCore & Overlap gradient (SHARK) ... done (  0.0 sec)
RI-J gradient            (SHARK) ... done (  0.1 sec)
COSX-gradient                    ... done (  0.2 sec)
Exchange-correlation gradient    ... done
Dispersion correction            ... done

------------------
CARTESIAN GRADIENT
------------------

   1   C   :   -0.016298720   -0.039833852   -0.003194431
   2   H   :    0.001620609    0.014267883   -0.007305747
   3   H   :   -0.001565465    0.013406934    0.009711031
   4   H   :    0.015721181    0.006802740    0.000499734
   5   N   :    0.010503114    0.016451004    0.002500632
   6   O   :   -0.002646249   -0.005247383   -0.007379980
   7   O   :   -0.005077584   -0.005888220    0.005669955
   8   H   :   -0.000525090    0.000791592   -0.000313370
   9   O   :   -0.001207227    0.001381034    0.000408541
  10   H   :   -0.000565824   -0.002284730   -0.000567284

Difference to translation invariance:
           :   -0.0000412547   -0.0001529982    0.0000290809

Difference to rotation invariance:
           :    0.0001481714    0.0000200124   -0.0014352250

Norm of the cartesian gradient     ...    0.0571974278
RMS gradient                       ...    0.0104427738
MAX gradient                       ...    0.0398338520

-------
TIMINGS
-------

Total SCF gradient time            ...        1.217 sec

One electron gradient       ....       0.022 sec  (  1.8%)
RI-J Coulomb gradient       ....       0.117 sec  (  9.6%)
COSX gradient               ....       0.219 sec  ( 18.0%)
XC gradient                 ....       0.124 sec  ( 10.2%)
CPCM gradient               ....       0.093 sec  (  7.6%)
   A-Matrix (El+Nuc)        ....       0.037 sec  (  3.0%)
   Potential                ....       0.056 sec  (  4.6%)

Maximum memory used throughout the entire SCFGRAD-calculation: 39.4 MB
------------------------------------------------------------------------------
                         ORCA GEOMETRY RELAXATION STEP
------------------------------------------------------------------------------

Reading the OPT-File                    .... done
Getting information on internals        .... done
Copying old internal coords+grads       .... done
Making the new internal coordinates     .... (new redundants).... done
Validating the new internal coordinates .... (new redundants).... done
Calculating the B-matrix                .... done
Calculating the G,G- and P matrices     .... done
Transforming gradient to internals      .... done
Projecting the internal gradient        .... done
Number of atoms                         ....  10
Number of internal coordinates          ....  56
Current Energy                          ....  -321.453862716 Eh
Current gradient norm                   ....     0.057197428 Eh/bohr
Maximum allowed component of the step   ....  0.300
Current trust radius                    ....  0.300
Evaluating the initial hessian          ....  (Almloef) done
Projecting the Hessian                  .... done
Forming the augmented Hessian           .... done
Diagonalizing the augmented Hessian     .... done
Last element of RFO vector              ....  0.977096238
Lowest eigenvalues of augmented Hessian:
 -0.003720033  0.005392557  0.014883620  0.016322397  0.016502716
Length of the computed step             ....  0.217786007
The final length of the internal step   ....  0.217786007
Converting the step to cartesian space:
 Initial RMS(Int)=    0.0291028793
Transforming coordinates:
 Iter   0:  RMS(Cart)=    0.0339801025 RMS(Int)=    0.0291422594
 Iter   1:  RMS(Cart)=    0.0007540004 RMS(Int)=    0.0006958072
 Iter   2:  RMS(Cart)=    0.0000201649 RMS(Int)=    0.0000212213
 Iter   3:  RMS(Cart)=    0.0000009504 RMS(Int)=    0.0000006837
 Iter   4:  RMS(Cart)=    0.0000000395 RMS(Int)=    0.0000000303
done
Storing new coordinates                 .... done

                                .--------------------.
          ----------------------|Geometry convergence|-------------------------
          Item                value                   Tolerance       Converged
          ---------------------------------------------------------------------
          RMS gradient        0.0044534876            0.0001000000      NO
          MAX gradient        0.0146965276            0.0003000000      NO
          RMS step            0.0291028793            0.0020000000      NO
          MAX step            0.0983438035            0.0040000000      NO
          ........................................................
          Max(Bonds)      0.0520      Max(Angles)    1.69
          Max(Dihed)        2.39      Max(Improp)    0.00
          ---------------------------------------------------------------------

The optimization has not yet converged - more geometry cycles are needed


    ---------------------------------------------------------------------------
                         Redundant Internal Coordinates
                            (Angstroem and degrees)

        Definition                    Value    dE/dq     Step     New-Value
    ----------------------------------------------------------------------------
     1. B(H   1,C   0)                1.1093  0.013922 -0.0217    1.0875   
     2. B(H   2,C   0)                1.1092  0.014697 -0.0229    1.0863   
     3. B(H   3,C   0)                1.1156  0.012686 -0.0202    1.0953   
     4. B(N   4,C   0)                1.4570 -0.006054  0.0073    1.4642   
     5. B(O   5,N   4)                1.2227 -0.002428  0.0014    1.2241   
     6. B(O   6,N   4)                1.2226 -0.002633  0.0015    1.2241   
     7. B(H   7,H   3)                2.4251 -0.000795  0.0495    2.4745   
     8. B(O   8,H   7)                0.9659  0.000053  0.0008    0.9666   
     9. B(O   8,H   3)                2.2221 -0.000802  0.0520    2.2742   
    10. B(H   9,H   3)                2.3719 -0.001016  0.0497    2.4217   
    11. B(H   9,O   8)                0.9640 -0.001247  0.0029    0.9669   
    12. A(H   1,C   0,H   2)          108.46 -0.002049    0.82    109.28   
    13. A(H   1,C   0,H   3)          107.08 -0.005547    1.37    108.45   
    14. A(H   1,C   0,N   4)          111.46  0.003170   -0.94    110.52   
    15. A(H   3,C   0,N   4)          110.51  0.005517   -1.19    109.32   
    16. A(H   2,C   0,N   4)          111.72  0.002635   -0.88    110.85   
    17. A(H   2,C   0,H   3)          107.41 -0.004446    1.01    108.42   
    18. A(C   0,H   3,H   9)          148.09  0.000097    0.55    148.63   
    19. A(C   0,H   3,O   8)          152.16 -0.000077    0.59    152.75   
    20. A(C   0,H   3,H   7)          167.84  0.000026    0.22    168.06   
    21. A(O   8,H   3,H   9)           23.94 -0.000201   -0.46     23.48   
    22. A(H   7,H   3,H   9)           36.97 -0.000158   -0.64     36.32   
    23. A(H   7,H   3,O   8)           23.47  0.000088   -0.49     22.98   
    24. A(C   0,N   4,O   5)          119.20  0.006902   -0.84    118.35   
    25. A(O   5,N   4,O   6)          121.72 -0.014038    1.69    123.41   
    26. A(C   0,N   4,O   6)          119.08  0.007147   -0.88    118.20   
    27. A(H   3,H   7,O   8)           66.39 -0.000040    0.40     66.79   
    28. A(H   3,O   8,H   9)           86.77  0.000093    0.07     86.85   
    29. A(H   3,O   8,H   7)           90.14 -0.000048    0.09     90.23   
    30. A(H   7,O   8,H   9)          104.08 -0.000272    0.30    104.38   
    31. A(H   3,H   9,O   8)           69.29  0.000108    0.38     69.67   
    32. D(H   9,H   3,C   0,H   1)     98.12 -0.003434    1.09     99.21   
    33. D(H   7,H   3,C   0,H   2)     87.86  0.003644   -1.10     86.76   
    34. D(O   8,H   3,C   0,H   1)    146.68 -0.003804    0.98    147.66   
    35. D(H   9,H   3,C   0,H   2)    -18.21  0.003940   -1.05    -19.26   
    36. D(H   7,H   3,C   0,N   4)    -34.24 -0.000088    0.05    -34.19   
    37. D(O   8,H   3,C   0,N   4)    -91.74 -0.000161   -0.01    -91.75   
    38. D(H   9,H   3,C   0,N   4)   -140.31  0.000208    0.10   -140.21   
    39. D(H   7,H   3,C   0,H   1)   -155.82 -0.003731    1.04   -154.77   
    40. D(O   8,H   3,C   0,H   2)     30.36  0.003571   -1.16     29.20   
    41. D(O   6,N   4,C   0,H   2)    155.20 -0.000188    2.07    157.27   
    42. D(O   6,N   4,C   0,H   1)     33.68 -0.001655    2.29     35.98   
    43. D(O   5,N   4,C   0,H   3)     94.31  0.001153   -2.39     91.92   
    44. D(O   5,N   4,C   0,H   1)   -146.74 -0.000133   -2.06   -148.81   
    45. D(O   6,N   4,C   0,H   3)    -85.27 -0.000369    1.97    -83.29   
    46. D(O   5,N   4,C   0,H   2)    -25.22  0.001334   -2.29    -27.51   
    47. D(O   8,H   7,H   3,H   9)     40.88 -0.000151   -0.21     40.67   
    48. D(O   8,H   7,H   3,C   0)    -81.47  0.000068   -0.23    -81.71   
    49. D(H   9,O   8,H   7,H   3)    -86.71 -0.000087   -0.09    -86.80   
    50. D(H   9,O   8,H   3,H   7)    104.09 -0.000271    0.29    104.39   
    51. D(H   9,O   8,H   3,C   0)   -102.40 -0.000133    0.22   -102.18   
    52. D(H   7,O   8,H   3,H   9)   -104.09  0.000271   -0.29   -104.39   
    53. D(H   7,O   8,H   3,C   0)    153.51  0.000137   -0.07    153.44   
    54. D(H   3,H   9,O   8,H   7)     89.33 -0.000010    0.09     89.43   
    55. D(O   8,H   9,H   3,H   7)    -39.97 -0.000403    0.29    -39.68   
    56. D(O   8,H   9,H   3,C   0)    120.36 -0.000466    0.34    120.70   
    ----------------------------------------------------------------------------

         *************************************************************
         *                GEOMETRY OPTIMIZATION CYCLE   2            *
         *************************************************************
---------------------------------
CARTESIAN COORDINATES (ANGSTROEM)
---------------------------------
  C      0.508086   -0.782996    0.496314
  H      0.321299   -0.162427   -0.377051
  H      0.112097   -0.288144    1.378541
  H      1.591090   -0.892455    0.618117
  N     -0.096316   -2.105655    0.325184
  O     -0.496461   -2.694139    1.321129
  O     -0.093552   -2.601518   -0.794017
  H      3.912247   -1.575941    1.136356
  O      3.469245   -1.139681    1.876402
  H      3.627502   -0.197343    1.729140

----------------------------
CARTESIAN COORDINATES (A.U.)
----------------------------
  NO LB      ZA    FRAG     MASS         X           Y           Z
   0 C     6.0000    0    12.011    0.960143   -1.479649    0.937897
   1 H     1.0000    0     1.008    0.607167   -0.306942   -0.712522
   2 H     1.0000    0     1.008    0.211833   -0.544513    2.605065
   3 H     1.0000    0     1.008    3.006724   -1.686495    1.168072
   4 N     7.0000    0    14.007   -0.182011   -3.979112    0.614508
   5 O     8.0000    0    15.999   -0.938176   -5.091185    2.496572
   6 O     8.0000    0    15.999   -0.176788   -4.916157   -1.500476
   7 H     1.0000    0     1.008    7.393075   -2.978097    2.147402
   8 O     8.0000    0    15.999    6.555923   -2.153684    3.545887
   9 H     1.0000    0     1.008    6.854986   -0.372925    3.267600

--------------------------------
INTERNAL COORDINATES (ANGSTROEM)
--------------------------------
 C      0   0   0     0.000000000000     0.00000000     0.00000000
 H      1   0   0     1.087548230323     0.00000000     0.00000000
 H      1   2   0     1.086283137297   109.24785383     0.00000000
 H      1   2   3     1.095314751090   108.43006026   242.04551539
 N      1   2   3     1.464245349393   110.52939572   122.23152795
 O      5   1   2     1.224065471630   118.30189945   211.19626835
 O      5   1   2     1.224131860732   118.15294461    35.98180844
 H      4   1   2     2.474569552030   168.05658853   205.24053478
 O      8   4   1     0.966561832237    66.78191668   278.29567766
 H      9   8   4     0.966815343301   104.37578340   273.19964709

---------------------------
INTERNAL COORDINATES (A.U.)
---------------------------
 C      0   0   0     0.000000000000     0.00000000     0.00000000
 H      1   0   0     2.055168312742     0.00000000     0.00000000
 H      1   2   0     2.052777633389   109.24785383     0.00000000
 H      1   2   3     2.069844910005   108.43006026   242.04551539
 N      1   2   3     2.767022703221   110.52939572   122.23152795
 O      5   1   2     2.313148511370   118.30189945   211.19626835
 O      5   1   2     2.313273968592   118.15294461    35.98180844
 H      4   1   2     4.676258752676   168.05658853   205.24053478
 O      8   4   1     1.826537154429    66.78191668   278.29567766
 H      9   8   4     1.827016220912   104.37578340   273.19964709



           ************************************************************
           *        Program running with 102 parallel MPI-processes   *
           *              working on a common directory               *
           ************************************************************
------------------------------------------------------------------------------
                   ___                                                        
                  /   \      - P O W E R E D   B Y -                         
                 /     \                                                     
                 |  |  |   _    _      __       _____    __    __             
                 |  |  |  | |  | |    /  \     |  _  \  |  |  /  |          
                  \  \/   | |  | |   /    \    | | | |  |  | /  /          
                 / \  \   | |__| |  /  /\  \   | |_| |  |  |/  /          
                |  |  |   |  __  | /  /__\  \  |    /   |      \           
                |  |  |   | |  | | |   __   |  |    \   |  |\   \          
                \     /   | |  | | |  |  |  |  | |\  \  |  | \   \       
                 \___/    |_|  |_| |__|  |__|  |_| \__\ |__|  \__/        
                                                                              
                      - O R C A' S   B I G   F R I E N D -                    
                                      &                                       
                       - I N T E G R A L  F E E D E R -                       
                                                                              
 v1 FN, 2020, v2 2021                                                         
------------------------------------------------------------------------------


Reading SHARK input file /home/rudenko/mop_saddle_orca_4_serv/for_orca/CH3NO2_H2O_near/orca/orca_end/end.SHARKINP.tmp ... ok
----------------------
SHARK INTEGRAL PACKAGE
----------------------

Number of atoms                             ...     10
Number of basis functions                   ...    185
Number of shells                            ...     75
Maximum angular momentum                    ...      3
Integral batch strategy                     ... SHARK/LIBINT Hybrid
RI-J (if used) integral strategy            ... SPLIT-RIJ (Revised 2003 algorithm where possible)
Printlevel                                  ...      1
Contraction scheme used                     ... SEGMENTED contraction
Coulomb Range Separation                    ... NOT USED
Exchange Range Separation                   ... NOT USED
Finite Nucleus Model                        ... NOT USED
Auxiliary Coulomb fitting basis             ... AVAILABLE
   # of basis functions in Aux-J            ...    300
   # of shells in Aux-J                     ...    100
   Maximum angular momentum in Aux-J        ...      4
Auxiliary J/K fitting basis                 ... NOT available
Auxiliary Correlation fitting basis         ... NOT available
Auxiliary 'external' fitting basis          ... NOT available
Integral threshold                          ...     2.500000e-11
Primitive cut-off                           ...     2.500000e-12
Primitive pair pre-selection threshold      ...     2.500000e-12

Calculating pre-screening integrals         ... done (  0.0 sec) Dimension = 75
Organizing shell pair data                  ... done (  0.1 sec)
Shell pair information
Total number of shell pairs                 ...      2850
Shell pairs after pre-screening             ...      2545
Total number of primitive shell pairs       ...      8640
Primitive shell pairs kept                  ...      5930
          la=0 lb=0:    719 shell pairs
          la=1 lb=0:    729 shell pairs
          la=1 lb=1:    200 shell pairs
          la=2 lb=0:    348 shell pairs
          la=2 lb=1:    182 shell pairs
          la=2 lb=2:     48 shell pairs
          la=3 lb=0:    174 shell pairs
          la=3 lb=1:     90 shell pairs
          la=3 lb=2:     42 shell pairs
          la=3 lb=3:     13 shell pairs

Calculating one electron integrals          ... done (  0.0 sec)
Calculating RI/J V-Matrix + Cholesky decomp.... done (  0.0 sec)
[...]
  67   0.0000       1.381364        37.5888 
  68   0.0000       1.462345        39.7924 
  69   0.0000       1.496108        40.7112 
  70   0.0000       1.520408        41.3724 
  71   0.0000       1.545257        42.0486 
  72   0.0000       1.563681        42.5499 
  73   0.0000       1.580441        43.0060 
  74   0.0000       1.612955        43.8907 
  75   0.0000       1.629560        44.3426 
  76   0.0000       1.653711        44.9998 
  77   0.0000       1.676067        45.6081 
  78   0.0000       1.735937        47.2372 
  79   0.0000       1.762581        47.9623 
  80   0.0000       1.766851        48.0785 
  81   0.0000       1.893870        51.5348 
  82   0.0000       1.908215        51.9252 
  83   0.0000       1.935891        52.6783 
  84   0.0000       1.960227        53.3405 
  85   0.0000       2.015526        54.8453 
  86   0.0000       2.025849        55.1261 
  87   0.0000       2.041031        55.5393 
  88   0.0000       2.101083        57.1734 
  89   0.0000       2.117323        57.6153 
  90   0.0000       2.168236        59.0007 
  91   0.0000       2.169485        59.0347 
  92   0.0000       2.199777        59.8590 
  93   0.0000       2.230751        60.7018 
  94   0.0000       2.278200        61.9930 
  95   0.0000       2.293367        62.4057 
  96   0.0000       2.324135        63.2429 
  97   0.0000       2.357571        64.1528 
  98   0.0000       2.399690        65.2989 
  99   0.0000       2.503001        68.1101 
 100   0.0000       2.547137        69.3111 
 101   0.0000       2.566208        69.8301 
 102   0.0000       2.574277        70.0496 
 103   0.0000       2.584203        70.3198 
 104   0.0000       2.594818        70.6086 
 105   0.0000       2.616925        71.2101 
 106   0.0000       2.645043        71.9753 
 107   0.0000       2.698026        73.4170 
 108   0.0000       2.707709        73.6805 
 109   0.0000       2.723950        74.1225 
 110   0.0000       2.880307        78.3771 
 111   0.0000       2.897821        78.8537 
 112   0.0000       2.933620        79.8279 
 113   0.0000       2.994661        81.4889 
 114   0.0000       3.005299        81.7784 
 115   0.0000       3.043062        82.8059 
 116   0.0000       3.141130        85.4745 
 117   0.0000       3.210170        87.3532 
 118   0.0000       3.226654        87.8017 
 119   0.0000       3.359226        91.4092 
 120   0.0000       3.406119        92.6852 
 121   0.0000       3.448970        93.8513 
 122   0.0000       3.489636        94.9578 
 123   0.0000       3.550402        96.6114 
 124   0.0000       3.646190        99.2179 
 125   0.0000       3.729182       101.4762 
 126   0.0000       3.751178       102.0748 
 127   0.0000       3.918625       106.6312 
 128   0.0000       3.987502       108.5054 
 129   0.0000       4.014777       109.2476 
 130   0.0000       4.074242       110.8658 
 131   0.0000       4.153533       113.0234 
 132   0.0000       4.255678       115.8029 
 133   0.0000       4.399789       119.7243 
 134   0.0000       4.537644       123.4756 
 135   0.0000       4.542274       123.6016 
 136   0.0000       4.620817       125.7388 
 137   0.0000       4.659860       126.8012 
 138   0.0000       4.747722       129.1921 
 139   0.0000       4.806926       130.8031 
 140   0.0000       4.879513       132.7783 
 141   0.0000       5.056340       137.5900 
 142   0.0000       5.075891       138.1220 
 143   0.0000       5.095475       138.6549 
 144   0.0000       5.112270       139.1119 
 145   0.0000       5.127358       139.5225 
 146   0.0000       5.131021       139.6222 
 147   0.0000       5.199026       141.4727 
 148   0.0000       5.277626       143.6115 
 149   0.0000       5.288356       143.9035 
 150   0.0000       5.293917       144.0548 
 151   0.0000       5.373655       146.2246 
 152   0.0000       5.396619       146.8495 
 153   0.0000       5.453810       148.4057 
 154   0.0000       5.554714       151.1515 
 155   0.0000       5.600368       152.3938 
 156   0.0000       5.673986       154.3970 
 157   0.0000       5.921933       161.1440 
 158   0.0000       6.012082       163.5971 
 159   0.0000       6.207368       168.9111 
 160   0.0000       6.220399       169.2657 
 161   0.0000       6.261185       170.3755 
 162   0.0000       6.307254       171.6291 
 163   0.0000       6.310049       171.7052 
 164   0.0000       6.327178       172.1713 
 165   0.0000       6.338409       172.4769 
 166   0.0000       6.360811       173.0865 
 167   0.0000       6.399521       174.1398 
 168   0.0000       6.416765       174.6091 
 169   0.0000       6.625086       180.2778 
 170   0.0000       6.836129       186.0205 
 171   0.0000       6.856017       186.5617 
 172   0.0000       6.894777       187.6164 
 173   0.0000       6.910461       188.0432 
 174   0.0000       6.991830       190.2574 
 175   0.0000       7.066655       192.2935 
 176   0.0000       7.207721       196.1321 
 177   0.0000       7.239056       196.9847 
 178   0.0000       7.288318       198.3252 
 179   0.0000       7.368133       200.4971 
 180   0.0000      22.304968       606.9490 
 181   0.0000      32.289348       878.6378 
 182   0.0000      43.267861      1177.3783 
 183   0.0000      43.878491      1193.9944 
 184   0.0000      43.910050      1194.8532 

                    ********************************
                    * MULLIKEN POPULATION ANALYSIS *
                    ********************************

-----------------------
MULLIKEN ATOMIC CHARGES
-----------------------
   0 C :   -0.230683
   1 H :    0.164846
   2 H :    0.167001
   3 H :    0.143658
   4 N :    0.422703
   5 O :   -0.349226
   6 O :   -0.350021
   7 H :    0.363492
   8 O :   -0.695651
   9 H :    0.363881
Sum of atomic charges:   -0.0000000

--------------------------------
MULLIKEN REDUCED ORBITAL CHARGES
--------------------------------
  0 C s       :     3.278334  s :     3.278334
      pz      :     1.101093  p :     2.898204
      px      :     1.046155
      py      :     0.750957
      dz2     :     0.008396  d :     0.048957
      dxz     :     0.003979
      dyz     :     0.013195
      dx2y2   :     0.012430
      dxy     :     0.010957
      f0      :     0.000379  f :     0.005187
      f+1     :     0.000558
      f-1     :     0.001345
      f+2     :     0.000392
      f-2     :     0.000378
      f+3     :     0.001269
      f-3     :     0.000867
  1 H s       :     0.813695  s :     0.813695
      pz      :     0.010711  p :     0.021459
      px      :     0.004428
      py      :     0.006320
  2 H s       :     0.811456  s :     0.811456
      pz      :     0.010572  p :     0.021543
      px      :     0.005640
      py      :     0.005331
  3 H s       :     0.832620  s :     0.832620
      pz      :     0.004743  p :     0.023721
      px      :     0.015596
      py      :     0.003382
  4 N s       :     3.319898  s :     3.319898
      pz      :     0.858305  p :     3.004611
      px      :     1.077887
      py      :     1.068419
      dz2     :     0.073348  d :     0.238398
      dxz     :     0.061964
      dyz     :     0.063665
      dx2y2   :     0.020964
      dxy     :     0.018457
      f0      :     0.004201  f :     0.014391
      f+1     :     0.001886
      f-1     :     0.002501
      f+2     :     0.002422
      f-2     :     0.002265
      f+3     :     0.000519
      f-3     :     0.000597
  5 O s       :     3.876233  s :     3.876233
      pz      :     1.360155  p :     4.428635
      px      :     1.440263
      py      :     1.628217
      dz2     :     0.011050  d :     0.041093
      dxz     :     0.009492
      dyz     :     0.013406
      dx2y2   :     0.003526
      dxy     :     0.003619
      f0      :     0.000595  f :     0.003265
      f+1     :     0.000475
      f-1     :     0.001053
      f+2     :     0.000512
      f-2     :     0.000533
      f+3     :     0.000042
      f-3     :     0.000055
  6 O s       :     3.877346  s :     3.877346
      pz      :     1.243625  p :     4.428271
      px      :     1.468898
      py      :     1.715748
      dz2     :     0.015133  d :     0.041138
      dxz     :     0.010480
      dyz     :     0.012118
      dx2y2   :     0.001637
      dxy     :     0.001770
      f0      :     0.000968  f :     0.003266
      f+1     :     0.000659
      f-1     :     0.001077
      f+2     :     0.000264
      f-2     :     0.000288
      f+3     :     0.000006
      f-3     :     0.000005
  7 H s       :     0.590793  s :     0.590793
      pz      :     0.016985  p :     0.045715
      px      :     0.016354
      py      :     0.012375
  8 O s       :     3.808102  s :     3.808102
      pz      :     1.677487  p :     4.866627
      px      :     1.834715
      py      :     1.354425
      dz2     :     0.003903  d :     0.019628
      dxz     :     0.004890
      dyz     :     0.004630
      dx2y2   :     0.003480
      dxy     :     0.002725
      f0      :     0.000047  f :     0.001294
      f+1     :     0.000193
      f-1     :     0.000239
      f+2     :     0.000091
      f-2     :     0.000254
      f+3     :     0.000181
      f-3     :     0.000289
  9 H s       :     0.590457  s :     0.590457
      pz      :     0.012323  p :     0.045662
      px      :     0.014635
      py      :     0.018704


                     *******************************
                     * LOEWDIN POPULATION ANALYSIS *
                     *******************************

----------------------
LOEWDIN ATOMIC CHARGES
----------------------
   0 C :   -0.235920
   1 H :    0.132522
   2 H :    0.134834
   3 H :    0.134206
   4 N :   -0.067014
   5 O :   -0.062000
   6 O :   -0.061610
   7 H :    0.174504
   8 O :   -0.323874
   9 H :    0.174351

-------------------------------
LOEWDIN REDUCED ORBITAL CHARGES
-------------------------------
  0 C s       :     2.871056  s :     2.871056
      pz      :     1.117705  p :     3.082012
      px      :     1.082774
      py      :     0.881533
      dz2     :     0.045472  d :     0.249319
      dxz     :     0.017576
      dyz     :     0.064881
      dx2y2   :     0.070758
      dxy     :     0.050631
      f0      :     0.002628  f :     0.033533
      f+1     :     0.003868
      f-1     :     0.005901
      f+2     :     0.001974
      f-2     :     0.004131
      f+3     :     0.008661
      f-3     :     0.006369
  1 H s       :     0.803084  s :     0.803084
      pz      :     0.032740  p :     0.064394
      px      :     0.014218
      py      :     0.017436
  2 H s       :     0.800704  s :     0.800704
      pz      :     0.032060  p :     0.064462
      px      :     0.017681
      py      :     0.014722
  3 H s       :     0.797495  s :     0.797495
      pz      :     0.014481  p :     0.068299
      px      :     0.043370
      py      :     0.010448
  4 N s       :     2.952554  s :     2.952554
      pz      :     1.110210  p :     3.292304
      px      :     1.025963
      py      :     1.156131
      dz2     :     0.253269  d :     0.749459
      dxz     :     0.166460
      dyz     :     0.213519
      dx2y2   :     0.061208
      dxy     :     0.055002
      f0      :     0.023145  f :     0.072697
      f+1     :     0.006318
      f-1     :     0.012555
      f+2     :     0.014005
      f-2     :     0.013261
      f+3     :     0.001641
      f-3     :     0.001770
  5 O s       :     3.504445  s :     3.504445
      pz      :     1.449318  p :     4.447864
      px      :     1.400354
      py      :     1.598192
      dz2     :     0.029233  d :     0.098668
      dxz     :     0.019519
      dyz     :     0.034531
      dx2y2   :     0.007654
      dxy     :     0.007732
      f0      :     0.002263  f :     0.011022
      f+1     :     0.001517
      f-1     :     0.003540
      f+2     :     0.001602
      f-2     :     0.001652
      f+3     :     0.000243
      f-3     :     0.000204
  6 O s       :     3.504710  s :     3.504710
      pz      :     1.376895  p :     4.447211
      px      :     1.417501
      py      :     1.652815
      dz2     :     0.039852  d :     0.098671
      dxz     :     0.020278
      dyz     :     0.031604
      dx2y2   :     0.003632
      dxy     :     0.003304
      f0      :     0.003593  f :     0.011019
      f+1     :     0.001916
      f-1     :     0.003730
      f+2     :     0.000883
      f-2     :     0.000798
      f+3     :     0.000052
      f-3     :     0.000046
  7 H s       :     0.665996  s :     0.665996
      pz      :     0.067806  p :     0.159500
      px      :     0.053109
      py      :     0.038586
  8 O s       :     3.460391  s :     3.460391
      pz      :     1.673895  p :     4.832254
      px      :     1.797422
      py      :     1.360937
      dz2     :     0.005001  d :     0.028900
      dxz     :     0.005297
      dyz     :     0.007794
      dx2y2   :     0.006575
      dxy     :     0.004234
      f0      :     0.000092  f :     0.002329
      f+1     :     0.000318
      f-1     :     0.000515
      f+2     :     0.000129
      f-2     :     0.000580
      f+3     :     0.000253
      f-3     :     0.000441
  9 H s       :     0.666236  s :     0.666236
      pz      :     0.038426  p :     0.159413
      px      :     0.044456
      py      :     0.076532


                      *****************************
                      * MAYER POPULATION ANALYSIS *
                      *****************************

  NA   - Mulliken gross atomic population
  ZA   - Total nuclear charge
  QA   - Mulliken gross atomic charge
  VA   - Mayer's total valence
  BVA  - Mayer's bonded valence
  FA   - Mayer's free valence

  ATOM       NA         ZA         QA         VA         BVA        FA
  0 C      6.2307     6.0000    -0.2307     3.7175     3.7175    -0.0000
  1 H      0.8352     1.0000     0.1648     0.9681     0.9681     0.0000
  2 H      0.8330     1.0000     0.1670     0.9689     0.9689     0.0000
  3 H      0.8563     1.0000     0.1437     1.0438     1.0438    -0.0000
  4 N      6.5773     7.0000     0.4227     4.1167     4.1167     0.0000
  5 O      8.3492     8.0000    -0.3492     1.8874     1.8874    -0.0000
  6 O      8.3500     8.0000    -0.3500     1.8895     1.8895    -0.0000
  7 H      0.6365     1.0000     0.3635     0.8827     0.8827     0.0000
  8 O      8.6957     8.0000    -0.6957     1.8155     1.8155    -0.0000
  9 H      0.6361     1.0000     0.3639     0.8825     0.8825     0.0000

  Mayer bond orders larger than 0.100000
B(  0-C ,  1-H ) :   0.9501 B(  0-C ,  2-H ) :   0.9497 B(  0-C ,  3-H ) :   0.9198 
B(  0-C ,  4-N ) :   0.8769 B(  4-N ,  5-O ) :   1.6156 B(  4-N ,  6-O ) :   1.6166 
B(  5-O ,  6-O ) :   0.2087 B(  7-H ,  8-O ) :   0.8775 B(  8-O ,  9-H ) :   0.8771 


-------
TIMINGS
-------

Total SCF time: 0 days 0 hours 0 min 4 sec 

Total time                  ....       4.464 sec
Sum of individual times     ....       4.004 sec  ( 89.7%)

Fock matrix formation       ....       3.016 sec  ( 67.6%)
  Split-RI-J                ....       0.603 sec  ( 20.0% of F)
  Chain of spheres X        ....       0.963 sec  ( 31.9% of F)
  XC integration            ....       0.391 sec  ( 13.0% of F)
    Basis function eval.    ....       0.018 sec  (  4.6% of XC)
    Density eval.           ....       0.029 sec  (  7.4% of XC)
    XC-Functional eval.     ....       0.003 sec  (  0.9% of XC)
    XC-Potential eval.      ....       0.019 sec  (  4.8% of XC)
Diagonalization             ....       0.027 sec  (  0.6%)
Density matrix formation    ....       0.040 sec  (  0.9%)
Population analysis         ....       0.037 sec  (  0.8%)
Initial guess               ....       0.034 sec  (  0.8%)
Orbital Transformation      ....       0.000 sec  (  0.0%)
Orbital Orthonormalization  ....       0.019 sec  (  0.4%)
DIIS solution               ....       0.021 sec  (  0.5%)
SOSCF solution              ....       0.159 sec  (  3.6%)
Grid generation             ....       0.672 sec  ( 15.1%)

Maximum memory used throughout the entire SCF-calculation: 65.1 MB


-------------------------------------------------------------------------------
                          DFT DISPERSION CORRECTION                            
                                                                               
                              DFTD3 V3.1  Rev 1                                
                          USING Becke-Johnson damping                          
-------------------------------------------------------------------------------
The B3LYP functional is recognized
Active option DFTDOPT                   ...         4   

molecular C6(AA) [au] = 741.704699 


            DFT-D V3
 parameters
 s6 scaling factor         :     1.0000 
 a1 scaling factor         :     0.3981 
 s8 scaling factor         :     1.9889 
 a2 scaling factor         :     4.4211 
 ad hoc parameters k1-k3   :    16.0000     1.3333    -4.0000 

 Edisp/kcal,au: -4.796466471722  -0.007643655050 
 E6   /kcal   :  -2.442356354 
 E8   /kcal   :  -2.354110118 
 % E8         :  49.080091184 

-------------------------   ----------------
Dispersion correction           -0.007643655
-------------------------   ----------------


-------------------------   --------------------
FINAL SINGLE POINT ENERGY      -321.457645635002
-------------------------   --------------------

                                *** OPTIMIZATION RUN DONE ***

                            ***************************************
                            *     ORCA property calculations      *
                            ***************************************

                                    ---------------------
                                    Active property flags
                                    ---------------------
   (+) Dipole Moment


------------------------------------------------------------------------------
                       ORCA ELECTRIC PROPERTIES CALCULATION
------------------------------------------------------------------------------

Dipole Moment Calculation                       ... on
Quadrupole Moment Calculation                   ... off
Polarizability Calculation                      ... off
GBWName                                         ... /home/rudenko/mop_saddle_orca_4_serv/for_orca/CH3NO2_H2O_near/orca/orca_end/end.gbw
Electron density                                ... /home/rudenko/mop_saddle_orca_4_serv/for_orca/CH3NO2_H2O_near/orca/orca_end/end.scfp
The origin for moment calculation is the CENTER OF MASS  = ( 1.466513, -3.452864  1.284056)

-------------
DIPOLE MOMENT
-------------
                                X             Y             Z
Electronic contribution:     -4.04619      -3.60189      -1.51029
Nuclear contribution   :      5.29375       5.58636       1.01933
                        -----------------------------------------
Total Dipole Moment    :      1.24756       1.98447      -0.49096
                        -----------------------------------------
Magnitude (a.u.)       :      2.39491
Magnitude (Debye)      :      6.08737



--------------------
Rotational spectrum 
--------------------
 
Rotational constants in cm-1:     0.251997     0.060524     0.057277 
Rotational constants in MHz :  7554.685313  1814.454299  1717.136111 

 Dipole components along the rotational axes: 
x,y,z [a.u.] :    -1.489714    -1.770992    -0.616371 
x,y,z [Debye]:    -3.786552    -4.501503    -1.566690 

 

Timings for individual modules:

Sum of individual times         ...      302.840 sec (=   5.047 min)
GTO integral calculation        ...       54.997 sec (=   0.917 min)  18.2 %
SCF iterations                  ...      164.213 sec (=   2.737 min)  54.2 %
SCF Gradient evaluation         ...       83.451 sec (=   1.391 min)  27.6 %
Geometry relaxation             ...        0.179 sec (=   0.003 min)   0.1 %
                             ****ORCA TERMINATED NORMALLY****
TOTAL RUN TIME: 0 days 0 hours 5 minutes 52 seconds 120 msec
