
                                 *****************
                                 * O   R   C   A *
                                 *****************

                                            #,                                       
                                            ###                                      
                                            ####                                     
                                            #####                                    
                                            ######                                   
                                           ########,                                 
                                     ,,################,,,,,                         
                               ,,#################################,,                 
                          ,,##########################################,,             
                       ,#########################################, ''#####,          
                    ,#############################################,,   '####,        
                  ,##################################################,,,,####,       
                ,###########''''           ''''###############################       
              ,#####''   ,,,,##########,,,,          '''####'''          '####       
            ,##' ,,,,###########################,,,                        '##       
           ' ,,###''''                  '''############,,,                           
         ,,##''                                '''############,,,,        ,,,,,,###''
      ,#''                                            '''#######################'''  
     '                                                          ''''####''''         
             ,#######,   #######,   ,#######,      ##                                
            ,#'     '#,  ##    ##  ,#'     '#,    #''#        ######   ,####,        
            ##       ##  ##   ,#'  ##            #'  '#       #        #'  '#        
            ##       ##  #######   ##           ,######,      #####,   #    #        
            '#,     ,#'  ##    ##  '#,     ,#' ,#      #,         ##   #,  ,#        
             '#######'   ##     ##  '#######'  #'      '#     #####' # '####'        



                  #######################################################
                  #                        -***-                        #
                  #          Department of theory and spectroscopy      #
                  #    Directorship and core code : Frank Neese         #
                  #        Max Planck Institute fuer Kohlenforschung    #
                  #                Kaiser Wilhelm Platz 1               #
                  #                 D-45470 Muelheim/Ruhr               #
                  #                      Germany                        #
                  #                                                     #
                  #                  All rights reserved                #
                  #                        -***-                        #
                  #######################################################


                         Program Version 5.0.4 -  RELEASE  -


 With contributions from (in alphabetic order):
   Daniel Aravena         : Magnetic Suceptibility
   Michael Atanasov       : Ab Initio Ligand Field Theory (pilot matlab implementation)
   Alexander A. Auer      : GIAO ZORA, VPT2 properties, NMR spectrum
   Ute Becker             : Parallelization
   Giovanni Bistoni       : ED, misc. LED, open-shell LED, HFLD
   Martin Brehm           : Molecular dynamics
   Dmytro Bykov           : SCF Hessian
   Vijay G. Chilkuri      : MRCI spin determinant printing, contributions to CSF-ICE
   Dipayan Datta          : RHF DLPNO-CCSD density
   Achintya Kumar Dutta   : EOM-CC, STEOM-CC
   Dmitry Ganyushin       : Spin-Orbit,Spin-Spin,Magnetic field MRCI
   Miquel Garcia          : C-PCM and meta-GGA Hessian, CC/C-PCM, Gaussian charge scheme
   Yang Guo               : DLPNO-NEVPT2, F12-NEVPT2, CIM, IAO-localization
   Andreas Hansen         : Spin unrestricted coupled pair/coupled cluster methods
   Benjamin Helmich-Paris : MC-RPA, TRAH-SCF, COSX integrals
   Lee Huntington         : MR-EOM, pCC
   Robert Izsak           : Overlap fitted RIJCOSX, COSX-SCS-MP3, EOM
   Marcus Kettner         : VPT2
   Christian Kollmar      : KDIIS, OOCD, Brueckner-CCSD(T), CCSD density, CASPT2, CASPT2-K
   Simone Kossmann        : Meta GGA functionals, TD-DFT gradient, OOMP2, MP2 Hessian
   Martin Krupicka        : Initial AUTO-CI
   Lucas Lang             : DCDCAS
   Marvin Lechner         : AUTO-CI (C++ implementation), FIC-MRCC
   Dagmar Lenk            : GEPOL surface, SMD
   Dimitrios Liakos       : Extrapolation schemes; Compound Job, initial MDCI parallelization
   Dimitrios Manganas     : Further ROCIS development; embedding schemes
   Dimitrios Pantazis     : SARC Basis sets
   Anastasios Papadopoulos: AUTO-CI, single reference methods and gradients
   Taras Petrenko         : DFT Hessian,TD-DFT gradient, ASA, ECA, R-Raman, ABS, FL, XAS/XES, NRVS
   Peter Pinski           : DLPNO-MP2, DLPNO-MP2 Gradient
   Christoph Reimann      : Effective Core Potentials
   Marius Retegan         : Local ZFS, SOC
   Christoph Riplinger    : Optimizer, TS searches, QM/MM, DLPNO-CCSD(T), (RO)-DLPNO pert. Triples
   Tobias Risthaus        : Range-separated hybrids, TD-DFT gradient, RPA, STAB
   Michael Roemelt        : Original ROCIS implementation
   Masaaki Saitow         : Open-shell DLPNO-CCSD energy and density
   Barbara Sandhoefer     : DKH picture change effects
   Avijit Sen             : IP-ROCIS
   Kantharuban Sivalingam : CASSCF convergence, NEVPT2, FIC-MRCI
   Bernardo de Souza      : ESD, SOC TD-DFT
   Georgi Stoychev        : AutoAux, RI-MP2 NMR, DLPNO-MP2 response
   Willem Van den Heuvel  : Paramagnetic NMR
   Boris Wezisla          : Elementary symmetry handling
   Frank Wennmohs         : Technical directorship


 We gratefully acknowledge several colleagues who have allowed us to
 interface, adapt or use parts of their codes:
   Stefan Grimme, W. Hujo, H. Kruse, P. Pracht,  : VdW corrections, initial TS optimization,
                  C. Bannwarth, S. Ehlert          DFT functionals, gCP, sTDA/sTD-DF
   Ed Valeev, F. Pavosevic, A. Kumar             : LibInt (2-el integral package), F12 methods
   Garnet Chan, S. Sharma, J. Yang, R. Olivares  : DMRG
   Ulf Ekstrom                                   : XCFun DFT Library
   Mihaly Kallay                                 : mrcc  (arbitrary order and MRCC methods)
   Jiri Pittner, Ondrej Demel                    : Mk-CCSD
   Frank Weinhold                                : gennbo (NPA and NBO analysis)
   Christopher J. Cramer and Donald G. Truhlar   : smd solvation model
   Lars Goerigk                                  : TD-DFT with DH, B97 family of functionals
   V. Asgeirsson, H. Jonsson                     : NEB implementation
   FAccTs GmbH                                   : IRC, NEB, NEB-TS, DLPNO-Multilevel, CI-OPT
                                                   MM, QMMM, 2- and 3-layer-ONIOM, Crystal-QMMM,
                                                   LR-CPCM, SF, NACMEs, symmetry and pop. for TD-DFT,
                                                   nearIR, NL-DFT gradient (VV10), updates on ESD,
                                                   ML-optimized integration grids
   S Lehtola, MJT Oliveira, MAL Marques          : LibXC Library
   Liviu Ungur et al                             : ANISO software


 Your calculation uses the libint2 library for the computation of 2-el integrals
 For citations please refer to: http://libint.valeyev.net

 Your ORCA version has been built with support for libXC version: 5.1.0
 For citations please refer to: https://tddft.org/programs/libxc/

 This ORCA versions uses:
   CBLAS   interface :  Fast vector & matrix operations
   LAPACKE interface :  Fast linear algebra routines
   SCALAPACK package :  Parallel linear algebra routines
   Shared memory     :  Shared parallel matrices
   BLAS/LAPACK       :  OpenBLAS 0.3.15  USE64BITINT DYNAMIC_ARCH NO_AFFINITY Prescott SINGLE_THREADED
        Core in use  :  Prescott
   Copyright (c) 2011-2014, The OpenBLAS Project


Your calculation utilizes the atom-pairwise dispersion correction
with the Becke-Johnson damping scheme (D3BJ)
Cite in your paper:
S.Grimme, S.Ehrlich, L.Goerigk, J Comput Chem, (2011), 32, 1456–1465 
S.Grimme, J.Antony, S.Ehrlich and H.Krieg, J.Chem.Phys., 132, (2010), 154104 
   

================================================================================

----- Orbital basis set information -----
Your calculation utilizes the basis: def2-TZVP
   F. Weigend and R. Ahlrichs, Phys. Chem. Chem. Phys. 7, 3297 (2005).

----- AuxJ basis set information -----
Your calculation utilizes the auxiliary basis: def2/J
   F. Weigend, Phys. Chem. Chem. Phys. 8, 1057 (2006).

================================================================================
                                        WARNINGS
                       Please study these warnings very carefully!
================================================================================

WARNING: Gradients needed for Numerical Frequencies
  ===> : Setting RunTyp to EnGrad

INFO   : the flag for use of the SHARK integral package has been found!

================================================================================
                                       INPUT FILE
================================================================================
NAME = /home/rudenko/mop_saddle_orca_4_serv/for_orca/c6h5chno2ch3_piperidine/orca/freq_D/f_D.inp
|  1> !  NUMFREQ B3LYP def2-TZVP CPCM D3 
|  2> %pal nprocs 102 end
|  3> %cpcm epsilon 78.4 end 
|  4> *xyz 0 1 
|  5> C   -1.6910213851371 2.49582877469083 -1.3121158048153
|  6> C   -1.33632020189334 1.16711027268318 -1.52485099161714
|  7> C   -2.15326813009062 0.13227273984686 -1.10713982767731
|  8> C   -3.3496079520723 0.44264698753263 -0.45214849024528
|  9> C   -3.70865269649955 1.7649019789986 -0.22945846056971
| 10> C   -2.8798210415074 2.79821029918309 -0.66020263283074
| 11> H   -1.03295139843352 3.28582412282602 -1.65015671599903
| 12> H   -0.41158653408903 0.94437428034829 -2.04717715403776
| 13> H   -4.00626012263254 -0.35032865845591 -0.11879366270081
| 14> H   -3.16247871417922 3.82900918097808 -0.48772969125236
| 15> C   -1.77035019126093 -1.30540565168547 -1.38008778875725
| 16> C   -1.96003282348806 -2.27008076331754 -0.23112352715423
| 17> H   -1.61642374158446 -3.25866915523664 -0.53871344359578
| 18> H   -2.99867789765122 -2.34012324955389 0.08584128252093
| 19> H   -1.38404063131498 -1.95809081537172 0.63596539043567
| 20> N   -2.62200890950566 -1.77285060916356 -2.58134736080646
| 21> O   -2.16887297706848 -1.5519675379187 -3.69354242355923
| 22> O   -3.69855399146092 -2.30294960664059 -2.37446400995338
| 23> N   1.1517929748801 0.08971840046217 0.83262358217679
| 24> C   1.88271655685675 -1.14429783825054 1.13762018609162
| 25> C   2.62117753761786 -1.01740962146695 2.46742771199155
| 26> C   3.55668336538745 0.19276472879784 2.45648463857306
| 27> C   2.79183143444531 1.45564721488639 2.06001206265705
| 28> C   2.05155904649716 1.24551581188392 0.74320181982756
| 29> H   1.45449168917282 2.12682720038571 0.49835208968663
| 30> H   2.79083471191827 1.11685251702074 -0.06639495605633
| 31> H   3.47078035647996 2.30683383757512 1.96483129105541
| 32> H   2.06534388138844 1.70293931525078 2.84107440935067
| 33> H   3.18122296439267 -1.93551062899404 2.66172694847851
| 34> H   1.88623310196243 -0.90862494872387 3.27178921596508
| 35> H   2.61916814141471 -1.37935167444451 0.3514125455232
| 36> H   -0.76312304803738 -1.35986221064887 -1.78916693955797 M = 2
| 37> H   0.69407544640302 -0.00604680032498 -0.06889398460493
| 38> H   1.17269098850131 -1.96858823647564 1.19697113391778
| 39> H   4.03365146586583 0.3195791582168 3.43152318858659
| 40> H   4.35854884169303 0.01875259264407 1.72962305965067
| 41> H   -4.63783679164907 1.9889773879637 0.27899423112801
| 42> H   2.00935028423305 -1.53111650703865 -1.70692152567994
| 43> H   2.05146817995985 -0.13529556722331 -2.35695101519186
| 44> O   1.5082682104858 -0.92801672123943 -2.26809438095398
| 45> *
| 46> 
| 47>                          ****END OF INPUT****
================================================================================

                     *******************************
                     * Energy+Gradient Calculation *
                     *******************************

---------------------------------
CARTESIAN COORDINATES (ANGSTROEM)
---------------------------------
  C     -1.691021    2.495829   -1.312116
  C     -1.336320    1.167110   -1.524851
  C     -2.153268    0.132273   -1.107140
  C     -3.349608    0.442647   -0.452148
  C     -3.708653    1.764902   -0.229458
  C     -2.879821    2.798210   -0.660203
  H     -1.032951    3.285824   -1.650157
  H     -0.411587    0.944374   -2.047177
  H     -4.006260   -0.350329   -0.118794
  H     -3.162479    3.829009   -0.487730
  C     -1.770350   -1.305406   -1.380088
  C     -1.960033   -2.270081   -0.231124
  H     -1.616424   -3.258669   -0.538713
  H     -2.998678   -2.340123    0.085841
  H     -1.384041   -1.958091    0.635965
  N     -2.622009   -1.772851   -2.581347
  O     -2.168873   -1.551968   -3.693542
  O     -3.698554   -2.302950   -2.374464
  N      1.151793    0.089718    0.832624
  C      1.882717   -1.144298    1.137620
  C      2.621178   -1.017410    2.467428
  C      3.556683    0.192765    2.456485
  C      2.791831    1.455647    2.060012
  C      2.051559    1.245516    0.743202
  H      1.454492    2.126827    0.498352
  H      2.790835    1.116853   -0.066395
  H      3.470780    2.306834    1.964831
  H      2.065344    1.702939    2.841074
  H      3.181223   -1.935511    2.661727
  H      1.886233   -0.908625    3.271789
  H      2.619168   -1.379352    0.351413
  H     -0.763123   -1.359862   -1.789167
  H      0.694075   -0.006047   -0.068894
  H      1.172691   -1.968588    1.196971
  H      4.033651    0.319579    3.431523
  H      4.358549    0.018753    1.729623
  H     -4.637837    1.988977    0.278994
  H      2.009350   -1.531117   -1.706922
  H      2.051468   -0.135296   -2.356951
  O      1.508268   -0.928017   -2.268094

----------------------------
CARTESIAN COORDINATES (A.U.)
----------------------------
  NO LB      ZA    FRAG     MASS         X           Y           Z
   0 C     6.0000    0    12.011   -3.195567    4.716433   -2.479540
   1 C     6.0000    0    12.011   -2.525279    2.205519   -2.881551
   2 C     6.0000    0    12.011   -4.069087    0.249959   -2.092191
   3 C     6.0000    0    12.011   -6.329842    0.836482   -0.854437
   4 C     6.0000    0    12.011   -7.008338    3.335181   -0.433614
   5 C     6.0000    0    12.011   -5.442073    5.287851   -1.247602
   6 H     1.0000    0     1.008   -1.951995    6.209308   -3.118344
   7 H     1.0000    0     1.008   -0.777786    1.784609   -3.868604
   8 H     1.0000    0     1.008   -7.570734   -0.662025   -0.224487
   9 H     1.0000    0     1.008   -5.976219    7.235779   -0.921676
  10 C     6.0000    0    12.011   -3.345477   -2.466859   -2.607988
  11 C     6.0000    0    12.011   -3.703925   -4.289831   -0.436760
  12 H     1.0000    0     1.008   -3.054598   -6.157992   -1.018021
  13 H     1.0000    0     1.008   -5.666680   -4.422192    0.162217
  14 H     1.0000    0     1.008   -2.615458   -3.700255    1.201800
  15 N     7.0000    0    14.007   -4.954879   -3.350202   -4.878040
  16 O     8.0000    0    15.999   -4.098576   -2.932794   -6.979784
  17 O     8.0000    0    15.999   -6.989254   -4.351944   -4.487087
  18 N     7.0000    0    14.007    2.176573    0.169543    1.573431
  19 C     6.0000    0    12.011    3.557819   -2.162410    2.149791
  20 C     6.0000    0    12.011    4.953308   -1.922626    4.662763
  21 C     6.0000    0    12.011    6.721158    0.364273    4.642083
  22 C     6.0000    0    12.011    5.275797    2.750775    3.892859
  23 C     6.0000    0    12.011    3.876885    2.353684    1.404448
  24 H     1.0000    0     1.008    2.748591    4.019121    0.941749
  25 H     1.0000    0     1.008    5.273913    2.110545   -0.125468
  26 H     1.0000    0     1.008    6.558824    4.359284    3.712993
  27 H     1.0000    0     1.008    3.902934    3.218089    5.368853
  28 H     1.0000    0     1.008    6.011640   -3.657585    5.029935
  29 H     1.0000    0     1.008    3.564464   -1.717052    6.182786
  30 H     1.0000    0     1.008    4.949510   -2.606597    0.664073
  31 H     1.0000    0     2.000   -1.442094   -2.569767   -3.381036
  32 H     1.0000    0     1.008    1.311613   -0.011427   -0.130191
  33 H     1.0000    0     1.008    2.216065   -3.720093    2.261948
  34 H     1.0000    0     1.008    7.622497    0.603917    6.484639
  35 H     1.0000    0     1.008    8.236464    0.035437    3.268514
  36 H     1.0000    0     1.008   -8.764241    3.758623    0.527223
  37 H     1.0000    0     1.008    3.797122   -2.893391   -3.225614
  38 H     1.0000    0     1.008    3.876713   -0.255672   -4.453992
  39 O     8.0000    0    15.999    2.850214   -1.753697   -4.286077

--------------------------------
INTERNAL COORDINATES (ANGSTROEM)
--------------------------------
 C      0   0   0     0.000000000000     0.00000000     0.00000000
 C      1   0   0     1.391604127141     0.00000000     0.00000000
 C      2   1   0     1.383031183030   121.17780519     0.00000000
 C      3   2   1     1.398776177734   118.72501397   359.54355819
 C      4   3   2     1.388114635134   120.51115408     0.12767492
 C      1   2   3     1.389125621802   119.84873983     0.51028645
 H      1   2   3     1.082321770597   119.61718904   180.04275727
 H      2   1   3     1.085158190588   119.12842369   178.67203635
 H      4   3   2     1.082186624053   120.04091778   179.82166771
 H      6   1   2     1.082676595391   120.35997977   179.81908900
 C      3   2   1     1.512628802719   120.47296580   178.32371563
 C     11   3   2     1.512182676270   115.94245699   136.16473553
 H     12  11   3     1.090864687530   108.92754645   182.07379479
 H     12  11   3     1.088189427689   112.46386451    61.21383556
 H     12  11   3     1.086714278949   110.89246952   301.47780971
 N     11   3   2     1.544943986064   106.75788335   258.04451764
 O     16  11   3     1.221105794778   116.67310683    87.11511926
 O     16  11   3     1.217684270026   119.14184010   268.70563155
 N     15  12  11     3.265371205107   129.77039012   341.22045487
 C     19  15  12     1.466311115860    82.63777514   249.21247163
 C     20  19  15     1.526372593964   110.63537541   235.51662172
 C     21  20  19     1.529644685110   110.81923658   303.88551983
 C     22  21  20     1.528744960217   110.45254110    53.28936943
 C     19  15  12     1.467461376481   165.11103861    54.11966618
 H     24  19  20     1.092314324284   108.29938731   179.04197317
 H     24  19  20     1.103870324110   111.31655524    61.43640828
 H     23  22  21     1.092954566603   110.80219409   184.97404427
 H     23  22  21     1.094986729176   109.48216020    66.74633251
 H     21  20  19     1.092846070301   109.45030966   181.59374839
 H     21  20  19     1.094977103687   108.87625200    64.63018593
 H     20  19  15     1.102603145468   111.34830091   114.88603753
 H     11   3   2     1.088493356195   110.46366967     7.82173863
 H     19  15  12     1.015583690679    62.44510196     5.48690296
 H     20  19  15     1.089547384620   108.85526328   355.65086027
 H     22  21  20     1.092831479413   110.63113282   176.24540299
 H     22  21  20     1.096173444548   109.05857748   293.55385124
 H      5   4   3     1.082643529180   119.63589732   180.00476442
 H     31  20  19     2.152126746273   120.51374898   305.47563119
 H     38  31  20     1.540333843815   109.38799847    86.99793005
 O     38  31  20     0.964223817253   131.28273508    51.78904619

---------------------------
INTERNAL COORDINATES (A.U.)
---------------------------
 C      0   0   0     0.000000000000     0.00000000     0.00000000
 C      1   0   0     2.629750687131     0.00000000     0.00000000
 C      2   1   0     2.613550170599   121.17780519     0.00000000
 C      3   2   1     2.643303898571   118.72501397   359.54355819
 C      4   3   2     2.623156502892   120.51115408     0.12767492
 C      1   2   3     2.625066990819   119.84873983     0.51028645
 H      1   2   3     2.045291735210   119.61718904   180.04275727
 H      2   1   3     2.050651792194   119.12842369   178.67203635
 H      4   3   2     2.045036345253   120.04091778   179.82166771
 H      6   1   2     2.045962256895   120.35997977   179.81908900
 C      3   2   1     2.858454179420   120.47296580   178.32371563
 C     11   3   2     2.857611122611   115.94245699   136.16473553
 H     12  11   3     2.061435508598   108.92754645   182.07379479
 H     12  11   3     2.056380000161   112.46386451    61.21383556
 H     12  11   3     2.053592373035   110.89246952   301.47780971
 N     11   3   2     2.919521025909   106.75788335   258.04451764
 O     16  11   3     2.307555532674   116.67310683    87.11511926
 O     16  11   3     2.301089787933   119.14184010   268.70563155
 N     15  12  11     6.170657303244   129.77039012   341.22045487
 C     19  15  12     2.770926436101    82.63777514   249.21247163
 C     20  19  15     2.884426180915   110.63537541   235.51662172
 C     21  20  19     2.890609537066   110.81923658   303.88551983
 C     22  21  20     2.888909303422   110.45254110    53.28936943
 C     19  15  12     2.773100113657   165.11103861    54.11966618
 H     24  19  20     2.064174925055   108.29938731   179.04197317
 H     24  19  20     2.086012599931   111.31655524    61.43640828
 H     23  22  21     2.065384807699   110.80219409   184.97404427
 H     23  22  21     2.069225038421   109.48216020    66.74633251
 H     21  20  19     2.065179779402   109.45030966   181.59374839
 H     21  20  19     2.069206848883   108.87625200    64.63018593
 H     20  19  15     2.083617979334   111.34830091   114.88603753
 H     11   3   2     2.056954341801   110.46366967     7.82173863
 H     19  15  12     1.919175041460    62.44510196     5.48690296
 H     20  19  15     2.058946166862   108.85526328   355.65086027
 H     22  21  20     2.065152206618   110.63113282   176.24540299
 H     22  21  20     2.071467605474   109.05857748   293.55385124
 H      5   4   3     2.045899770813   119.63589732   180.00476442
 H     31  20  19     4.066930155944   120.51374898   305.47563119
 H     38  31  20     2.910809119621   109.38799847    86.99793005
 O     38  31  20     1.822118946413   131.28273508    51.78904619

---------------------
BASIS SET INFORMATION
---------------------
There are 4 groups of distinct atoms

 Group   1 Type C   : 11s6p2d1f contracted to 5s3p2d1f pattern {62111/411/11/1}
 Group   2 Type H   : 5s1p contracted to 3s1p pattern {311/1}
 Group   3 Type N   : 11s6p2d1f contracted to 5s3p2d1f pattern {62111/411/11/1}
 Group   4 Type O   : 11s6p2d1f contracted to 5s3p2d1f pattern {62111/411/11/1}

Atom   0C    basis set group =>   1
Atom   1C    basis set group =>   1
Atom   2C    basis set group =>   1
Atom   3C    basis set group =>   1
Atom   4C    basis set group =>   1
Atom   5C    basis set group =>   1
Atom   6H    basis set group =>   2
Atom   7H    basis set group =>   2
Atom   8H    basis set group =>   2
Atom   9H    basis set group =>   2
Atom  10C    basis set group =>   1
Atom  11C    basis set group =>   1
Atom  12H    basis set group =>   2
Atom  13H    basis set group =>   2
Atom  14H    basis set group =>   2
Atom  15N    basis set group =>   3
Atom  16O    basis set group =>   4
Atom  17O    basis set group =>   4
Atom  18N    basis set group =>   3
Atom  19C    basis set group =>   1
Atom  20C    basis set group =>   1
Atom  21C    basis set group =>   1
Atom  22C    basis set group =>   1
Atom  23C    basis set group =>   1
Atom  24H    basis set group =>   2
Atom  25H    basis set group =>   2
Atom  26H    basis set group =>   2
Atom  27H    basis set group =>   2
Atom  28H    basis set group =>   2
Atom  29H    basis set group =>   2
Atom  30H    basis set group =>   2
Atom  31H    basis set group =>   2
Atom  32H    basis set group =>   2
Atom  33H    basis set group =>   2
Atom  34H    basis set group =>   2
Atom  35H    basis set group =>   2
Atom  36H    basis set group =>   2
Atom  37H    basis set group =>   2
Atom  38H    basis set group =>   2
Atom  39O    basis set group =>   4
---------------------------------
AUXILIARY/J BASIS SET INFORMATION
---------------------------------
There are 4 groups of distinct atoms

 Group   1 Type C   : 12s5p4d2f1g contracted to 6s4p3d1f1g pattern {711111/2111/211/2/1}
 Group   2 Type H   : 5s2p1d contracted to 3s1p1d pattern {311/2/1}
 Group   3 Type N   : 12s5p4d2f1g contracted to 6s4p3d1f1g pattern {711111/2111/211/2/1}
 Group   4 Type O   : 12s5p4d2f1g contracted to 6s4p3d1f1g pattern {711111/2111/211/2/1}

Atom   0C    basis set group =>   1
Atom   1C    basis set group =>   1
Atom   2C    basis set group =>   1
Atom   3C    basis set group =>   1
Atom   4C    basis set group =>   1
Atom   5C    basis set group =>   1
Atom   6H    basis set group =>   2
Atom   7H    basis set group =>   2
Atom   8H    basis set group =>   2
Atom   9H    basis set group =>   2
Atom  10C    basis set group =>   1
Atom  11C    basis set group =>   1
Atom  12H    basis set group =>   2
Atom  13H    basis set group =>   2
Atom  14H    basis set group =>   2
Atom  15N    basis set group =>   3
Atom  16O    basis set group =>   4
Atom  17O    basis set group =>   4
Atom  18N    basis set group =>   3
Atom  19C    basis set group =>   1
Atom  20C    basis set group =>   1
Atom  21C    basis set group =>   1
Atom  22C    basis set group =>   1
Atom  23C    basis set group =>   1
Atom  24H    basis set group =>   2
Atom  25H    basis set group =>   2
Atom  26H    basis set group =>   2
Atom  27H    basis set group =>   2
Atom  28H    basis set group =>   2
Atom  29H    basis set group =>   2
Atom  30H    basis set group =>   2
Atom  31H    basis set group =>   2
Atom  32H    basis set group =>   2
Atom  33H    basis set group =>   2
Atom  34H    basis set group =>   2
Atom  35H    basis set group =>   2
Atom  36H    basis set group =>   2
Atom  37H    basis set group =>   2
Atom  38H    basis set group =>   2
Atom  39O    basis set group =>   4


           ************************************************************
           *        Program running with 102 parallel MPI-processes   *
           *              working on a common directory               *
           ************************************************************
------------------------------------------------------------------------------
                           ORCA GTO INTEGRAL CALCULATION
                           -- RI-GTO INTEGRALS CHOSEN --
------------------------------------------------------------------------------
------------------------------------------------------------------------------
                   ___                                                        
                  /   \      - P O W E R E D   B Y -                         
                 /     \                                                     
                 |  |  |   _    _      __       _____    __    __             
                 |  |  |  | |  | |    /  \     |  _  \  |  |  /  |          
                  \  \/   | |  | |   /    \    | | | |  |  | /  /          
                 / \  \   | |__| |  /  /\  \   | |_| |  |  |/  /          
                |  |  |   |  __  | /  /__\  \  |    /   |      \           
                |  |  |   | |  | | |   __   |  |    \   |  |\   \          
                \     /   | |  | | |  |  |  |  | |\  \  |  | \   \       
                 \___/    |_|  |_| |__|  |__|  |_| \__\ |__|  \__/        
                                                                              
                      - O R C A' S   B I G   F R I E N D -                    
                                      &                                       
                       - I N T E G R A L  F E E D E R -                       
                                                                              
 v1 FN, 2020, v2 2021                                                         
------------------------------------------------------------------------------


Reading SHARK input file /home/rudenko/mop_saddle_orca_4_serv/for_orca/c6h5chno2ch3_piperidine/orca/freq_D/f_D.SHARKINP.tmp ... ok
----------------------
SHARK INTEGRAL PACKAGE
----------------------

Number of atoms                             ...     40
Number of basis functions                   ...    690
Number of shells                            ...    286
Maximum angular momentum                    ...      3
Integral batch strategy                     ... SHARK/LIBINT Hybrid
RI-J (if used) integral strategy            ... SPLIT-RIJ (Revised 2003 algorithm where possible)
Printlevel                                  ...      1
Contraction scheme used                     ... SEGMENTED contraction
Coulomb Range Separation                    ... NOT USED
Exchange Range Separation                   ... NOT USED
Finite Nucleus Model                        ... NOT USED
Auxiliary Coulomb fitting basis             ... AVAILABLE
   # of basis functions in Aux-J            ...   1124
   # of shells in Aux-J                     ...    380
   Maximum angular momentum in Aux-J        ...      4
Auxiliary J/K fitting basis                 ... NOT available
Auxiliary Correlation fitting basis         ... NOT available
Auxiliary 'external' fitting basis          ... NOT available
Integral threshold                          ...     2.500000e-11
Primitive cut-off                           ...     2.500000e-12
Primitive pair pre-selection threshold      ...     2.500000e-12

Calculating pre-screening integrals         ... done (  0.1 sec) Dimension = 286
Organizing shell pair data                  ... done (  0.8 sec)
Shell pair information
Total number of shell pairs                 ...     41041
Shell pairs after pre-screening             ...     29623
Total number of primitive shell pairs       ...    121740
Primitive shell pairs kept                  ...     59258
          la=0 lb=0:   8802 shell pairs
          la=1 lb=0:   8837 shell pairs
          la=1 lb=1:   2276 shell pairs
          la=2 lb=0:   3908 shell pairs
          la=2 lb=1:   2013 shell pairs
          la=2 lb=2:    467 shell pairs
          la=3 lb=0:   1852 shell pairs
          la=3 lb=1:    954 shell pairs
          la=3 lb=2:    413 shell pairs
          la=3 lb=3:    101 shell pairs

Calculating one electron integrals          ... done (  0.2 sec)
Calculating RI/J V-Matrix + Cholesky decomp.... done (  0.2 sec)
Calculating Nuclear repulsion               ... done (  0.0 sec) ENN=   1361.802247936945 Eh

SHARK setup successfully completed in   1.9 seconds

Maximum memory used throughout the entire GTOINT-calculation: 44.6 MB


           ************************************************************
           *        Program running with 102 parallel MPI-processes   *
           *              working on a common directory               *
           ************************************************************
-------------------------------------------------------------------------------
                                 ORCA SCF
-------------------------------------------------------------------------------

------------
SCF SETTINGS
------------
Hamiltonian:
 Density Functional     Method          .... DFT(GTOs)
 Exchange Functional    Exchange        .... B88
   X-Alpha parameter    XAlpha          ....  0.666667
   Becke's b parameter  XBeta           ....  0.004200
 Correlation Functional Correlation     .... LYP
 LDA part of GGA corr.  LDAOpt          .... VWN-5
 Gradients option       PostSCFGGA      .... off
 Hybrid DFT is turned on
   Fraction HF Exchange ScalHFX         ....  0.200000
   Scaling of DF-GGA-X  ScalDFX         ....  0.720000
   Scaling of DF-GGA-C  ScalDFC         ....  0.810000
   Scaling of DF-LDA-C  ScalLDAC        ....  1.000000
   Perturbative correction              ....  0.000000
   Density functional embedding theory  .... OFF
   NL short-range parameter             ....  4.800000
 RI-approximation to the Coulomb term is turned on
   Number of AuxJ basis functions       .... 1124
   RIJ-COSX (HFX calculated with COS-X)).... on


General Settings:
 Integral files         IntName         .... /home/rudenko/mop_saddle_orca_4_serv/for_orca/c6h5chno2ch3_piperidine/orca/freq_D/f_D
 Hartree-Fock type      HFTyp           .... RHF
 Total Charge           Charge          ....    0
 Multiplicity           Mult            ....    1
 Number of Electrons    NEL             ....  138
 Basis Dimension        Dim             ....  690
 Nuclear Repulsion      ENuc            ....   1361.8022479369 Eh

Convergence Acceleration:
 DIIS                   CNVDIIS         .... on
   Start iteration      DIISMaxIt       ....    12
   Startup error        DIISStart       ....  0.200000
   # of expansion vecs  DIISMaxEq       ....     5
   Bias factor          DIISBfac        ....   1.050
   Max. coefficient     DIISMaxC        ....  10.000
 Trust-Rad. Augm. Hess. CNVTRAH         .... auto
   Auto Start mean grad. ratio tolernc. ....  1.125000
   Auto Start start iteration           ....    20
   Auto Start num. interpolation iter.  ....    10
   Max. Number of Micro iterations      ....    16
   Max. Number of Macro iterations      .... Maxiter - #DIIS iter
   Number of Davidson start vectors     ....     2
   Converg. threshold I  (grad. norm)   ....   1.000e-05
   Converg. threshold II (energy diff.) ....   1.000e-08
   Grad. Scal. Fac. for Micro threshold ....   0.100
   Minimum threshold for Micro iter.    ....   0.010
   NR start threshold (gradient norm)   ....   0.001
   Initial trust radius                 ....   0.400
   Minimum AH scaling param. (alpha)    ....   1.000
   Maximum AH scaling param. (alpha)    .... 1000.000
   Orbital update algorithm             .... Taylor
   White noise on init. David. guess    .... on
   Maximum white noise                  ....   0.010
   Quad. conv. algorithm                .... NR
 SOSCF                  CNVSOSCF        .... on
   Start iteration      SOSCFMaxIt      ....   150
   Startup grad/error   SOSCFStart      ....  0.003300
 Level Shifting         CNVShift        .... on
   Level shift para.    LevelShift      ....    0.2500
   Turn off err/grad.   ShiftErr        ....    0.0010
 Zerner damping         CNVZerner       .... off
 Static damping         CNVDamp         .... on
   Fraction old density DampFac         ....    0.7000
   Max. Damping (<1)    DampMax         ....    0.9800
   Min. Damping (>=0)   DampMin         ....    0.0000
   Turn off err/grad.   DampErr         ....    0.1000
 Fernandez-Rico         CNVRico         .... off

SCF Procedure:
 Maximum # iterations   MaxIter         ....   125
 SCF integral mode      SCFMode         .... Direct
   Integral package                     .... SHARK and LIBINT hybrid scheme
 Reset frequency        DirectResetFreq ....    20
 Integral Threshold     Thresh          ....  2.500e-11 Eh
 Primitive CutOff       TCut            ....  2.500e-12 Eh

Convergence Tolerance:
 Convergence Check Mode ConvCheckMode   .... Total+1el-Energy
 Convergence forced     ConvForced      .... 0
 Energy Change          TolE            ....  1.000e-08 Eh
 1-El. energy change                    ....  1.000e-05 Eh
 Orbital Gradient       TolG            ....  1.000e-05
 Orbital Rotation angle TolX            ....  1.000e-05
 DIIS Error             TolErr          ....  5.000e-07


Diagonalization of the overlap matrix:
Smallest eigenvalue                        ... 7.107e-06
Time for diagonalization                   ...    0.310 sec
Threshold for overlap eigenvalues          ... 1.000e-08
Number of eigenvalues below threshold      ... 0
Time for construction of square roots      ...    0.416 sec
Total time needed                          ...    0.731 sec

Time for model grid setup =    0.268 sec

------------------------------
INITIAL GUESS: MODEL POTENTIAL
------------------------------
Loading Hartree-Fock densities                     ... done
Calculating cut-offs                               ... done
Initializing the effective Hamiltonian             ... done
Setting up the integral package (SHARK)            ... done
Starting the Coulomb interaction                   ... done (   0.1 sec)
Reading the grid                                   ... done
Mapping shells                                     ... done
Starting the XC term evaluation                    ... done (   0.1 sec)
  promolecular density results
     # of electrons  =    137.973473141
     EX              =   -111.134463568
     EC              =     -4.637058548
     EX+EC           =   -115.771522116
Transforming the Hamiltonian                       ... done (   0.4 sec)
Diagonalizing the Hamiltonian                      ... done (   0.3 sec)
Back transforming the eigenvectors                 ... done (   0.2 sec)
Now organizing SCF variables                       ... done
                      ------------------
                      INITIAL GUESS DONE (   1.5 sec)
                      ------------------
-------------------
DFT GRID GENERATION
-------------------

General Integration Accuracy     IntAcc      ... 4.388
Radial Grid Type                 RadialGrid  ... OptM3 with GC (2021)
Angular Grid (max. ang.)         AngularGrid ... 4 (Lebedev-302)
Angular grid pruning method      GridPruning ... 4 (adaptive)
Weight generation scheme         WeightScheme... Becke
Basis function cutoff            BFCut       ... 1.0000e-11
Integration weight cutoff        WCut        ... 1.0000e-14
Angular grids for H and He will be reduced by one unit
Partially contracted basis set               ... off
Rotationally invariant grid construction     ... off

Total number of grid points                  ...   177529
Total number of batches                      ...     2793
Average number of points per batch           ...       63
Average number of grid points per atom       ...     4438
Time for grid setup =    1.440 sec

--------------------
COSX GRID GENERATION
--------------------

GRIDX 1
-------
General Integration Accuracy     IntAcc      ... 3.816
Radial Grid Type                 RadialGrid  ... OptM3 with GC (2021)
Angular Grid (max. ang.)         AngularGrid ... 1 (Lebedev-50)
Angular grid pruning method      GridPruning ... 4 (adaptive)
Weight generation scheme         WeightScheme... Becke
Basis function cutoff            BFCut       ... 1.0000e-11
Integration weight cutoff        WCut        ... 1.0000e-14
Angular grids for H and He will be reduced by one unit
Partially contracted basis set               ... on
Rotationally invariant grid construction     ... off

Total number of grid points                  ...    22577
Total number of batches                      ...      373
Average number of points per batch           ...       60
Average number of grid points per atom       ...      564
UseSFitting                                  ... on

GRIDX 2
-------
General Integration Accuracy     IntAcc      ... 4.020
Radial Grid Type                 RadialGrid  ... OptM3 with GC (2021)
Angular Grid (max. ang.)         AngularGrid ... 2 (Lebedev-110)
Angular grid pruning method      GridPruning ... 4 (adaptive)
Weight generation scheme         WeightScheme... Becke
Basis function cutoff            BFCut       ... 1.0000e-11
Integration weight cutoff        WCut        ... 1.0000e-14
Angular grids for H and He will be reduced by one unit
Partially contracted basis set               ... on
Rotationally invariant grid construction     ... off

Total number of grid points                  ...    47802
Total number of batches                      ...      765
Average number of points per batch           ...       62
Average number of grid points per atom       ...     1195
UseSFitting                                  ... on

GRIDX 3
-------
General Integration Accuracy     IntAcc      ... 4.338
Radial Grid Type                 RadialGrid  ... OptM3 with GC (2021)
Angular Grid (max. ang.)         AngularGrid ... 3 (Lebedev-194)
Angular grid pruning method      GridPruning ... 4 (adaptive)
Weight generation scheme         WeightScheme... Becke
Basis function cutoff            BFCut       ... 1.0000e-11
Integration weight cutoff        WCut        ... 1.0000e-14
Angular grids for H and He will be reduced by one unit
Partially contracted basis set               ... on
Rotationally invariant grid construction     ... off

Total number of grid points                  ...   104031
Total number of batches                      ...     1649
Average number of points per batch           ...       63
Average number of grid points per atom       ...     2601
UseSFitting                                  ... on

Time for X-Grid setup             =    2.559 sec


--------------------
CPCM SOLVATION MODEL
--------------------
CPCM parameters:
  Epsilon                                         ...      78.4000
  Refrac                                          ...       1.3300
  Rsolv                                           ...       1.3000
  Surface type                                    ... GAUSSIAN VDW
  Epsilon function type                           ...         CPCM
Radii:
 Radius for C  used is    3.8550 Bohr (=   2.0400 Ang.)
 Radius for H  used is    2.4944 Bohr (=   1.3200 Ang.)
 Radius for N  used is    3.5149 Bohr (=   1.8600 Ang.)
 Radius for O  used is    3.4469 Bohr (=   1.8240 Ang.)
Calculating surface                               ...        done! (  0.0s)
GEPOL surface points                              ...         2254
GEPOL Volume                                      ...    2238.8335
GEPOL Surface-area                                ...    1221.5718
Calculating surface distance matrix               ...        done! (  0.3s)
Performing Cholesky decomposition & store         ...        done! (  0.9s)
Overall time for CPCM initialization              ...                 1.1s
--------------
SCF ITERATIONS
--------------
ITER       Energy         Delta-E        Max-DP      RMS-DP      [F,P]     Damp
               ***  Starting incremental Fock matrix formation  ***
  0   -842.9107471289   0.000000000000 0.09463828  0.00087118  0.3279323 0.7000
  1   -843.2220774600  -0.311330331077 0.10039258  0.00067131  0.1296663 0.7000
                               ***Turning on DIIS***
  2   -843.3368195163  -0.114742056271 0.13811597  0.00101495  0.0376484 0.0000
  3   -843.5243558570  -0.187536340733 0.08713280  0.00053324  0.0744641 0.0000
  4   -843.5640720997  -0.039716242670 0.03070803  0.00016989  0.0172329 0.0000
  5   -843.5663758767  -0.002303777031 0.00989882  0.00006536  0.0076479 0.0000
                      *** Initiating the SOSCF procedure ***
                           *** Shutting down DIIS ***
                      *** Re-Reading the Fockian *** 
                      *** Removing any level shift *** 
ITER      Energy       Delta-E        Grad      Rot      Max-DP    RMS-DP
  6   -843.56660564  -0.0002297651  0.000239  0.000239  0.001767  0.000028
               *** Restarting incremental Fock matrix formation ***
  7   -843.56660772  -0.0000020801  0.000184  0.000350  0.002314  0.000025
  8   -843.56660671   0.0000010077  0.000255  0.000151  0.000515  0.000007
  9   -843.56661039  -0.0000036796  0.000050  0.000188  0.000232  0.000003
 10   -843.56661031   0.0000000848  0.000127  0.000168  0.000091  0.000001
 11   -843.56661043  -0.0000001183  0.000031  0.000063  0.000129  0.000001
 12   -843.56661042   0.0000000093  0.000028  0.000032  0.000034  0.000001
 13   -843.56661045  -0.0000000332  0.000006  0.000010  0.000087  0.000001
 14   -843.56661043   0.0000000162  0.000008  0.000006  0.000031  0.000000
                  ***Gradient check signals convergence***
              ***Rediagonalizing the Fockian in SOSCF/NRSCF***

               *****************************************************
               *                     SUCCESS                       *
               *           SCF CONVERGED AFTER  15 CYCLES          *
               *****************************************************

Old exchange energy                            =    -22.625953145 Eh
New exchange energy                            =    -22.625951423 Eh
Exchange energy change after final integration =      0.000001722 Eh
Total energy after final integration           =   -843.566608757 Eh
Final COS-X integration done in                =     3.405 sec

----------------
TOTAL SCF ENERGY
----------------

Total Energy       :         -843.56660876 Eh          -22954.61441 eV

Components:
Nuclear Repulsion  :         1361.80224794 Eh           37056.52308 eV
Electronic Energy  :        -2205.36885669 Eh          -60011.13750 eV
One Electron Energy:        -3851.38809877 Eh         -104801.59818 eV
Two Electron Energy:         1646.01924208 Eh           44790.46068 eV
Max COSX asymmetry :            0.00000123 Eh               0.00003 eV
CPCM Dielectric    :           -0.02916454 Eh              -0.79361 eV

Virial components:
Potential Energy   :        -1683.49348859 Eh          -45810.18677 eV
Kinetic Energy     :          839.92687984 Eh           22855.57236 eV
Virial Ratio       :            2.00433339


DFT components:
N(Alpha)           :       69.000243285616 electrons
N(Beta)            :       69.000243285616 electrons
N(Total)           :      138.000486571231 electrons
E(X)               :      -89.928734262339 Eh       
E(C)               :       -5.473821572249 Eh       
E(XC)              :      -95.402555834588 Eh       
DFET-embed. en.    :        0.000000000000 Eh       
CPCM Solvation Model Properties:
Surface-charge          :           -0.03546809
Charge-correction       :            0.00002095 Eh               0.00057 eV
Free-energy (cav+disp)  :  This term is not implemented in the current solvation scheme

---------------
SCF CONVERGENCE
---------------

  Last Energy change         ...   -4.3844e-08  Tolerance :   1.0000e-08
  Last MAX-Density change    ...    1.7764e-15  Tolerance :   1.0000e-07
  Last RMS-Density change    ...    1.2462e-17  Tolerance :   5.0000e-09
  Last Orbital Gradient      ...    4.1585e-07  Tolerance :   1.0000e-05
  Last Orbital Rotation      ...    1.7162e-06  Tolerance :   1.0000e-05

             **** THE GBW FILE WAS UPDATED (/home/rudenko/mop_saddle_orca_4_serv/for_orca/c6h5chno2ch3_piperidine/orca/freq_D/f_D.gbw) ****
             **** DENSITY /home/rudenko/mop_saddle_orca_4_serv/for_orca/c6h5chno2ch3_piperidine/orca/freq_D/f_D.scfp WAS UPDATED ****
             **** ENERGY FILE WAS UPDATED (/home/rudenko/mop_saddle_orca_4_serv/for_orca/c6h5chno2ch3_piperidine/orca/freq_D/f_D.en.tmp) ****
             **** THE GBW FILE WAS UPDATED (/home/rudenko/mop_saddle_orca_4_serv/for_orca/c6h5chno2ch3_piperidine/orca/freq_D/f_D.gbw) ****
             **** DENSITY /home/rudenko/mop_saddle_orca_4_serv/for_orca/c6h5chno2ch3_piperidine/orca/freq_D/f_D.scfp WAS UPDATED ****
----------------
ORBITAL ENERGIES
----------------

  NO   OCC          E(Eh)            E(eV) 
   0   2.0000     -19.171789      -521.6909 
   1   2.0000     -19.169526      -521.6293 
   2   2.0000     -19.127333      -520.4812 
   3   2.0000     -14.551319      -395.9615 
   4   2.0000     -14.290263      -388.8578 
   5   2.0000     -10.234999      -278.5085 
   6   2.0000     -10.193090      -277.3681 
   7   2.0000     -10.180106      -277.0148 
   8   2.0000     -10.179143      -276.9886 
   9   2.0000     -10.178860      -276.9809 
  10   2.0000     -10.177943      -276.9559 
  11   2.0000     -10.177677      -276.9487 
  12   2.0000     -10.177031      -276.9311 
  13   2.0000     -10.176599      -276.9193 
  14   2.0000     -10.168147      -276.6893 
  15   2.0000     -10.154211      -276.3101 
  16   2.0000     -10.153981      -276.3039 
  17   2.0000     -10.153502      -276.2908 
  18   2.0000      -1.240700       -33.7612 
  19   2.0000      -1.067981       -29.0612 
  20   2.0000      -1.011150       -27.5148 
  21   2.0000      -0.901047       -24.5187 
  22   2.0000      -0.876089       -23.8396 
  23   2.0000      -0.829772       -22.5793 
  24   2.0000      -0.777819       -21.1655 
  25   2.0000      -0.753227       -20.4964 
  26   2.0000      -0.744900       -20.2698 
  27   2.0000      -0.742881       -20.2148 
  28   2.0000      -0.699419       -19.0322 
  29   2.0000      -0.628159       -17.0931 
  30   2.0000      -0.626740       -17.0545 
  31   2.0000      -0.613124       -16.6840 
  32   2.0000      -0.610812       -16.6211 
  33   2.0000      -0.585620       -15.9355 
  34   2.0000      -0.550151       -14.9704 
  35   2.0000      -0.543748       -14.7961 
  36   2.0000      -0.542606       -14.7651 
  37   2.0000      -0.531971       -14.4757 
  38   2.0000      -0.529132       -14.3984 
  39   2.0000      -0.507702       -13.8153 
  40   2.0000      -0.502002       -13.6602 
  41   2.0000      -0.473546       -12.8858 
  42   2.0000      -0.454846       -12.3770 
  43   2.0000      -0.447400       -12.1744 
  44   2.0000      -0.443037       -12.0557 
  45   2.0000      -0.437741       -11.9115 
  46   2.0000      -0.424489       -11.5509 
  47   2.0000      -0.419607       -11.4181 
  48   2.0000      -0.412626       -11.2281 
  49   2.0000      -0.402595       -10.9552 
  50   2.0000      -0.398796       -10.8518 
  51   2.0000      -0.393870       -10.7177 
  52   2.0000      -0.393324       -10.7029 
  53   2.0000      -0.377528       -10.2731 
  54   2.0000      -0.374188       -10.1822 
  55   2.0000      -0.373033       -10.1507 
  56   2.0000      -0.351525        -9.5655 
  57   2.0000      -0.344958        -9.3868 
  58   2.0000      -0.339786        -9.2460 
  59   2.0000      -0.331262        -9.0141 
  60   2.0000      -0.322916        -8.7870 
  61   2.0000      -0.319134        -8.6841 
  62   2.0000      -0.317018        -8.6265 
  63   2.0000      -0.308087        -8.3835 
  64   2.0000      -0.306385        -8.3372 
  65   2.0000      -0.303096        -8.2476 
  66   2.0000      -0.263263        -7.1637 
  67   2.0000      -0.261375        -7.1124 
  68   2.0000      -0.227003        -6.1771 
  69   0.0000      -0.080347        -2.1863 
  70   0.0000      -0.023215        -0.6317 
  71   0.0000      -0.017054        -0.4641 
  72   0.0000       0.019108         0.5200 
  73   0.0000       0.046697         1.2707 
  74   0.0000       0.055524         1.5109 
  75   0.0000       0.057834         1.5737 
  76   0.0000       0.071773         1.9530 
  77   0.0000       0.076653         2.0858 
  78   0.0000       0.089184         2.4268 
  79   0.0000       0.089686         2.4405 
  80   0.0000       0.092671         2.5217 
  81   0.0000       0.096958         2.6384 
  82   0.0000       0.097382         2.6499 
  83   0.0000       0.107131         2.9152 
  84   0.0000       0.112537         3.0623 
  85   0.0000       0.114497         3.1156 
  86   0.0000       0.121510         3.3065 
  87   0.0000       0.122864         3.3433 
  88   0.0000       0.132936         3.6174 
  89   0.0000       0.136312         3.7092 
  90   0.0000       0.137925         3.7531 
  91   0.0000       0.150218         4.0877 
  92   0.0000       0.150317         4.0903 
  93   0.0000       0.153340         4.1726 
  94   0.0000       0.161806         4.4030 
  95   0.0000       0.164481         4.4758 
  96   0.0000       0.172006         4.6805 
  97   0.0000       0.176034         4.7901 
  98   0.0000       0.184813         5.0290 
  99   0.0000       0.189364         5.1529 
 100   0.0000       0.191838         5.2202 
 101   0.0000       0.201493         5.4829 
 102   0.0000       0.206796         5.6272 
 103   0.0000       0.209932         5.7125 
 104   0.0000       0.214714         5.8427 
 105   0.0000       0.223086         6.0705 
 106   0.0000       0.226139         6.1535 
 107   0.0000       0.233266         6.3475 
 108   0.0000       0.237267         6.4564 
 109   0.0000       0.239532         6.5180 
 110   0.0000       0.243070         6.6143 
 111   0.0000       0.244891         6.6638 
 112   0.0000       0.252483         6.8704 
 113   0.0000       0.253891         6.9087 
 114   0.0000       0.263650         7.1743 
 115   0.0000       0.270735         7.3671 
 116   0.0000       0.272730         7.4213 
 117   0.0000       0.279870         7.6156 
 118   0.0000       0.282121         7.6769 
 119   0.0000       0.293677         7.9914 
 120   0.0000       0.301380         8.2010 
 121   0.0000       0.306913         8.3515 
 122   0.0000       0.314164         8.5488 
 123   0.0000       0.316951         8.6247 
 124   0.0000       0.327865         8.9217 
 125   0.0000       0.329306         8.9609 
 126   0.0000       0.336658         9.1609 
 127   0.0000       0.341893         9.3034 
 128   0.0000       0.349301         9.5050 
 129   0.0000       0.360498         9.8096 
 130   0.0000       0.361922         9.8484 
 131   0.0000       0.369221        10.0470 
 132   0.0000       0.373317        10.1585 
 133   0.0000       0.377641        10.2761 
 134   0.0000       0.388318        10.5667 
 135   0.0000       0.394478        10.7343 
 136   0.0000       0.398364        10.8400 
 137   0.0000       0.399331        10.8664 
 138   0.0000       0.402530        10.9534 
 139   0.0000       0.405603        11.0370 
 140   0.0000       0.409515        11.1435 
 141   0.0000       0.413657        11.2562 
 142   0.0000       0.421954        11.4819 
 143   0.0000       0.423894        11.5347 
 144   0.0000       0.429220        11.6797 
 145   0.0000       0.433418        11.7939 
 146   0.0000       0.434784        11.8311 
 147   0.0000       0.436869        11.8878 
 148   0.0000       0.440413        11.9843 
 149   0.0000       0.445965        12.1353 
 150   0.0000       0.447729        12.1833 
 151   0.0000       0.451279        12.2799 
 152   0.0000       0.454034        12.3549 
 153   0.0000       0.461059        12.5461 
 154   0.0000       0.462223        12.5777 
 155   0.0000       0.463791        12.6204 
 156   0.0000       0.468363        12.7448 
 157   0.0000       0.476643        12.9701 
 158   0.0000       0.479591        13.0503 
 159   0.0000       0.482518        13.1300 
 160   0.0000       0.487364        13.2618 
 161   0.0000       0.492172        13.3927 
 162   0.0000       0.497484        13.5372 
 163   0.0000       0.503472        13.7002 
 164   0.0000       0.507319        13.8049 
 165   0.0000       0.509424        13.8621 
 166   0.0000       0.509924        13.8757 
 167   0.0000       0.516311        14.0495 
 168   0.0000       0.522638        14.2217 
 169   0.0000       0.529076        14.3969 
 170   0.0000       0.536201        14.5908 
 171   0.0000       0.541668        14.7395 
 172   0.0000       0.545442        14.8422 
 173   0.0000       0.558500        15.1976 
 174   0.0000       0.562733        15.3128 
 175   0.0000       0.568523        15.4703 
 176   0.0000       0.574015        15.6197 
 177   0.0000       0.586138        15.9496 
 178   0.0000       0.593405        16.1474 
 179   0.0000       0.602763        16.4020 
 180   0.0000       0.607630        16.5344 
 181   0.0000       0.614657        16.7257 
 182   0.0000       0.621263        16.9054 
 183   0.0000       0.622762        16.9462 
 184   0.0000       0.641167        17.4470 
 185   0.0000       0.650154        17.6916 
 186   0.0000       0.658627        17.9221 
 187   0.0000       0.665190        18.1007 
 188   0.0000       0.672864        18.3096 
 189   0.0000       0.680123        18.5071 
 190   0.0000       0.686308        18.6754 
 191   0.0000       0.698266        19.0008 
 192   0.0000       0.700937        19.0735 
 193   0.0000       0.705801        19.2058 
 194   0.0000       0.716107        19.4863 
 195   0.0000       0.718319        19.5465 
 196   0.0000       0.720767        19.6131 
 197   0.0000       0.724721        19.7207 
 198   0.0000       0.739030        20.1100 
 199   0.0000       0.757988        20.6259 
 200   0.0000       0.759706        20.6726 
 201   0.0000       0.772811        21.0293 
 202   0.0000       0.777078        21.1454 
 203   0.0000       0.783122        21.3098 
 204   0.0000       0.789156        21.4740 
 205   0.0000       0.795909        21.6578 
 206   0.0000       0.804999        21.9051 
 207   0.0000       0.814817        22.1723 
 208   0.0000       0.820159        22.3177 
 209   0.0000       0.824550        22.4372 
 210   0.0000       0.831414        22.6239 
 211   0.0000       0.844571        22.9819 
 212   0.0000       0.858211        23.3531 
 213   0.0000       0.868486        23.6327 
 214   0.0000       0.872218        23.7343 
 215   0.0000       0.874480        23.7958 
 216   0.0000       0.889655        24.2087 
 217   0.0000       0.910342        24.7717 
 218   0.0000       0.914080        24.8734 
 219   0.0000       0.920940        25.0600 
 220   0.0000       0.937784        25.5184 
 221   0.0000       0.943126        25.6638 
 222   0.0000       0.954480        25.9727 
 223   0.0000       0.964755        26.2523 
 224   0.0000       0.969044        26.3690 
 225   0.0000       0.971975        26.4488 
 226   0.0000       0.990823        26.9617 
 227   0.0000       0.996405        27.1136 
 228   0.0000       0.997765        27.1506 
 229   0.0000       1.016948        27.6726 
 230   0.0000       1.025122        27.8950 
 231   0.0000       1.030089        28.0301 
 232   0.0000       1.043496        28.3950 
 233   0.0000       1.048371        28.5276 
 234   0.0000       1.075412        29.2635 
 235   0.0000       1.082929        29.4680 
 236   0.0000       1.092391        29.7255 
 237   0.0000       1.107921        30.1481 
 238   0.0000       1.118824        30.4448 
 239   0.0000       1.124724        30.6053 
 240   0.0000       1.128121        30.6977 
 241   0.0000       1.133479        30.8435 
 242   0.0000       1.145665        31.1751 
 243   0.0000       1.147919        31.2365 
 244   0.0000       1.154600        31.4183 
 245   0.0000       1.159972        31.5645 
 246   0.0000       1.170403        31.8483 
 247   0.0000       1.172640        31.9092 
 248   0.0000       1.180626        32.1265 
 249   0.0000       1.204165        32.7670 
 250   0.0000       1.215164        33.0663 
 251   0.0000       1.223179        33.2844 
 252   0.0000       1.232251        33.5313 
 253   0.0000       1.239819        33.7372 
 254   0.0000       1.243881        33.8477 
 255   0.0000       1.253794        34.1175 
 256   0.0000       1.263684        34.3866 
 257   0.0000       1.268706        34.5232 
 258   0.0000       1.280916        34.8555 
 259   0.0000       1.283019        34.9127 
 260   0.0000       1.289455        35.0879 
 261   0.0000       1.294144        35.2154 
 262   0.0000       1.309239        35.6262 
 263   0.0000       1.311530        35.6885 
 264   0.0000       1.324900        36.0524 
 265   0.0000       1.344984        36.5989 
 266   0.0000       1.351704        36.7817 
 267   0.0000       1.360123        37.0108 
 268   0.0000       1.374777        37.4096 
 269   0.0000       1.382349        37.6156 
 270   0.0000       1.393409        37.9166 
 271   0.0000       1.406983        38.2860 
 272   0.0000       1.431263        38.9466 
 273   0.0000       1.446705        39.3668 
 274   0.0000       1.454114        39.5684 
 275   0.0000       1.461897        39.7802 
 276   0.0000       1.474607        40.1261 
 277   0.0000       1.477178        40.1960 
 278   0.0000       1.489257        40.5248 
 279   0.0000       1.495064        40.6828 
 280   0.0000       1.504725        40.9457 
 281   0.0000       1.508985        41.0616 
 282   0.0000       1.518034        41.3078 
 283   0.0000       1.525472        41.5102 
 284   0.0000       1.539208        41.8840 
 285   0.0000       1.548146        42.1272 
 286   0.0000       1.559434        42.4344 
 287   0.0000       1.565365        42.5958 
 288   0.0000       1.568744        42.6877 
 289   0.0000       1.578063        42.9413 
 290   0.0000       1.589615        43.2556 
 291   0.0000       1.593232        43.3540 
 292   0.0000       1.597365        43.4665 
 293   0.0000       1.605292        43.6822 
 294   0.0000       1.608200        43.7614 
 295   0.0000       1.615285        43.9541 
 296   0.0000       1.618430        44.0397 
 297   0.0000       1.626677        44.2641 
 298   0.0000       1.630291        44.3625 
 299   0.0000       1.633615        44.4529 
 300   0.0000       1.635417        44.5020 
 301   0.0000       1.643312        44.7168 
 302   0.0000       1.659922        45.1688 
 303   0.0000       1.667266        45.3686 
 304   0.0000       1.671560        45.4855 
 305   0.0000       1.681819        45.7646 
 306   0.0000       1.686460        45.8909 
 307   0.0000       1.691547        46.0293 
 308   0.0000       1.698953        46.2308 
 309   0.0000       1.703770        46.3619 
 310   0.0000       1.707704        46.4690 
 311   0.0000       1.713723        46.6328 
 312   0.0000       1.718216        46.7550 
 313   0.0000       1.720461        46.8161 
 314   0.0000       1.732682        47.1487 
 315   0.0000       1.740920        47.3728 
 316   0.0000       1.754663        47.7468 
 317   0.0000       1.765324        48.0369 
 318   0.0000       1.775128        48.3037 
 319   0.0000       1.782785        48.5120 
 320   0.0000       1.790630        48.7255 
 321   0.0000       1.804875        49.1131 
 322   0.0000       1.814483        49.3746 
 323   0.0000       1.820175        49.5295 
 324   0.0000       1.840867        50.0925 
 325   0.0000       1.851109        50.3712 
 326   0.0000       1.858276        50.5663 
 327   0.0000       1.868001        50.8309 
 328   0.0000       1.883825        51.2615 
 329   0.0000       1.900038        51.7027 
 330   0.0000       1.902612        51.7727 
 331   0.0000       1.925225        52.3880 
 332   0.0000       1.935120        52.6573 
 333   0.0000       1.937964        52.7347 
 334   0.0000       1.957785        53.2740 
 335   0.0000       1.965286        53.4782 
 336   0.0000       1.971166        53.6382 
 337   0.0000       1.983043        53.9613 
 338   0.0000       1.990211        54.1564 
 339   0.0000       1.993361        54.2421 
 340   0.0000       1.996963        54.3401 
 341   0.0000       2.017881        54.9093 
 342   0.0000       2.025981        55.1298 
 343   0.0000       2.032222        55.2996 
 344   0.0000       2.044480        55.6331 
 345   0.0000       2.048182        55.7339 
 346   0.0000       2.057642        55.9913 
 347   0.0000       2.063452        56.1494 
 348   0.0000       2.088646        56.8349 
 349   0.0000       2.096593        57.0512 
 350   0.0000       2.098915        57.1144 
 351   0.0000       2.113849        57.5208 
 352   0.0000       2.120993        57.7152 
 353   0.0000       2.125278        57.8318 
 354   0.0000       2.138404        58.1889 
 355   0.0000       2.143821        58.3363 
 356   0.0000       2.154281        58.6210 
 357   0.0000       2.165721        58.9323 
 358   0.0000       2.176804        59.2338 
 359   0.0000       2.186502        59.4977 
 360   0.0000       2.188672        59.5568 
 361   0.0000       2.195910        59.7538 
 362   0.0000       2.199976        59.8644 
 363   0.0000       2.220034        60.4102 
 364   0.0000       2.228624        60.6439 
 365   0.0000       2.234621        60.8071 
 366   0.0000       2.249878        61.2223 
 367   0.0000       2.253825        61.3297 
 368   0.0000       2.263430        61.5911 
 369   0.0000       2.268743        61.7356 
 370   0.0000       2.290421        62.3255 
 371   0.0000       2.320878        63.1543 
 372   0.0000       2.323288        63.2199 
 373   0.0000       2.329136        63.3790 
 374   0.0000       2.337094        63.5956 
 375   0.0000       2.349224        63.9256 
 376   0.0000       2.360333        64.2279 
 377   0.0000       2.365565        64.3703 
 378   0.0000       2.381398        64.8011 
 379   0.0000       2.397992        65.2527 
 380   0.0000       2.416776        65.7638 
 381   0.0000       2.426104        66.0176 
 382   0.0000       2.431778        66.1720 
 383   0.0000       2.438128        66.3448 
 384   0.0000       2.445354        66.5415 
 385   0.0000       2.448857        66.6368 
 386   0.0000       2.455666        66.8221 
 387   0.0000       2.479369        67.4670 
 388   0.0000       2.485291        67.6282 
 389   0.0000       2.492208        67.8164 
 390   0.0000       2.505998        68.1917 
 391   0.0000       2.511243        68.3344 
 392   0.0000       2.540028        69.1177 
 393   0.0000       2.545598        69.2692 
 394   0.0000       2.548105        69.3375 
 395   0.0000       2.549923        69.3869 
 396   0.0000       2.555005        69.5252 
 397   0.0000       2.563991        69.7697 
 398   0.0000       2.568508        69.8926 
 399   0.0000       2.581341        70.2419 
 400   0.0000       2.587514        70.4098 
 401   0.0000       2.588284        70.4308 
 402   0.0000       2.595820        70.6358 
 403   0.0000       2.602271        70.8114 
 404   0.0000       2.603927        70.8565 
 405   0.0000       2.613329        71.1123 
 406   0.0000       2.619391        71.2773 
 407   0.0000       2.626719        71.4767 
 408   0.0000       2.628377        71.5218 
 409   0.0000       2.634064        71.6765 
 410   0.0000       2.645827        71.9966 
 411   0.0000       2.651200        72.1428 
 412   0.0000       2.660573        72.3979 
 413   0.0000       2.667398        72.5836 
 414   0.0000       2.673373        72.7462 
 415   0.0000       2.674399        72.7741 
 416   0.0000       2.683085        73.0104 
 417   0.0000       2.690726        73.2184 
 418   0.0000       2.693991        73.3072 
 419   0.0000       2.702738        73.5452 
 420   0.0000       2.704289        73.5874 
 421   0.0000       2.712322        73.8060 
 422   0.0000       2.717331        73.9423 
 423   0.0000       2.718384        73.9710 
 424   0.0000       2.734531        74.4104 
 425   0.0000       2.734863        74.4194 
 426   0.0000       2.743357        74.6505 
 427   0.0000       2.751339        74.8677 
 428   0.0000       2.753417        74.9243 
 429   0.0000       2.763674        75.2034 
 430   0.0000       2.774393        75.4951 
 431   0.0000       2.780794        75.6692 
 432   0.0000       2.786812        75.8330 
 433   0.0000       2.795462        76.0684 
 434   0.0000       2.802290        76.2542 
 435   0.0000       2.807516        76.3964 
 436   0.0000       2.809200        76.4422 
 437   0.0000       2.826845        76.9224 
 438   0.0000       2.836087        77.1738 
 439   0.0000       2.839069        77.2550 
 440   0.0000       2.844894        77.4135 
 441   0.0000       2.860133        77.8282 
 442   0.0000       2.862017        77.8794 
 443   0.0000       2.874859        78.2289 
 444   0.0000       2.887880        78.5832 
 445   0.0000       2.901144        78.9441 
 446   0.0000       2.921073        79.4864 
 447   0.0000       2.926127        79.6240 
 448   0.0000       2.938752        79.9675 
 449   0.0000       2.946627        80.1818 
 450   0.0000       2.960097        80.5483 
 451   0.0000       2.967254        80.7431 
 452   0.0000       2.984849        81.2219 
 453   0.0000       2.987503        81.2941 
 454   0.0000       2.998879        81.6036 
 455   0.0000       3.009246        81.8858 
 456   0.0000       3.030961        82.4766 
 457   0.0000       3.039326        82.7043 
 458   0.0000       3.052571        83.0647 
 459   0.0000       3.060340        83.2761 
 460   0.0000       3.068412        83.4957 
 461   0.0000       3.084402        83.9308 
 462   0.0000       3.090940        84.1088 
 463   0.0000       3.096056        84.2480 
 464   0.0000       3.101440        84.3945 
 465   0.0000       3.110979        84.6540 
 466   0.0000       3.121050        84.9281 
 467   0.0000       3.128869        85.1409 
 468   0.0000       3.135594        85.3238 
 469   0.0000       3.143821        85.5477 
 470   0.0000       3.145961        85.6059 
 471   0.0000       3.158910        85.9583 
 472   0.0000       3.160574        86.0036 
 473   0.0000       3.180541        86.5469 
 474   0.0000       3.187166        86.7272 
 475   0.0000       3.190778        86.8255 
 476   0.0000       3.196280        86.9752 
 477   0.0000       3.203527        87.1724 
 478   0.0000       3.208080        87.2963 
 479   0.0000       3.214720        87.4770 
 480   0.0000       3.218871        87.5899 
 481   0.0000       3.223877        87.7261 
 482   0.0000       3.230682        87.9113 
 483   0.0000       3.243039        88.2476 
 484   0.0000       3.262366        88.7735 
 485   0.0000       3.276898        89.1689 
 486   0.0000       3.286288        89.4245 
 487   0.0000       3.290394        89.5362 
 488   0.0000       3.295191        89.6667 
 489   0.0000       3.303206        89.8848 
 490   0.0000       3.310681        90.0882 
 491   0.0000       3.317610        90.2768 
 492   0.0000       3.332033        90.6692 
 493   0.0000       3.338860        90.8550 
 494   0.0000       3.344017        90.9953 
 495   0.0000       3.344747        91.0152 
 496   0.0000       3.375093        91.8409 
 497   0.0000       3.377391        91.9035 
 498   0.0000       3.379678        91.9657 
 499   0.0000       3.386815        92.1599 
 500   0.0000       3.396175        92.4146 
 501   0.0000       3.402087        92.5755 
 502   0.0000       3.422085        93.1197 
 503   0.0000       3.426577        93.2419 
 504   0.0000       3.430394        93.3458 
 505   0.0000       3.438073        93.5547 
 506   0.0000       3.443842        93.7117 
 507   0.0000       3.455628        94.0324 
 508   0.0000       3.465700        94.3065 
 509   0.0000       3.470449        94.4357 
 510   0.0000       3.479327        94.6773 
 511   0.0000       3.482743        94.7703 
 512   0.0000       3.492223        95.0282 
 513   0.0000       3.497257        95.1652 
 514   0.0000       3.509704        95.5039 
 515   0.0000       3.515838        95.6708 
 516   0.0000       3.516862        95.6987 
 517   0.0000       3.526556        95.9625 
 518   0.0000       3.541181        96.3604 
 519   0.0000       3.547481        96.5319 
 520   0.0000       3.559274        96.8528 
 521   0.0000       3.576605        97.3244 
 522   0.0000       3.589988        97.6885 
 523   0.0000       3.602567        98.0308 
 524   0.0000       3.607962        98.1776 
 525   0.0000       3.624831        98.6367 
 526   0.0000       3.635546        98.9282 
 527   0.0000       3.642293        99.1118 
 528   0.0000       3.659757        99.5870 
 529   0.0000       3.663351        99.6848 
 530   0.0000       3.669477        99.8515 
 531   0.0000       3.685636       100.2913 
 532   0.0000       3.697376       100.6107 
 533   0.0000       3.722368       101.2908 
 534   0.0000       3.741987       101.8246 
 535   0.0000       3.761802       102.3638 
 536   0.0000       3.763699       102.4155 
 537   0.0000       3.766718       102.4976 
 538   0.0000       3.776400       102.7611 
 539   0.0000       3.790330       103.1401 
 540   0.0000       3.800398       103.4141 
 541   0.0000       3.842695       104.5651 
 542   0.0000       3.875395       105.4549 
 543   0.0000       3.892213       105.9125 
 544   0.0000       3.897256       106.0497 
 545   0.0000       3.905536       106.2750 
 546   0.0000       3.911883       106.4477 
 547   0.0000       3.939866       107.2092 
 548   0.0000       3.945472       107.3618 
 549   0.0000       3.951522       107.5264 
 550   0.0000       3.956025       107.6489 
 551   0.0000       3.985391       108.4480 
 552   0.0000       3.997194       108.7692 
 553   0.0000       4.017661       109.3261 
 554   0.0000       4.021608       109.4335 
 555   0.0000       4.027071       109.5822 
 556   0.0000       4.038057       109.8811 
 557   0.0000       4.044530       110.0573 
 558   0.0000       4.048942       110.1773 
 559   0.0000       4.084898       111.1557 
 560   0.0000       4.089520       111.2815 
 561   0.0000       4.095545       111.4454 
 562   0.0000       4.124031       112.2206 
 563   0.0000       4.153532       113.0234 
 564   0.0000       4.169308       113.4526 
 565   0.0000       4.193253       114.1042 
 566   0.0000       4.197615       114.2229 
 567   0.0000       4.201651       114.3327 
 568   0.0000       4.212658       114.6322 
 569   0.0000       4.216630       114.7403 
 570   0.0000       4.232152       115.1627 
 571   0.0000       4.244102       115.4879 
 572   0.0000       4.250221       115.6544 
 573   0.0000       4.257916       115.8638 
 574   0.0000       4.277392       116.3937 
 575   0.0000       4.280622       116.4816 
 576   0.0000       4.289531       116.7241 
 577   0.0000       4.308472       117.2395 
 578   0.0000       4.316693       117.4632 
 579   0.0000       4.344733       118.2262 
 580   0.0000       4.345385       118.2439 
 581   0.0000       4.352236       118.4304 
 582   0.0000       4.366134       118.8085 
 583   0.0000       4.405203       119.8717 
 584   0.0000       4.428789       120.5135 
 585   0.0000       4.431127       120.5771 
 586   0.0000       4.443727       120.9200 
 587   0.0000       4.487326       122.1064 
 588   0.0000       4.496890       122.3666 
 589   0.0000       4.523219       123.0830 
 590   0.0000       4.531879       123.3187 
 591   0.0000       4.569612       124.3455 
 592   0.0000       4.606293       125.3436 
 593   0.0000       4.614838       125.5761 
 594   0.0000       4.627598       125.9233 
 595   0.0000       4.646278       126.4317 
 596   0.0000       4.653228       126.6208 
 597   0.0000       4.665758       126.9617 
 598   0.0000       4.673235       127.1652 
 599   0.0000       4.706337       128.0659 
 600   0.0000       4.708145       128.1152 
 601   0.0000       4.716871       128.3526 
 602   0.0000       4.746653       129.1630 
 603   0.0000       4.766041       129.6906 
 604   0.0000       4.794685       130.4700 
 605   0.0000       4.800380       130.6250 
 606   0.0000       4.814900       131.0201 
 607   0.0000       4.846193       131.8716 
 608   0.0000       4.859412       132.2313 
 609   0.0000       4.868876       132.4888 
 610   0.0000       4.884577       132.9161 
 611   0.0000       4.903872       133.4411 
 612   0.0000       4.914399       133.7276 
 613   0.0000       4.929958       134.1510 
 614   0.0000       4.984485       135.6347 
 615   0.0000       5.015526       136.4794 
 616   0.0000       5.046403       137.3196 
 617   0.0000       5.061688       137.7355 
 618   0.0000       5.083266       138.3227 
 619   0.0000       5.092600       138.5767 
 620   0.0000       5.107912       138.9934 
 621   0.0000       5.127706       139.5320 
 622   0.0000       5.130557       139.6096 
 623   0.0000       5.141747       139.9141 
 624   0.0000       5.149367       140.1214 
 625   0.0000       5.158882       140.3803 
 626   0.0000       5.183762       141.0573 
 627   0.0000       5.203241       141.5874 
 628   0.0000       5.237522       142.5202 
 629   0.0000       5.265513       143.2819 
 630   0.0000       5.288824       143.9162 
 631   0.0000       5.306930       144.4089 
 632   0.0000       5.336851       145.2231 
 633   0.0000       5.366303       146.0245 
 634   0.0000       5.374724       146.2537 
 635   0.0000       5.388355       146.6246 
 636   0.0000       5.405704       147.0967 
 637   0.0000       5.414412       147.3336 
 638   0.0000       5.423577       147.5830 
 639   0.0000       5.438207       147.9811 
 640   0.0000       5.478693       149.0828 
 641   0.0000       5.502754       149.7375 
 642   0.0000       5.571698       151.6136 
 643   0.0000       5.600511       152.3977 
 644   0.0000       5.617519       152.8605 
 645   0.0000       5.648334       153.6990 
 646   0.0000       5.672094       154.3455 
 647   0.0000       5.699826       155.1001 
 648   0.0000       5.941034       161.6637 
 649   0.0000       5.950471       161.9205 
 650   0.0000       6.013962       163.6482 
 651   0.0000       6.229491       169.5131 
 652   0.0000       6.242570       169.8690 
 653   0.0000       6.311990       171.7580 
 654   0.0000       6.354359       172.9109 
 655   0.0000       6.369747       173.3296 
 656   0.0000       6.385267       173.7520 
 657   0.0000       6.388052       173.8277 
 658   0.0000       6.420917       174.7220 
 659   0.0000       6.442232       175.3020 
 660   0.0000       6.446333       175.4136 
 661   0.0000       6.666585       181.4070 
 662   0.0000       6.851972       186.4516 
 663   0.0000       6.873279       187.0314 
 664   0.0000       6.925505       188.4526 
 665   0.0000       6.935062       188.7126 
 666   0.0000       7.011271       190.7864 
 667   0.0000       7.094176       193.0423 
 668   0.0000       7.252550       197.3519 
 669   0.0000       7.291428       198.4098 
 670   0.0000       7.365038       200.4129 
 671   0.0000       7.408877       201.6058 
 672   0.0000      22.087212       601.0236 
 673   0.0000      22.422488       610.1469 
 674   0.0000      22.426492       610.2559 
 675   0.0000      22.478299       611.6656 
 676   0.0000      22.484686       611.8394 
 677   0.0000      22.500257       612.2631 
 678   0.0000      22.540825       613.3670 
 679   0.0000      22.586376       614.6065 
 680   0.0000      22.609472       615.2350 
 681   0.0000      22.690825       617.4488 
 682   0.0000      22.787314       620.0743 
 683   0.0000      22.814973       620.8270 
 684   0.0000      23.234895       632.2536 
 685   0.0000      32.384860       881.2368 
 686   0.0000      32.487032       884.0171 
 687   0.0000      43.461640      1182.6514 
 688   0.0000      43.961894      1196.2640 
 689   0.0000      44.021103      1197.8751 

                    ********************************
                    * MULLIKEN POPULATION ANALYSIS *
                    ********************************

-----------------------
MULLIKEN ATOMIC CHARGES
-----------------------
   0 C :   -0.123006
   1 C :   -0.234583
   2 C :    0.103852
   3 C :   -0.213546
   4 C :   -0.135905
   5 C :   -0.146972
   6 H :    0.145132
   7 H :    0.150482
   8 H :    0.148672
   9 H :    0.145113
  10 C :    0.042925
  11 C :   -0.375924
  12 H :    0.142448
  13 H :    0.145016
  14 H :    0.143904
  15 N :    0.438816
  16 O :   -0.355208
  17 O :   -0.343433
  18 N :   -0.361337
  19 C :   -0.138297
  20 C :   -0.165176
  21 C :   -0.158777
  22 C :   -0.154692
  23 C :   -0.137164
  24 H :    0.109003
  25 H :    0.075701
  26 H :    0.096906
  27 H :    0.073589
  28 H :    0.097016
  29 H :    0.078050
  30 H :    0.066277
  31 H :    0.168281
  32 H :    0.194225
  33 H :    0.117340
  34 H :    0.098051
  35 H :    0.082907
  36 H :    0.144390
  37 H :    0.357068
  38 H :    0.364580
  39 O :   -0.685727
Sum of atomic charges:   -0.0000000

--------------------------------
MULLIKEN REDUCED ORBITAL CHARGES
--------------------------------
[...]
    112      -0.000154   0.000138  -0.000043   0.004458  -0.463298   0.447885
    113       0.000057  -0.000089   0.000058  -0.003896   0.400378  -0.415670
    114      -0.000129   0.000045   0.000025  -0.002530   0.374053   0.392510
    115       0.000236  -0.000315   0.000172  -0.005490   0.603953   0.570061
    116       0.000018  -0.000002   0.000019   0.000149  -0.089844  -0.063030
    117      -0.000036   0.000035  -0.000005   0.000362  -0.044407  -0.001248
    118       0.000009   0.000003  -0.000003   0.000047  -0.008897  -0.064135
    119       0.000005  -0.000006   0.000002   0.000114  -0.019660   0.030204


-----------
IR SPECTRUM
-----------

 Mode   freq       eps      Int      T**2         TX        TY        TZ
       cm**-1   L/(mol*cm) km/mol    a.u.
----------------------------------------------------------------------------
 12:     21.98   0.000600    3.03  0.008518  (-0.055353  0.067313  0.030382)
 13:     25.69   0.000031    0.16  0.000379  (-0.008624 -0.012575  0.012111)
 14:     33.50   0.000665    3.36  0.006192  ( 0.060858  0.036936 -0.033524)
 15:     49.46   0.000080    0.40  0.000503  (-0.003924  0.019890  0.009599)
 16:     59.95   0.001406    7.11  0.007321  (-0.035379  0.019195  0.075504)
 17:     83.61   0.002627   13.28  0.009806  (-0.028881  0.087322  0.036700)
 18:     92.45   0.001949    9.85  0.006580  (-0.019399  0.037647  0.069186)
 19:    102.90   0.001358    6.86  0.004120  (-0.007070 -0.026996  0.057800)
 20:    180.86   0.002525   12.76  0.004356  ( 0.012939 -0.062879  0.015327)
 21:    194.19   0.000278    1.40  0.000447  (-0.000892  0.018381 -0.010391)
 22:    213.66   0.000337    1.70  0.000492  ( 0.003353 -0.018931  0.011078)
 23:    244.03   0.000526    2.66  0.000672  ( 0.018371 -0.015544  0.009654)
 24:    247.94   0.000634    3.20  0.000798  (-0.008227 -0.018200 -0.019981)
 25:    252.38   0.001273    6.43  0.001573  (-0.010017  0.001859 -0.038336)
 26:    299.01   0.000375    1.89  0.000391  ( 0.003895  0.005764  0.018507)
 27:    360.41   0.000093    0.47  0.000081  (-0.001167 -0.006650  0.005914)
 28:    398.89   0.000732    3.70  0.000572  ( 0.003820  0.002177  0.023516)
 29:    416.12   0.000012    0.06  0.000009  (-0.002479 -0.001101 -0.001135)
 30:    442.30   0.001667    8.42  0.001176  (-0.029713 -0.002162 -0.016986)
 31:    453.71   0.000254    1.28  0.000175  (-0.000592  0.013085 -0.001752)
 32:    457.89   0.001311    6.63  0.000894  ( 0.015710 -0.012925  0.021903)
 33:    503.25   0.002702   13.65  0.001675  ( 0.020290 -0.027018  0.023101)
 34:    558.49   0.006692   33.82  0.003739  ( 0.060998 -0.004291 -0.000208)
 35:    581.75   0.005049   25.51  0.002708  (-0.013702 -0.015602 -0.047718)
 36:    626.04   0.003367   17.02  0.001678  (-0.029353 -0.011200 -0.026292)
 37:    643.44   0.002527   12.77  0.001225  ( 0.026168  0.010006  0.020991)
 38:    712.43   0.008533   43.12  0.003738  ( 0.031673 -0.009836  0.051359)
 39:    734.35   0.013879   70.14  0.005898  (-0.031768 -0.002049 -0.069888)
 40:    778.90   0.001771    8.95  0.000710  ( 0.002650 -0.000358  0.026502)
 41:    798.73   0.023714  119.84  0.009265  (-0.095408  0.009947  0.007960)
 42:    814.02   0.001682    8.50  0.000645  (-0.019917  0.000359 -0.015747)
 43:    824.58   0.000276    1.40  0.000104  (-0.008547 -0.005223  0.002033)
 44:    826.91   0.003856   19.48  0.001455  (-0.037325  0.003645 -0.006969)
 45:    858.89   0.005611   28.36  0.002039  (-0.032845 -0.013099 -0.028078)
 46:    866.76   0.000614    3.10  0.000221  (-0.006902 -0.005083 -0.012147)
 47:    873.68   0.003931   19.86  0.001404  (-0.036084  0.003637  0.009418)
 48:    880.28   0.000274    1.38  0.000097  (-0.004574 -0.008698  0.000752)
 49:    882.49   0.003280   16.58  0.001160  ( 0.004071  0.020106  0.027188)
 50:    928.43   0.004348   21.97  0.001461  (-0.032281  0.006172  0.019527)
 51:    954.72   0.001216    6.15  0.000398  (-0.008895 -0.004363 -0.017303)
 52:    965.02   0.002746   13.88  0.000888  (-0.024654 -0.014188  0.008873)
 53:    980.42   0.000432    2.18  0.000138  (-0.000028 -0.011390  0.002801)
 54:    995.38   0.000130    0.66  0.000041  ( 0.004382  0.002104  0.004145)
 55:   1011.18   0.000126    0.64  0.000039  ( 0.004218 -0.000442  0.004580)
 56:   1026.58   0.000089    0.45  0.000027  (-0.000799 -0.004970 -0.001269)
 57:   1048.33   0.001908    9.64  0.000568  ( 0.020112 -0.006222 -0.011167)
 58:   1051.82   0.002595   13.11  0.000770  (-0.002684  0.027220  0.004660)
 59:   1058.74   0.001327    6.71  0.000391  ( 0.006997  0.017276 -0.006607)
 60:   1076.20   0.006234   31.50  0.001808  ( 0.034974 -0.009750 -0.022119)
 61:   1091.00   0.004367   22.07  0.001249  (-0.029513 -0.007726  0.017844)
 62:   1112.24   0.002795   14.13  0.000784  ( 0.000842  0.015064  0.023593)
 63:   1121.26   0.007103   35.90  0.001977  ( 0.002984  0.043963 -0.005939)
 64:   1129.30   0.000163    0.82  0.000045  ( 0.004933 -0.004494 -0.000706)
 65:   1142.42   0.000598    3.02  0.000163  (-0.003054 -0.001717  0.012289)
 66:   1163.64   0.000628    3.17  0.000168  (-0.002590 -0.012302  0.003212)
 67:   1170.38   0.002553   12.90  0.000681  ( 0.024093 -0.002068 -0.009794)
 68:   1176.68   0.000050    0.25  0.000013  ( 0.002260  0.002035 -0.001970)
 69:   1182.02   0.002369   11.97  0.000625  ( 0.000477  0.024828 -0.002955)
 70:   1206.16   0.000097    0.49  0.000025  ( 0.003106 -0.003820 -0.000912)
 71:   1267.96   0.005538   27.99  0.001363  ( 0.018479 -0.026023  0.018557)
 72:   1281.81   0.001348    6.81  0.000328  ( 0.004600 -0.004999 -0.016794)
 73:   1289.14   0.000220    1.11  0.000053  ( 0.000886  0.006855 -0.002367)
 74:   1303.42   0.000634    3.20  0.000152  (-0.009709  0.005615  0.005089)
 75:   1340.03   0.000431    2.18  0.000100  ( 0.008923 -0.004102  0.001966)
 76:   1342.00   0.007100   35.88  0.001651  ( 0.005250  0.039494 -0.007986)
 77:   1364.18   0.000798    4.03  0.000183  ( 0.001277  0.013375 -0.001414)
 78:   1367.61   0.000294    1.48  0.000067  (-0.002017  0.001375  0.007812)
 79:   1374.79   0.000069    0.35  0.000016  ( 0.000682 -0.003701 -0.001224)
 80:   1379.99   0.000174    0.88  0.000039  (-0.001384  0.000498  0.006103)
 81:   1396.89   0.020270  102.44  0.004528  ( 0.028305  0.041878  0.044424)
 82:   1414.76   0.000801    4.05  0.000177  (-0.000622  0.005127  0.012250)
 83:   1420.54   0.022669  114.56  0.004980  (-0.007515 -0.021710 -0.066724)
 84:   1470.63   0.001146    5.79  0.000243  ( 0.003554  0.014006 -0.005857)
 85:   1471.10   0.003640   18.39  0.000772  ( 0.026191 -0.001331 -0.009185)
 86:   1475.97   0.002051   10.36  0.000434  (-0.009391  0.005809  0.017654)
 87:   1483.65   0.002670   13.49  0.000562  (-0.012779 -0.007138  0.018635)
 88:   1486.12   0.003349   16.93  0.000703  ( 0.020256  0.010415  0.013584)
 89:   1486.47   0.000167    0.84  0.000035  (-0.001447  0.004680 -0.003325)
 90:   1488.52   0.000417    2.11  0.000087  ( 0.005002 -0.005469  0.005696)
 91:   1498.57   0.000338    1.71  0.000070  ( 0.000282  0.004604 -0.007003)
 92:   1503.14   0.001466    7.41  0.000304  (-0.004817  0.016764 -0.000149)
 93:   1535.42   0.003371   17.04  0.000685  ( 0.015658 -0.019616 -0.007427)
 94:   1559.26   0.128388  648.82  0.025695  ( 0.115070  0.058734 -0.094891)
 95:   1575.09   0.025030  126.49  0.004959  ( 0.057392  0.011022  0.039291)
 96:   1627.62   0.000320    1.62  0.000061  ( 0.006577  0.002144 -0.003681)
 97:   1650.62   0.000078    0.39  0.000015  (-0.000758 -0.003626  0.001017)
 98:   2303.72   0.001186    6.00  0.000161  (-0.012151 -0.002972  0.002057)
 99:   2913.12   0.025413  128.43  0.002722  (-0.030959 -0.017063  0.038376)
100:   2920.00   0.048224  243.71  0.005154  ( 0.039798 -0.031411 -0.050826)
101:   3007.04   0.008985   45.41  0.000932  ( 0.030387 -0.002923 -0.000718)
102:   3017.05   0.006938   35.06  0.000718  ( 0.002786  0.026449 -0.003209)
103:   3018.25   0.014491   73.23  0.001498  ( 0.022061 -0.004601 -0.031471)
104:   3053.68   0.021219  107.23  0.002168  ( 0.020093 -0.005017  0.041708)
105:   3058.40   0.002249   11.37  0.000230  ( 0.001628 -0.013406  0.006866)
106:   3059.11   0.019787   99.99  0.002018  (-0.017064  0.040806  0.007883)
107:   3063.94   0.012996   65.67  0.001324  (-0.005676 -0.035006  0.008122)
108:   3066.99   0.026654  134.70  0.002712  (-0.044019  0.007431  0.026816)
109:   3086.44   0.014426   72.90  0.001459  (-0.025217 -0.027938  0.006493)
110:   3129.04   0.003691   18.65  0.000368  ( 0.010060 -0.013559 -0.009112)
111:   3146.67   0.001868    9.44  0.000185  (-0.009609 -0.006469 -0.007145)
112:   3156.77   0.000621    3.14  0.000061  (-0.006940  0.001839  0.003136)
113:   3172.44   0.000046    0.23  0.000005  (-0.000826 -0.001690  0.000986)
114:   3182.18   0.002365   11.95  0.000232  (-0.012366  0.005850  0.006693)
115:   3190.74   0.004072   20.58  0.000398  ( 0.009963  0.016615 -0.004785)
116:   3196.21   0.001409    7.12  0.000138  ( 0.007630 -0.007489 -0.004828)
117:   3487.98   0.005803   29.33  0.000519  ( 0.012822  0.000867  0.018817)
118:   3763.02   0.006243   31.55  0.000518  ( 0.019635  0.005085  0.010312)
119:   3855.68   0.027093  136.92  0.002193  ( 0.001819  0.039503 -0.025080)

* The epsilon (eps) is given for a Dirac delta lineshape.
** The dipole moment derivative (T) already includes vibrational overlap.

The first frequency considered to be a vibration is 12
The total number of vibrations considered is 108


--------------------------
THERMOCHEMISTRY AT 298.15K
--------------------------

Temperature         ... 298.15 K
Pressure            ... 1.00 atm
Total Mass          ... 255.32 AMU

Throughout the following assumptions are being made:
  (1) The electronic state is orbitally nondegenerate
  (2) There are no thermally accessible electronically excited states
  (3) Hindered rotations indicated by low frequency modes are not
      treated as such but are treated as vibrations and this may
      cause some error
  (4) All equations used are the standard statistical mechanics
      equations for an ideal gas
  (5) All vibrations are strictly harmonic

freq.      21.98  E(vib)   ...       0.56 
freq.      25.69  E(vib)   ...       0.56 
freq.      33.50  E(vib)   ...       0.55 
freq.      49.46  E(vib)   ...       0.52 
freq.      59.95  E(vib)   ...       0.51 
freq.      83.61  E(vib)   ...       0.48 
freq.      92.45  E(vib)   ...       0.47 
freq.     102.90  E(vib)   ...       0.46 
freq.     180.86  E(vib)   ...       0.37 
freq.     194.19  E(vib)   ...       0.36 
freq.     213.66  E(vib)   ...       0.34 
freq.     244.03  E(vib)   ...       0.31 
freq.     247.94  E(vib)   ...       0.31 
freq.     252.38  E(vib)   ...       0.30 
freq.     299.01  E(vib)   ...       0.26 
freq.     360.41  E(vib)   ...       0.22 
freq.     398.89  E(vib)   ...       0.19 
freq.     416.12  E(vib)   ...       0.18 
freq.     442.30  E(vib)   ...       0.17 
freq.     453.71  E(vib)   ...       0.16 
freq.     457.89  E(vib)   ...       0.16 
freq.     503.25  E(vib)   ...       0.14 
freq.     558.49  E(vib)   ...       0.12 
freq.     581.75  E(vib)   ...       0.11 
freq.     626.04  E(vib)   ...       0.09 
freq.     643.44  E(vib)   ...       0.09 
freq.     712.43  E(vib)   ...       0.07 
freq.     734.35  E(vib)   ...       0.06 
freq.     778.90  E(vib)   ...       0.05 
freq.     798.73  E(vib)   ...       0.05 
freq.     814.02  E(vib)   ...       0.05 
freq.     824.58  E(vib)   ...       0.04 
freq.     826.91  E(vib)   ...       0.04 
freq.     858.89  E(vib)   ...       0.04 
freq.     866.76  E(vib)   ...       0.04 
freq.     873.68  E(vib)   ...       0.04 
freq.     880.28  E(vib)   ...       0.04 
freq.     882.49  E(vib)   ...       0.04 
freq.     928.43  E(vib)   ...       0.03 
freq.     954.72  E(vib)   ...       0.03 
freq.     965.02  E(vib)   ...       0.03 
freq.     980.42  E(vib)   ...       0.02 
freq.     995.38  E(vib)   ...       0.02 
freq.    1011.18  E(vib)   ...       0.02 
freq.    1026.58  E(vib)   ...       0.02 
freq.    1048.33  E(vib)   ...       0.02 
freq.    1051.82  E(vib)   ...       0.02 
freq.    1058.74  E(vib)   ...       0.02 
freq.    1076.20  E(vib)   ...       0.02 
freq.    1091.00  E(vib)   ...       0.02 
freq.    1112.24  E(vib)   ...       0.01 
freq.    1121.26  E(vib)   ...       0.01 
freq.    1129.30  E(vib)   ...       0.01 
freq.    1142.42  E(vib)   ...       0.01 
freq.    1163.64  E(vib)   ...       0.01 
freq.    1170.38  E(vib)   ...       0.01 
freq.    1176.68  E(vib)   ...       0.01 
freq.    1182.02  E(vib)   ...       0.01 
freq.    1206.16  E(vib)   ...       0.01 
freq.    1267.96  E(vib)   ...       0.01 
freq.    1281.81  E(vib)   ...       0.01 
freq.    1289.14  E(vib)   ...       0.01 
freq.    1303.42  E(vib)   ...       0.01 
freq.    1340.03  E(vib)   ...       0.01 
freq.    1342.00  E(vib)   ...       0.01 
freq.    1364.18  E(vib)   ...       0.01 
freq.    1367.61  E(vib)   ...       0.01 
freq.    1374.79  E(vib)   ...       0.01 
freq.    1379.99  E(vib)   ...       0.01 
freq.    1396.89  E(vib)   ...       0.00 
freq.    1414.76  E(vib)   ...       0.00 
freq.    1420.54  E(vib)   ...       0.00 
freq.    1470.63  E(vib)   ...       0.00 
freq.    1471.10  E(vib)   ...       0.00 
freq.    1475.97  E(vib)   ...       0.00 
freq.    1483.65  E(vib)   ...       0.00 
freq.    1486.12  E(vib)   ...       0.00 
freq.    1486.47  E(vib)   ...       0.00 
freq.    1488.52  E(vib)   ...       0.00 
freq.    1498.57  E(vib)   ...       0.00 
freq.    1503.14  E(vib)   ...       0.00 
freq.    1535.42  E(vib)   ...       0.00 
freq.    1559.26  E(vib)   ...       0.00 
freq.    1575.09  E(vib)   ...       0.00 
freq.    1627.62  E(vib)   ...       0.00 
freq.    1650.62  E(vib)   ...       0.00 
freq.    2303.72  E(vib)   ...       0.00 
freq.    2913.12  E(vib)   ...       0.00 
freq.    2920.00  E(vib)   ...       0.00 
freq.    3007.04  E(vib)   ...       0.00 
freq.    3017.05  E(vib)   ...       0.00 
freq.    3018.25  E(vib)   ...       0.00 
freq.    3053.68  E(vib)   ...       0.00 
freq.    3058.40  E(vib)   ...       0.00 
freq.    3059.11  E(vib)   ...       0.00 
freq.    3063.94  E(vib)   ...       0.00 
freq.    3066.99  E(vib)   ...       0.00 
freq.    3086.44  E(vib)   ...       0.00 
freq.    3129.04  E(vib)   ...       0.00 
freq.    3146.67  E(vib)   ...       0.00 
freq.    3156.77  E(vib)   ...       0.00 
freq.    3172.44  E(vib)   ...       0.00 
freq.    3182.18  E(vib)   ...       0.00 
freq.    3190.74  E(vib)   ...       0.00 
freq.    3196.21  E(vib)   ...       0.00 
freq.    3487.98  E(vib)   ...       0.00 
freq.    3763.02  E(vib)   ...       0.00 
freq.    3855.68  E(vib)   ...       0.00 

------------
INNER ENERGY
------------

The inner energy is: U= E(el) + E(ZPE) + E(vib) + E(rot) + E(trans)
    E(el)   - is the total energy from the electronic structure calculation
              = E(kin-el) + E(nuc-el) + E(el-el) + E(nuc-nuc)
    E(ZPE)  - the the zero temperature vibrational energy from the frequency calculation
    E(vib)  - the the finite temperature correction to E(ZPE) due to population
              of excited vibrational states
    E(rot)  - is the rotational thermal energy
    E(trans)- is the translational thermal energy

Summary of contributions to the inner energy U:
Electronic energy                ...   -843.63899448 Eh
Zero point energy                ...      0.33646624 Eh     211.14 kcal/mol
Thermal vibrational correction   ...      0.01441755 Eh       9.05 kcal/mol
Thermal rotational correction    ...      0.00141627 Eh       0.89 kcal/mol
Thermal translational correction ...      0.00141627 Eh       0.89 kcal/mol
-----------------------------------------------------------------------
Total thermal energy                   -843.28527815 Eh


Summary of corrections to the electronic energy:
(perhaps to be used in another calculation)
Total thermal correction                  0.01725009 Eh      10.82 kcal/mol
Non-thermal (ZPE) correction              0.33646624 Eh     211.14 kcal/mol
-----------------------------------------------------------------------
Total correction                          0.35371633 Eh     221.96 kcal/mol


--------
ENTHALPY
--------

The enthalpy is H = U + kB*T
                kB is Boltzmann's constant
Total free energy                 ...   -843.28527815 Eh 
Thermal Enthalpy correction       ...      0.00094421 Eh       0.59 kcal/mol
-----------------------------------------------------------------------
Total Enthalpy                    ...   -843.28433394 Eh


Note: Only C1 symmetry has been detected, increase convergence thresholds 
      if your molecule has a higher symmetry. Symmetry factor of 1.0 is   
      used for the rotational entropy correction. 
 

Note: Rotational entropy computed according to Herzberg 
Infrared and Raman Spectra, Chapter V,1, Van Nostrand Reinhold, 1945 
Point Group:  C1, Symmetry Number:   1  
Rotational constants in cm-1:     0.017657     0.007322     0.006225 

Vibrational entropy computed according to the QRRHO of S. Grimme
Chem.Eur.J. 2012 18 9955


-------
ENTROPY
-------

The entropy contributions are T*S = T*(S(el)+S(vib)+S(rot)+S(trans))
     S(el)   - electronic entropy
     S(vib)  - vibrational entropy
     S(rot)  - rotational entropy
     S(trans)- translational entropy
The entropies will be listed as multiplied by the temperature to get
units of energy

Electronic entropy                ...      0.00000000 Eh      0.00 kcal/mol
Vibrational entropy               ...      0.02595848 Eh     16.29 kcal/mol
Rotational entropy                ...      0.01613546 Eh     10.13 kcal/mol
Translational entropy             ...      0.02019879 Eh     12.67 kcal/mol
-----------------------------------------------------------------------
Final entropy term                ...      0.06229273 Eh     39.09 kcal/mol

In case the symmetry of your molecule has not been determined correctly
or in case you have a reason to use a different symmetry number we print 
out the resulting rotational entropy values for sn=1,12 :
 --------------------------------------------------------
|  sn= 1 | S(rot)=       0.01613546 Eh     10.13 kcal/mol|
|  sn= 2 | S(rot)=       0.01548101 Eh      9.71 kcal/mol|
|  sn= 3 | S(rot)=       0.01509818 Eh      9.47 kcal/mol|
|  sn= 4 | S(rot)=       0.01482655 Eh      9.30 kcal/mol|
|  sn= 5 | S(rot)=       0.01461586 Eh      9.17 kcal/mol|
|  sn= 6 | S(rot)=       0.01444372 Eh      9.06 kcal/mol|
|  sn= 7 | S(rot)=       0.01429817 Eh      8.97 kcal/mol|
|  sn= 8 | S(rot)=       0.01417210 Eh      8.89 kcal/mol|
|  sn= 9 | S(rot)=       0.01406089 Eh      8.82 kcal/mol|
|  sn=10 | S(rot)=       0.01396141 Eh      8.76 kcal/mol|
|  sn=11 | S(rot)=       0.01387142 Eh      8.70 kcal/mol|
|  sn=12 | S(rot)=       0.01378926 Eh      8.65 kcal/mol|
 --------------------------------------------------------


-------------------
GIBBS FREE ENERGY
-------------------

The Gibbs free energy is G = H - T*S

Total enthalpy                    ...   -843.28433394 Eh 
Total entropy correction          ...     -0.06229273 Eh    -39.09 kcal/mol
-----------------------------------------------------------------------
Final Gibbs free energy         ...   -843.34662668 Eh

For completeness - the Gibbs free energy minus the electronic energy
G-E(el)                           ...      0.29236781 Eh    183.46 kcal/mol



Timings for individual modules:

Sum of individual times         ...     4371.260 sec (=  72.854 min)
GTO integral calculation        ...       11.308 sec (=   0.188 min)   0.3 %
SCF iterations                  ...      174.096 sec (=   2.902 min)   4.0 %
SCF Gradient evaluation         ...       34.029 sec (=   0.567 min)   0.8 %
Numerical frequency calculation ...     4151.827 sec (=  69.197 min)  95.0 %
                             ****ORCA TERMINATED NORMALLY****
TOTAL RUN TIME: 0 days 1 hours 11 minutes 5 seconds 153 msec
