
                                 *****************
                                 * O   R   C   A *
                                 *****************

                                            #,                                       
                                            ###                                      
                                            ####                                     
                                            #####                                    
                                            ######                                   
                                           ########,                                 
                                     ,,################,,,,,                         
                               ,,#################################,,                 
                          ,,##########################################,,             
                       ,#########################################, ''#####,          
                    ,#############################################,,   '####,        
                  ,##################################################,,,,####,       
                ,###########''''           ''''###############################       
              ,#####''   ,,,,##########,,,,          '''####'''          '####       
            ,##' ,,,,###########################,,,                        '##       
           ' ,,###''''                  '''############,,,                           
         ,,##''                                '''############,,,,        ,,,,,,###''
      ,#''                                            '''#######################'''  
     '                                                          ''''####''''         
             ,#######,   #######,   ,#######,      ##                                
            ,#'     '#,  ##    ##  ,#'     '#,    #''#        ######   ,####,        
            ##       ##  ##   ,#'  ##            #'  '#       #        #'  '#        
            ##       ##  #######   ##           ,######,      #####,   #    #        
            '#,     ,#'  ##    ##  '#,     ,#' ,#      #,         ##   #,  ,#        
             '#######'   ##     ##  '#######'  #'      '#     #####' # '####'        



                  #######################################################
                  #                        -***-                        #
                  #          Department of theory and spectroscopy      #
                  #    Directorship and core code : Frank Neese         #
                  #        Max Planck Institute fuer Kohlenforschung    #
                  #                Kaiser Wilhelm Platz 1               #
                  #                 D-45470 Muelheim/Ruhr               #
                  #                      Germany                        #
                  #                                                     #
                  #                  All rights reserved                #
                  #                        -***-                        #
                  #######################################################


                         Program Version 5.0.4 -  RELEASE  -


 With contributions from (in alphabetic order):
   Daniel Aravena         : Magnetic Suceptibility
   Michael Atanasov       : Ab Initio Ligand Field Theory (pilot matlab implementation)
   Alexander A. Auer      : GIAO ZORA, VPT2 properties, NMR spectrum
   Ute Becker             : Parallelization
   Giovanni Bistoni       : ED, misc. LED, open-shell LED, HFLD
   Martin Brehm           : Molecular dynamics
   Dmytro Bykov           : SCF Hessian
   Vijay G. Chilkuri      : MRCI spin determinant printing, contributions to CSF-ICE
   Dipayan Datta          : RHF DLPNO-CCSD density
   Achintya Kumar Dutta   : EOM-CC, STEOM-CC
   Dmitry Ganyushin       : Spin-Orbit,Spin-Spin,Magnetic field MRCI
   Miquel Garcia          : C-PCM and meta-GGA Hessian, CC/C-PCM, Gaussian charge scheme
   Yang Guo               : DLPNO-NEVPT2, F12-NEVPT2, CIM, IAO-localization
   Andreas Hansen         : Spin unrestricted coupled pair/coupled cluster methods
   Benjamin Helmich-Paris : MC-RPA, TRAH-SCF, COSX integrals
   Lee Huntington         : MR-EOM, pCC
   Robert Izsak           : Overlap fitted RIJCOSX, COSX-SCS-MP3, EOM
   Marcus Kettner         : VPT2
   Christian Kollmar      : KDIIS, OOCD, Brueckner-CCSD(T), CCSD density, CASPT2, CASPT2-K
   Simone Kossmann        : Meta GGA functionals, TD-DFT gradient, OOMP2, MP2 Hessian
   Martin Krupicka        : Initial AUTO-CI
   Lucas Lang             : DCDCAS
   Marvin Lechner         : AUTO-CI (C++ implementation), FIC-MRCC
   Dagmar Lenk            : GEPOL surface, SMD
   Dimitrios Liakos       : Extrapolation schemes; Compound Job, initial MDCI parallelization
   Dimitrios Manganas     : Further ROCIS development; embedding schemes
   Dimitrios Pantazis     : SARC Basis sets
   Anastasios Papadopoulos: AUTO-CI, single reference methods and gradients
   Taras Petrenko         : DFT Hessian,TD-DFT gradient, ASA, ECA, R-Raman, ABS, FL, XAS/XES, NRVS
   Peter Pinski           : DLPNO-MP2, DLPNO-MP2 Gradient
   Christoph Reimann      : Effective Core Potentials
   Marius Retegan         : Local ZFS, SOC
   Christoph Riplinger    : Optimizer, TS searches, QM/MM, DLPNO-CCSD(T), (RO)-DLPNO pert. Triples
   Tobias Risthaus        : Range-separated hybrids, TD-DFT gradient, RPA, STAB
   Michael Roemelt        : Original ROCIS implementation
   Masaaki Saitow         : Open-shell DLPNO-CCSD energy and density
   Barbara Sandhoefer     : DKH picture change effects
   Avijit Sen             : IP-ROCIS
   Kantharuban Sivalingam : CASSCF convergence, NEVPT2, FIC-MRCI
   Bernardo de Souza      : ESD, SOC TD-DFT
   Georgi Stoychev        : AutoAux, RI-MP2 NMR, DLPNO-MP2 response
   Willem Van den Heuvel  : Paramagnetic NMR
   Boris Wezisla          : Elementary symmetry handling
   Frank Wennmohs         : Technical directorship


 We gratefully acknowledge several colleagues who have allowed us to
 interface, adapt or use parts of their codes:
   Stefan Grimme, W. Hujo, H. Kruse, P. Pracht,  : VdW corrections, initial TS optimization,
                  C. Bannwarth, S. Ehlert          DFT functionals, gCP, sTDA/sTD-DF
   Ed Valeev, F. Pavosevic, A. Kumar             : LibInt (2-el integral package), F12 methods
   Garnet Chan, S. Sharma, J. Yang, R. Olivares  : DMRG
   Ulf Ekstrom                                   : XCFun DFT Library
   Mihaly Kallay                                 : mrcc  (arbitrary order and MRCC methods)
   Jiri Pittner, Ondrej Demel                    : Mk-CCSD
   Frank Weinhold                                : gennbo (NPA and NBO analysis)
   Christopher J. Cramer and Donald G. Truhlar   : smd solvation model
   Lars Goerigk                                  : TD-DFT with DH, B97 family of functionals
   V. Asgeirsson, H. Jonsson                     : NEB implementation
   FAccTs GmbH                                   : IRC, NEB, NEB-TS, DLPNO-Multilevel, CI-OPT
                                                   MM, QMMM, 2- and 3-layer-ONIOM, Crystal-QMMM,
                                                   LR-CPCM, SF, NACMEs, symmetry and pop. for TD-DFT,
                                                   nearIR, NL-DFT gradient (VV10), updates on ESD,
                                                   ML-optimized integration grids
   S Lehtola, MJT Oliveira, MAL Marques          : LibXC Library
   Liviu Ungur et al                             : ANISO software


 Your calculation uses the libint2 library for the computation of 2-el integrals
 For citations please refer to: http://libint.valeyev.net

 Your ORCA version has been built with support for libXC version: 5.1.0
 For citations please refer to: https://tddft.org/programs/libxc/

 This ORCA versions uses:
   CBLAS   interface :  Fast vector & matrix operations
   LAPACKE interface :  Fast linear algebra routines
   SCALAPACK package :  Parallel linear algebra routines
   Shared memory     :  Shared parallel matrices
   BLAS/LAPACK       :  OpenBLAS 0.3.15  USE64BITINT DYNAMIC_ARCH NO_AFFINITY Prescott SINGLE_THREADED
        Core in use  :  Prescott
   Copyright (c) 2011-2014, The OpenBLAS Project


Your calculation utilizes the atom-pairwise dispersion correction
with the Becke-Johnson damping scheme (D3BJ)
Cite in your paper:
S.Grimme, S.Ehrlich, L.Goerigk, J Comput Chem, (2011), 32, 1456–1465 
S.Grimme, J.Antony, S.Ehrlich and H.Krieg, J.Chem.Phys., 132, (2010), 154104 
   

================================================================================

----- Orbital basis set information -----
Your calculation utilizes the basis: def2-TZVP
   F. Weigend and R. Ahlrichs, Phys. Chem. Chem. Phys. 7, 3297 (2005).

----- AuxJ basis set information -----
Your calculation utilizes the auxiliary basis: def2/J
   F. Weigend, Phys. Chem. Chem. Phys. 8, 1057 (2006).

================================================================================
                                        WARNINGS
                       Please study these warnings very carefully!
================================================================================

WARNING: Gradients needed for Numerical Frequencies
  ===> : Setting RunTyp to EnGrad

INFO   : the flag for use of the SHARK integral package has been found!

================================================================================
                                       INPUT FILE
================================================================================
NAME = /home/rudenko/mop_saddle_orca_4_serv/for_orca/CH2CHCH2NO2_lutidine/orca/start_freq_D/start_f_D.inp
|  1> !  NUMFREQ B3LYP def2-TZVP CPCM D3 
|  2> %pal nprocs 102 end
|  3> %cpcm epsilon 78.4 end 
|  4> *xyz 0 1 
|  5> C   0.67934903613472 -0.35034420289173 -0.22463899162346
|  6> H   0.24782331028531 0.64329355202595 -0.27209112909852
|  7> N   -0.9307254006079 -1.32121502858168 1.42879259932698
|  8> O   -1.80172653454624 -1.0353196013514 0.62640786080068
|  9> O   -1.14192942305155 -1.81233820026319 2.52683535098237
| 10> H   1.79042723786781 -1.83614642703498 -1.22365145327028
| 11> C   0.52107044799973 -1.08545087582903 1.06003864825732
| 12> H   0.96511414062524 -2.08354744433694 1.03603276228062 M = 2
| 13> H   0.92385836489952 -0.53883386963179 1.91371702972381
| 14> C   1.35090917700246 -0.84612553170521 -1.25662115522558
| 15> H   1.48416544825033 -0.27200551264712 -2.1652076261791
| 16> C   5.44325866004611 -3.67789123441357 0.1185786795223
| 17> C   6.73066998487916 -3.16572165562107 -0.00809558928823
| 18> C   6.90888672992635 -1.78807111859344 0.2021213587349
| 19> C   5.78621698744859 -1.03108627707062 0.52972984721238
| 20> C   4.54554127910036 -1.63982800124193 0.63517238108053
| 21> N   4.36895971126431 -2.9468959600236 0.43134746936649
| 22> H   5.27213672104551 -4.73800080131276 -0.04164447217421
| 23> H   5.8809910092331 0.0340315477035 0.70094273031803
| 24> H   3.66384037739018 -1.06306390283889 0.88814258720182
| 25> C   7.88005648139219 -4.0653439558188 -0.35557787758673
| 26> H   8.62997809869392 -4.06869479362573 0.43979373877141
| 27> H   8.38248327928769 -3.72905941342436 -1.26581982379366
| 28> H   7.5415260067416 -5.0897371744623 -0.50857975247136
| 29> C   8.26042927438784 -1.15236287879533 0.07636025783694
| 30> H   8.21463728781612 -0.08611765279031 0.29319489752159
| 31> H   8.6586287122826 -1.28523590151611 -0.93304756449485
| 32> H   8.97551966810432 -1.6176345563567 0.75906646732157
| 33> H   2.7532046981809 -3.70966762087346 0.60410511653524
| 34> O   1.86015152846505 -4.12243632954618 0.73771407238117
| 35> H   1.49675115945416 -4.22402903713092 -0.15030052997021
| 36> *
| 37> 
| 38>                          ****END OF INPUT****
================================================================================

                     *******************************
                     * Energy+Gradient Calculation *
                     *******************************

---------------------------------
CARTESIAN COORDINATES (ANGSTROEM)
---------------------------------
  C      0.679349   -0.350344   -0.224639
  H      0.247823    0.643294   -0.272091
  N     -0.930725   -1.321215    1.428793
  O     -1.801727   -1.035320    0.626408
  O     -1.141929   -1.812338    2.526835
  H      1.790427   -1.836146   -1.223651
  C      0.521070   -1.085451    1.060039
  H      0.965114   -2.083547    1.036033
  H      0.923858   -0.538834    1.913717
  C      1.350909   -0.846126   -1.256621
  H      1.484165   -0.272006   -2.165208
  C      5.443259   -3.677891    0.118579
  C      6.730670   -3.165722   -0.008096
  C      6.908887   -1.788071    0.202121
  C      5.786217   -1.031086    0.529730
  C      4.545541   -1.639828    0.635172
  N      4.368960   -2.946896    0.431347
  H      5.272137   -4.738001   -0.041644
  H      5.880991    0.034032    0.700943
  H      3.663840   -1.063064    0.888143
  C      7.880056   -4.065344   -0.355578
  H      8.629978   -4.068695    0.439794
  H      8.382483   -3.729059   -1.265820
  H      7.541526   -5.089737   -0.508580
  C      8.260429   -1.152363    0.076360
  H      8.214637   -0.086118    0.293195
  H      8.658629   -1.285236   -0.933048
  H      8.975520   -1.617635    0.759066
  H      2.753205   -3.709668    0.604105
  O      1.860152   -4.122436    0.737714
  H      1.496751   -4.224029   -0.150301

----------------------------
CARTESIAN COORDINATES (A.U.)
----------------------------
  NO LB      ZA    FRAG     MASS         X           Y           Z
   0 C     6.0000    0    12.011    1.283784   -0.662055   -0.424506
   1 H     1.0000    0     1.008    0.468318    1.215649   -0.514178
   2 N     7.0000    0    14.007   -1.758816   -2.496735    2.700027
   3 O     8.0000    0    15.999   -3.404770   -1.956471    1.183739
   4 O     8.0000    0    15.999   -2.157934   -3.424823    4.775027
   5 H     1.0000    0     1.008    3.383417   -3.469814   -2.312366
   6 C     6.0000    0    12.011    0.984680   -2.051205    2.003183
   7 H     1.0000    0     2.000    1.823801   -3.937334    1.957818
   8 H     1.0000    0     1.008    1.745839   -1.018248    3.616401
   9 C     6.0000    0    12.011    2.552848   -1.598946   -2.374670
  10 H     1.0000    0     1.008    2.804666   -0.514016   -4.091649
  11 C     6.0000    0    12.011   10.286268   -6.950207    0.224081
  12 C     6.0000    0    12.011   12.719123   -5.982347   -0.015298
  13 C     6.0000    0    12.011   13.055904   -3.378965    0.381954
  14 C     6.0000    0    12.011   10.934365   -1.948471    1.001044
  15 C     6.0000    0    12.011    8.589828   -3.098826    1.200302
  16 N     7.0000    0    14.007    8.256137   -5.568826    0.815129
  17 H     1.0000    0     1.008    9.962895   -8.953524   -0.078697
  18 H     1.0000    0     1.008   11.113462    0.064310    1.324590
  19 H     1.0000    0     1.008    6.923655   -2.008900    1.678346
  20 C     6.0000    0    12.011   14.891149   -7.682387   -0.671945
  21 H     1.0000    0     1.008   16.308295   -7.688719    0.831090
  22 H     1.0000    0     1.008   15.840598   -7.046901   -2.392053
  23 H     1.0000    0     1.008   14.251419   -9.618209   -0.961076
  24 C     6.0000    0    12.011   15.609949   -2.177650    0.144300
  25 H     1.0000    0     1.008   15.523415   -0.162739    0.554058
  26 H     1.0000    0     1.008   16.362437   -2.428744   -1.763204
  27 H     1.0000    0     1.008   16.961274   -3.056886    1.434428
  28 H     1.0000    0     1.008    5.202803   -7.010256    1.141593
  29 O     8.0000    0    15.999    3.515177   -7.790276    1.394078
  30 H     1.0000    0     1.008    2.828450   -7.982258   -0.284027

--------------------------------
INTERNAL COORDINATES (ANGSTROEM)
--------------------------------
 C      0   0   0     0.000000000000     0.00000000     0.00000000
 H      1   0   0     1.084334886195     0.00000000     0.00000000
 N      1   2   0     2.503750362552    97.37226199     0.00000000
 O      3   1   2     1.218277652776    86.20515227    58.30614389
 O      3   1   2     1.221272694087   149.41714716   243.06529215
 H      1   2   3     2.107161341274   146.64034106   153.00295608
 C      1   2   3     1.488566616067   116.61425708   330.58059686
 H      7   1   2     1.092679204336   112.88718553   179.17687806
 H      7   1   2     1.090777262528   112.87351574   303.29034984
 C      6   1   2     1.083699451076    32.47815180   359.72228379
 H     10   6   1     1.083005265597   117.38150429   179.74024978
 C      6   1   2     4.305436454500   126.95517069   123.28249366
 C     12   6   1     1.391327411908   126.81279082   277.97224363
 C     13  12   6     1.404946040111   117.69187499    39.92381485
 C     14  13  12     1.393104706292   117.76101373     0.33279494
 C     15  14  13     1.385987311623   120.04085097   359.83429875
 N     16  15  14     1.334598176834   122.47770759   359.89357607
 H     12   6   1     1.085719333059   103.76582058   133.29908676
 H     15  14  13     1.082945957654   120.07196117   179.92809426
 H     16  15  14     1.083534600494   120.82266322   180.06997862
 C     13  12   6     1.500384464749   120.61128476   219.83321089
 H     21  13  12     1.093164977631   111.03005604   241.38981099
 H     21  13  12     1.092730699364   111.13843227   122.46924693
 H     21  13  12     1.089676063052   110.98958241     1.78655899
 C     14  13  12     1.498868930272   121.17892565   180.42826020
 H     25  14  13     1.089033079837   111.13885047   181.19860555
 H     25  14  13     1.093216439819   110.75456737    60.44762651
 H     25  14  13     1.092666359689   110.92200745   302.20544037
 H     17  16  15     1.795084976695   121.36926602   178.90962696
 O     29  17  16     0.992861180569   177.74121847   295.57718575
 H     30  29  17     0.964857937948   104.99272830   164.46978770

---------------------------
INTERNAL COORDINATES (A.U.)
---------------------------
 C      0   0   0     0.000000000000     0.00000000     0.00000000
 H      1   0   0     2.049095972364     0.00000000     0.00000000
 N      1   2   0     4.731402492930    97.37226199     0.00000000
 O      3   1   2     2.302211118823    86.20515227    58.30614389
 O      3   1   2     2.307870926660   149.41714716   243.06529215
 H      1   2   3     3.981957854995   146.64034106   153.00295608
 C      1   2   3     2.812983236464   116.61425708   330.58059686
 H      7   1   2     2.064864448427   112.88718553   179.17687806
 H      7   1   2     2.061270299286   112.87351574   303.29034984
 C      6   1   2     2.047895174015    32.47815180   359.72228379
 H     10   6   1     2.046583353572   117.38150429   179.74024978
 C      6   1   2     8.136095786005   126.95517069   123.28249366
 C     12   6   1     2.629227771124   126.81279082   277.97224363
 C     13  12   6     2.654963248747   117.69187499    39.92381485
 C     14  13  12     2.632586370769   117.76101373     0.33279494
 C     15  14  13     2.619136444058   120.04085097   359.83429875
 N     16  15  14     2.522025053047   122.47770759   359.89357607
 H     12   6   1     2.051712197785   103.76582058   133.29908676
 H     15  14  13     2.046471277802   120.07196117   179.92809426
 H     16  15  14     2.047583651562   120.82266322   180.06997862
 C     13  12   6     2.835315733966   120.61128476   219.83321089
 H     21  13  12     2.065782426916   111.03005604   241.38981099
 H     21  13  12     2.064961759925   111.13843227   122.46924693
 H     21  13  12     2.059189333857   110.98958241     1.78655899
 C     14  13  12     2.832451788858   121.17892565   180.42826020
 H     25  14  13     2.057974271673   111.13885047   181.19860555
 H     25  14  13     2.065879676359   110.75456737    60.44762651
 H     25  14  13     2.064840175560   110.92200745   302.20544037
 H     17  16  15     3.392218993069   121.36926602   178.90962696
 O     29  17  16     1.876235720277   177.74121847   295.57718575
 H     30  29  17     1.823317260861   104.99272830   164.46978770

---------------------
BASIS SET INFORMATION
---------------------
There are 4 groups of distinct atoms

 Group   1 Type C   : 11s6p2d1f contracted to 5s3p2d1f pattern {62111/411/11/1}
 Group   2 Type H   : 5s1p contracted to 3s1p pattern {311/1}
 Group   3 Type N   : 11s6p2d1f contracted to 5s3p2d1f pattern {62111/411/11/1}
 Group   4 Type O   : 11s6p2d1f contracted to 5s3p2d1f pattern {62111/411/11/1}

Atom   0C    basis set group =>   1
Atom   1H    basis set group =>   2
Atom   2N    basis set group =>   3
Atom   3O    basis set group =>   4
Atom   4O    basis set group =>   4
Atom   5H    basis set group =>   2
Atom   6C    basis set group =>   1
Atom   7H    basis set group =>   2
Atom   8H    basis set group =>   2
Atom   9C    basis set group =>   1
Atom  10H    basis set group =>   2
Atom  11C    basis set group =>   1
Atom  12C    basis set group =>   1
Atom  13C    basis set group =>   1
Atom  14C    basis set group =>   1
Atom  15C    basis set group =>   1
Atom  16N    basis set group =>   3
Atom  17H    basis set group =>   2
Atom  18H    basis set group =>   2
Atom  19H    basis set group =>   2
Atom  20C    basis set group =>   1
Atom  21H    basis set group =>   2
Atom  22H    basis set group =>   2
Atom  23H    basis set group =>   2
Atom  24C    basis set group =>   1
Atom  25H    basis set group =>   2
Atom  26H    basis set group =>   2
Atom  27H    basis set group =>   2
Atom  28H    basis set group =>   2
Atom  29O    basis set group =>   4
Atom  30H    basis set group =>   2
---------------------------------
AUXILIARY/J BASIS SET INFORMATION
---------------------------------
There are 4 groups of distinct atoms

 Group   1 Type C   : 12s5p4d2f1g contracted to 6s4p3d1f1g pattern {711111/2111/211/2/1}
 Group   2 Type H   : 5s2p1d contracted to 3s1p1d pattern {311/2/1}
 Group   3 Type N   : 12s5p4d2f1g contracted to 6s4p3d1f1g pattern {711111/2111/211/2/1}
 Group   4 Type O   : 12s5p4d2f1g contracted to 6s4p3d1f1g pattern {711111/2111/211/2/1}

Atom   0C    basis set group =>   1
Atom   1H    basis set group =>   2
Atom   2N    basis set group =>   3
Atom   3O    basis set group =>   4
Atom   4O    basis set group =>   4
Atom   5H    basis set group =>   2
Atom   6C    basis set group =>   1
Atom   7H    basis set group =>   2
Atom   8H    basis set group =>   2
Atom   9C    basis set group =>   1
Atom  10H    basis set group =>   2
Atom  11C    basis set group =>   1
Atom  12C    basis set group =>   1
Atom  13C    basis set group =>   1
Atom  14C    basis set group =>   1
Atom  15C    basis set group =>   1
Atom  16N    basis set group =>   3
Atom  17H    basis set group =>   2
Atom  18H    basis set group =>   2
Atom  19H    basis set group =>   2
Atom  20C    basis set group =>   1
Atom  21H    basis set group =>   2
Atom  22H    basis set group =>   2
Atom  23H    basis set group =>   2
Atom  24C    basis set group =>   1
Atom  25H    basis set group =>   2
Atom  26H    basis set group =>   2
Atom  27H    basis set group =>   2
Atom  28H    basis set group =>   2
Atom  29O    basis set group =>   4
Atom  30H    basis set group =>   2


           ************************************************************
           *        Program running with 102 parallel MPI-processes   *
           *              working on a common directory               *
           ************************************************************
------------------------------------------------------------------------------
                           ORCA GTO INTEGRAL CALCULATION
                           -- RI-GTO INTEGRALS CHOSEN --
------------------------------------------------------------------------------
------------------------------------------------------------------------------
                   ___                                                        
                  /   \      - P O W E R E D   B Y -                         
                 /     \                                                     
                 |  |  |   _    _      __       _____    __    __             
                 |  |  |  | |  | |    /  \     |  _  \  |  |  /  |          
                  \  \/   | |  | |   /    \    | | | |  |  | /  /          
                 / \  \   | |__| |  /  /\  \   | |_| |  |  |/  /          
                |  |  |   |  __  | /  /__\  \  |    /   |      \           
                |  |  |   | |  | | |   __   |  |    \   |  |\   \          
                \     /   | |  | | |  |  |  |  | |\  \  |  | \   \       
                 \___/    |_|  |_| |__|  |__|  |_| \__\ |__|  \__/        
                                                                              
                      - O R C A' S   B I G   F R I E N D -                    
                                      &                                       
                       - I N T E G R A L  F E E D E R -                       
                                                                              
 v1 FN, 2020, v2 2021                                                         
------------------------------------------------------------------------------


Reading SHARK input file /home/rudenko/mop_saddle_orca_4_serv/for_orca/CH2CHCH2NO2_lutidine/orca/start_freq_D/start_f_D.SHARKINP.tmp ... ok
----------------------
SHARK INTEGRAL PACKAGE
----------------------

Number of atoms                             ...     31
Number of basis functions                   ...    561
Number of shells                            ...    229
Maximum angular momentum                    ...      3
Integral batch strategy                     ... SHARK/LIBINT Hybrid
RI-J (if used) integral strategy            ... SPLIT-RIJ (Revised 2003 algorithm where possible)
Printlevel                                  ...      1
Contraction scheme used                     ... SEGMENTED contraction
Coulomb Range Separation                    ... NOT USED
Exchange Range Separation                   ... NOT USED
Finite Nucleus Model                        ... NOT USED
Auxiliary Coulomb fitting basis             ... AVAILABLE
   # of basis functions in Aux-J            ...    911
   # of shells in Aux-J                     ...    305
   Maximum angular momentum in Aux-J        ...      4
Auxiliary J/K fitting basis                 ... NOT available
Auxiliary Correlation fitting basis         ... NOT available
Auxiliary 'external' fitting basis          ... NOT available
Integral threshold                          ...     2.500000e-11
Primitive cut-off                           ...     2.500000e-12
Primitive pair pre-selection threshold      ...     2.500000e-12

Calculating pre-screening integrals         ... done (  0.1 sec) Dimension = 229
Organizing shell pair data                  ... done (  0.4 sec)
Shell pair information
Total number of shell pairs                 ...     26335
Shell pairs after pre-screening             ...     18349
Total number of primitive shell pairs       ...     78984
Primitive shell pairs kept                  ...     37793
          la=0 lb=0:   5286 shell pairs
          la=1 lb=0:   5424 shell pairs
          la=1 lb=1:   1437 shell pairs
          la=2 lb=0:   2464 shell pairs
          la=2 lb=1:   1292 shell pairs
          la=2 lb=2:    303 shell pairs
          la=3 lb=0:   1174 shell pairs
          la=3 lb=1:    625 shell pairs
          la=3 lb=2:    273 shell pairs
          la=3 lb=3:     71 shell pairs

Calculating one electron integrals          ... done (  0.1 sec)
Calculating RI/J V-Matrix + Cholesky decomp.... done (  0.1 sec)
Calculating Nuclear repulsion               ... done (  0.0 sec) ENN=    933.393325007889 Eh

SHARK setup successfully completed in   1.2 seconds

Maximum memory used throughout the entire GTOINT-calculation: 30.2 MB


           ************************************************************
           *        Program running with 102 parallel MPI-processes   *
           *              working on a common directory               *
           ************************************************************
-------------------------------------------------------------------------------
                                 ORCA SCF
-------------------------------------------------------------------------------

------------
SCF SETTINGS
------------
Hamiltonian:
 Density Functional     Method          .... DFT(GTOs)
 Exchange Functional    Exchange        .... B88
   X-Alpha parameter    XAlpha          ....  0.666667
   Becke's b parameter  XBeta           ....  0.004200
 Correlation Functional Correlation     .... LYP
 LDA part of GGA corr.  LDAOpt          .... VWN-5
 Gradients option       PostSCFGGA      .... off
 Hybrid DFT is turned on
   Fraction HF Exchange ScalHFX         ....  0.200000
   Scaling of DF-GGA-X  ScalDFX         ....  0.720000
   Scaling of DF-GGA-C  ScalDFC         ....  0.810000
   Scaling of DF-LDA-C  ScalLDAC        ....  1.000000
   Perturbative correction              ....  0.000000
   Density functional embedding theory  .... OFF
   NL short-range parameter             ....  4.800000
 RI-approximation to the Coulomb term is turned on
   Number of AuxJ basis functions       .... 911
   RIJ-COSX (HFX calculated with COS-X)).... on


General Settings:
 Integral files         IntName         .... /home/rudenko/mop_saddle_orca_4_serv/for_orca/CH2CHCH2NO2_lutidine/orca/start_freq_D/start_f_D
 Hartree-Fock type      HFTyp           .... RHF
 Total Charge           Charge          ....    0
 Multiplicity           Mult            ....    1
 Number of Electrons    NEL             ....  114
 Basis Dimension        Dim             ....  561
 Nuclear Repulsion      ENuc            ....    933.3933250079 Eh

Convergence Acceleration:
 DIIS                   CNVDIIS         .... on
   Start iteration      DIISMaxIt       ....    12
   Startup error        DIISStart       ....  0.200000
   # of expansion vecs  DIISMaxEq       ....     5
   Bias factor          DIISBfac        ....   1.050
   Max. coefficient     DIISMaxC        ....  10.000
 Trust-Rad. Augm. Hess. CNVTRAH         .... auto
   Auto Start mean grad. ratio tolernc. ....  1.125000
   Auto Start start iteration           ....    20
   Auto Start num. interpolation iter.  ....    10
   Max. Number of Micro iterations      ....    16
   Max. Number of Macro iterations      .... Maxiter - #DIIS iter
   Number of Davidson start vectors     ....     2
   Converg. threshold I  (grad. norm)   ....   1.000e-05
   Converg. threshold II (energy diff.) ....   1.000e-08
   Grad. Scal. Fac. for Micro threshold ....   0.100
   Minimum threshold for Micro iter.    ....   0.010
   NR start threshold (gradient norm)   ....   0.001
   Initial trust radius                 ....   0.400
   Minimum AH scaling param. (alpha)    ....   1.000
   Maximum AH scaling param. (alpha)    .... 1000.000
   Orbital update algorithm             .... Taylor
   White noise on init. David. guess    .... on
   Maximum white noise                  ....   0.010
   Quad. conv. algorithm                .... NR
 SOSCF                  CNVSOSCF        .... on
   Start iteration      SOSCFMaxIt      ....   150
   Startup grad/error   SOSCFStart      ....  0.003300
 Level Shifting         CNVShift        .... on
   Level shift para.    LevelShift      ....    0.2500
   Turn off err/grad.   ShiftErr        ....    0.0010
 Zerner damping         CNVZerner       .... off
 Static damping         CNVDamp         .... on
   Fraction old density DampFac         ....    0.7000
   Max. Damping (<1)    DampMax         ....    0.9800
   Min. Damping (>=0)   DampMin         ....    0.0000
   Turn off err/grad.   DampErr         ....    0.1000
 Fernandez-Rico         CNVRico         .... off

SCF Procedure:
 Maximum # iterations   MaxIter         ....   125
 SCF integral mode      SCFMode         .... Direct
   Integral package                     .... SHARK and LIBINT hybrid scheme
 Reset frequency        DirectResetFreq ....    20
 Integral Threshold     Thresh          ....  2.500e-11 Eh
 Primitive CutOff       TCut            ....  2.500e-12 Eh

Convergence Tolerance:
 Convergence Check Mode ConvCheckMode   .... Total+1el-Energy
 Convergence forced     ConvForced      .... 0
 Energy Change          TolE            ....  1.000e-08 Eh
 1-El. energy change                    ....  1.000e-05 Eh
 Orbital Gradient       TolG            ....  1.000e-05
 Orbital Rotation angle TolX            ....  1.000e-05
 DIIS Error             TolErr          ....  5.000e-07


Diagonalization of the overlap matrix:
Smallest eigenvalue                        ... 3.216e-05
Time for diagonalization                   ...    0.173 sec
Threshold for overlap eigenvalues          ... 1.000e-08
Number of eigenvalues below threshold      ... 0
Time for construction of square roots      ...    0.232 sec
Total time needed                          ...    0.408 sec

Time for model grid setup =    0.224 sec

------------------------------
INITIAL GUESS: MODEL POTENTIAL
------------------------------
Loading Hartree-Fock densities                     ... done
Calculating cut-offs                               ... done
Initializing the effective Hamiltonian             ... done
Setting up the integral package (SHARK)            ... done
Starting the Coulomb interaction                   ... done (   0.1 sec)
Reading the grid                                   ... done
Mapping shells                                     ... done
Starting the XC term evaluation                    ... done (   0.0 sec)
  promolecular density results
     # of electrons  =    113.988281385
     EX              =    -93.865790103
     EC              =     -3.846519512
     EX+EC           =    -97.712309615
Transforming the Hamiltonian                       ... done (   0.2 sec)
Diagonalizing the Hamiltonian                      ... done (   0.2 sec)
Back transforming the eigenvectors                 ... done (   0.1 sec)
Now organizing SCF variables                       ... done
                      ------------------
                      INITIAL GUESS DONE (   0.9 sec)
                      ------------------
-------------------
DFT GRID GENERATION
-------------------

General Integration Accuracy     IntAcc      ... 4.388
Radial Grid Type                 RadialGrid  ... OptM3 with GC (2021)
Angular Grid (max. ang.)         AngularGrid ... 4 (Lebedev-302)
Angular grid pruning method      GridPruning ... 4 (adaptive)
Weight generation scheme         WeightScheme... Becke
Basis function cutoff            BFCut       ... 1.0000e-11
Integration weight cutoff        WCut        ... 1.0000e-14
Angular grids for H and He will be reduced by one unit
Partially contracted basis set               ... off
Rotationally invariant grid construction     ... off

Total number of grid points                  ...   141530
Total number of batches                      ...     2226
Average number of points per batch           ...       63
Average number of grid points per atom       ...     4565
Time for grid setup =    1.107 sec

--------------------
COSX GRID GENERATION
--------------------

GRIDX 1
-------
General Integration Accuracy     IntAcc      ... 3.816
Radial Grid Type                 RadialGrid  ... OptM3 with GC (2021)
Angular Grid (max. ang.)         AngularGrid ... 1 (Lebedev-50)
Angular grid pruning method      GridPruning ... 4 (adaptive)
Weight generation scheme         WeightScheme... Becke
Basis function cutoff            BFCut       ... 1.0000e-11
Integration weight cutoff        WCut        ... 1.0000e-14
Angular grids for H and He will be reduced by one unit
Partially contracted basis set               ... on
Rotationally invariant grid construction     ... off

Total number of grid points                  ...    18075
Total number of batches                      ...      298
Average number of points per batch           ...       60
Average number of grid points per atom       ...      583
UseSFitting                                  ... on

GRIDX 2
-------
General Integration Accuracy     IntAcc      ... 4.020
Radial Grid Type                 RadialGrid  ... OptM3 with GC (2021)
Angular Grid (max. ang.)         AngularGrid ... 2 (Lebedev-110)
Angular grid pruning method      GridPruning ... 4 (adaptive)
Weight generation scheme         WeightScheme... Becke
Basis function cutoff            BFCut       ... 1.0000e-11
Integration weight cutoff        WCut        ... 1.0000e-14
Angular grids for H and He will be reduced by one unit
Partially contracted basis set               ... on
Rotationally invariant grid construction     ... off

Total number of grid points                  ...    38816
Total number of batches                      ...      621
Average number of points per batch           ...       62
Average number of grid points per atom       ...     1252
UseSFitting                                  ... on

GRIDX 3
-------
General Integration Accuracy     IntAcc      ... 4.338
Radial Grid Type                 RadialGrid  ... OptM3 with GC (2021)
Angular Grid (max. ang.)         AngularGrid ... 3 (Lebedev-194)
Angular grid pruning method      GridPruning ... 4 (adaptive)
Weight generation scheme         WeightScheme... Becke
Basis function cutoff            BFCut       ... 1.0000e-11
Integration weight cutoff        WCut        ... 1.0000e-14
Angular grids for H and He will be reduced by one unit
Partially contracted basis set               ... on
Rotationally invariant grid construction     ... off

Total number of grid points                  ...    84775
Total number of batches                      ...     1342
Average number of points per batch           ...       63
Average number of grid points per atom       ...     2735
UseSFitting                                  ... on

Time for X-Grid setup             =    1.652 sec


--------------------
CPCM SOLVATION MODEL
--------------------
CPCM parameters:
  Epsilon                                         ...      78.4000
  Refrac                                          ...       1.3300
  Rsolv                                           ...       1.3000
  Surface type                                    ... GAUSSIAN VDW
  Epsilon function type                           ...         CPCM
Radii:
 Radius for C  used is    3.8550 Bohr (=   2.0400 Ang.)
 Radius for H  used is    2.4944 Bohr (=   1.3200 Ang.)
 Radius for N  used is    3.5149 Bohr (=   1.8600 Ang.)
 Radius for O  used is    3.4469 Bohr (=   1.8240 Ang.)
Calculating surface                               ...        done! (  0.0s)
GEPOL surface points                              ...         1808
GEPOL Volume                                      ...    1885.7316
GEPOL Surface-area                                ...    1078.2710
Calculating surface distance matrix               ...        done! (  0.2s)
Performing Cholesky decomposition & store         ...        done! (  0.6s)
Overall time for CPCM initialization              ...                 0.8s
--------------
SCF ITERATIONS
--------------
ITER       Energy         Delta-E        Max-DP      RMS-DP      [F,P]     Damp
               ***  Starting incremental Fock matrix formation  ***
  0   -725.1421349714   0.000000000000 0.05636590  0.00088464  0.3450720 0.7000
  1   -725.3904944279  -0.248359456447 0.04687102  0.00066620  0.1384412 0.7000
                               ***Turning on DIIS***
  2   -725.4830603709  -0.092565943008 0.06233475  0.00106584  0.0401801 0.0000
  3   -725.6345013341  -0.151440963222 0.04029962  0.00048968  0.0782090 0.0000
  4   -725.6650952463  -0.030593912208 0.01120904  0.00016622  0.0162302 0.0000
  5   -725.6672078014  -0.002112555078 0.00420778  0.00007315  0.0050384 0.0000
                      *** Initiating the SOSCF procedure ***
                           *** Shutting down DIIS ***
                      *** Re-Reading the Fockian *** 
                      *** Removing any level shift *** 
ITER      Energy       Delta-E        Grad      Rot      Max-DP    RMS-DP
  6   -725.66735122  -0.0001434176  0.000261  0.000261  0.001938  0.000032
               *** Restarting incremental Fock matrix formation ***
  7   -725.66738133  -0.0000301090  0.000169  0.000356  0.001263  0.000018
  8   -725.66738000   0.0000013233  0.000285  0.000267  0.000498  0.000007
  9   -725.66738387  -0.0000038623  0.000051  0.000123  0.000091  0.000002
 10   -725.66738379   0.0000000808  0.000083  0.000113  0.000073  0.000001
 11   -725.66738392  -0.0000001296  0.000024  0.000072  0.000039  0.000001
 12   -725.66738391   0.0000000101  0.000044  0.000050  0.000029  0.000000
 13   -725.66738392  -0.0000000094  0.000003  0.000006  0.000034  0.000000
 14   -725.66738391   0.0000000082  0.000003  0.000003  0.000012  0.000000
                  ***Gradient check signals convergence***
              ***Rediagonalizing the Fockian in SOSCF/NRSCF***

               *****************************************************
               *                     SUCCESS                       *
               *           SCF CONVERGED AFTER  15 CYCLES          *
               *****************************************************

Old exchange energy                            =    -19.064164997 Eh
New exchange energy                            =    -19.064164936 Eh
Exchange energy change after final integration =      0.000000061 Eh
Total energy after final integration           =   -725.667383862 Eh
Final COS-X integration done in                =     1.866 sec

----------------
TOTAL SCF ENERGY
----------------

Total Energy       :         -725.66738386 Eh          -19746.41340 eV

Components:
Nuclear Repulsion  :          933.39332501 Eh           25398.92363 eV
Electronic Energy  :        -1659.06070887 Eh          -45145.33703 eV
One Electron Energy:        -2838.51117709 Eh          -77239.81593 eV
Two Electron Energy:         1179.45046822 Eh           32094.47889 eV
Max COSX asymmetry :            0.00000110 Eh               0.00003 eV
CPCM Dielectric    :           -0.02912845 Eh              -0.79263 eV

Virial components:
Potential Energy   :        -1448.22801345 Eh          -39408.28772 eV
Kinetic Energy     :          722.56062959 Eh           19661.87432 eV
Virial Ratio       :            2.00429965


DFT components:
N(Alpha)           :       57.000141807058 electrons
N(Beta)            :       57.000141807058 electrons
N(Total)           :      114.000283614117 electrons
E(X)               :      -75.842573911308 Eh       
E(C)               :       -4.546608483748 Eh       
E(XC)              :      -80.389182395056 Eh       
DFET-embed. en.    :        0.000000000000 Eh       
CPCM Solvation Model Properties:
Surface-charge          :           -0.03000431
Charge-correction       :           -0.00013274 Eh              -0.00361 eV
Free-energy (cav+disp)  :  This term is not implemented in the current solvation scheme

---------------
SCF CONVERGENCE
---------------

  Last Energy change         ...   -1.6054e-08  Tolerance :   1.0000e-08
  Last MAX-Density change    ...    1.5543e-15  Tolerance :   1.0000e-07
  Last RMS-Density change    ...    1.3943e-17  Tolerance :   5.0000e-09
  Last Orbital Gradient      ...    3.2804e-07  Tolerance :   1.0000e-05
  Last Orbital Rotation      ...    1.1672e-06  Tolerance :   1.0000e-05

             **** THE GBW FILE WAS UPDATED (/home/rudenko/mop_saddle_orca_4_serv/for_orca/CH2CHCH2NO2_lutidine/orca/start_freq_D/start_f_D.gbw) ****
             **** DENSITY /home/rudenko/mop_saddle_orca_4_serv/for_orca/CH2CHCH2NO2_lutidine/orca/start_freq_D/start_f_D.scfp WAS UPDATED ****
             **** ENERGY FILE WAS UPDATED (/home/rudenko/mop_saddle_orca_4_serv/for_orca/CH2CHCH2NO2_lutidine/orca/start_freq_D/start_f_D.en.tmp) ****
             **** THE GBW FILE WAS UPDATED (/home/rudenko/mop_saddle_orca_4_serv/for_orca/CH2CHCH2NO2_lutidine/orca/start_freq_D/start_f_D.gbw) ****
             **** DENSITY /home/rudenko/mop_saddle_orca_4_serv/for_orca/CH2CHCH2NO2_lutidine/orca/start_freq_D/start_f_D.scfp WAS UPDATED ****
----------------
ORBITAL ENERGIES
----------------

  NO   OCC          E(Eh)            E(eV) 
   0   2.0000     -19.171951      -521.6953 
   1   2.0000     -19.168254      -521.5947 
   2   2.0000     -19.102644      -519.8094 
   3   2.0000     -14.555005      -396.0618 
   4   2.0000     -14.322098      -389.7241 
   5   2.0000     -10.224272      -278.2166 
   6   2.0000     -10.205841      -277.7150 
   7   2.0000     -10.205069      -277.6940 
   8   2.0000     -10.197317      -277.4831 
   9   2.0000     -10.187641      -277.2198 
  10   2.0000     -10.184234      -277.1271 
  11   2.0000     -10.176767      -276.9239 
  12   2.0000     -10.173208      -276.8271 
  13   2.0000     -10.165091      -276.6062 
  14   2.0000     -10.164071      -276.5784 
  15   2.0000      -1.241479       -33.7824 
  16   2.0000      -1.068284       -29.0695 
  17   2.0000      -0.985065       -26.8050 
  18   2.0000      -0.950089       -25.8532 
  19   2.0000      -0.834978       -22.7209 
  20   2.0000      -0.830160       -22.5898 
  21   2.0000      -0.778971       -21.1969 
  22   2.0000      -0.753559       -20.5054 
  23   2.0000      -0.717347       -19.5200 
  24   2.0000      -0.693551       -18.8725 
  25   2.0000      -0.630142       -17.1470 
  26   2.0000      -0.619657       -16.8617 
  27   2.0000      -0.595524       -16.2050 
  28   2.0000      -0.575726       -15.6663 
  29   2.0000      -0.554210       -15.0808 
  30   2.0000      -0.542622       -14.7655 
  31   2.0000      -0.527415       -14.3517 
  32   2.0000      -0.518579       -14.1112 
  33   2.0000      -0.504599       -13.7308 
  34   2.0000      -0.493999       -13.4424 
  35   2.0000      -0.471108       -12.8195 
  36   2.0000      -0.453960       -12.3529 
  37   2.0000      -0.442044       -12.0286 
  38   2.0000      -0.440477       -11.9860 
  39   2.0000      -0.419672       -11.4198 
  40   2.0000      -0.403785       -10.9876 
  41   2.0000      -0.400920       -10.9096 
  42   2.0000      -0.398636       -10.8474 
  43   2.0000      -0.394047       -10.7226 
  44   2.0000      -0.390995       -10.6395 
  45   2.0000      -0.385902       -10.5009 
  46   2.0000      -0.370513       -10.0822 
  47   2.0000      -0.367330        -9.9956 
  48   2.0000      -0.351570        -9.5667 
  49   2.0000      -0.330908        -9.0045 
  50   2.0000      -0.323373        -8.7994 
  51   2.0000      -0.311811        -8.4848 
  52   2.0000      -0.297604        -8.0982 
  53   2.0000      -0.279913        -7.6168 
  54   2.0000      -0.279180        -7.5969 
  55   2.0000      -0.274194        -7.4612 
  56   2.0000      -0.259265        -7.0550 
  57   0.0000      -0.078137        -2.1262 
  58   0.0000      -0.034105        -0.9280 
  59   0.0000      -0.018756        -0.5104 
  60   0.0000      -0.010459        -0.2846 
  61   0.0000       0.040034         1.0894 
  62   0.0000       0.045113         1.2276 
  63   0.0000       0.061279         1.6675 
  64   0.0000       0.076665         2.0862 
  65   0.0000       0.081437         2.2160 
  66   0.0000       0.088028         2.3954 
  67   0.0000       0.095684         2.6037 
  68   0.0000       0.100648         2.7388 
  69   0.0000       0.109853         2.9893 
  70   0.0000       0.116099         3.1592 
  71   0.0000       0.119580         3.2539 
  72   0.0000       0.121282         3.3003 
  73   0.0000       0.126147         3.4326 
  74   0.0000       0.135333         3.6826 
  75   0.0000       0.149574         4.0701 
  76   0.0000       0.152676         4.1545 
  77   0.0000       0.158055         4.3009 
  78   0.0000       0.162276         4.4157 
  79   0.0000       0.164901         4.4872 
  80   0.0000       0.177323         4.8252 
  81   0.0000       0.182361         4.9623 
  82   0.0000       0.191648         5.2150 
  83   0.0000       0.194024         5.2797 
  84   0.0000       0.205118         5.5816 
  85   0.0000       0.205522         5.5925 
  86   0.0000       0.207907         5.6574 
  87   0.0000       0.216411         5.8888 
  88   0.0000       0.224942         6.1210 
  89   0.0000       0.238761         6.4970 
  90   0.0000       0.246600         6.7103 
  91   0.0000       0.251725         6.8498 
  92   0.0000       0.264076         7.1859 
  93   0.0000       0.268296         7.3007 
  94   0.0000       0.270862         7.3705 
  95   0.0000       0.273403         7.4397 
  96   0.0000       0.277540         7.5523 
  97   0.0000       0.286260         7.7895 
  98   0.0000       0.287700         7.8287 
  99   0.0000       0.305580         8.3153 
 100   0.0000       0.308445         8.3932 
 101   0.0000       0.312076         8.4920 
 102   0.0000       0.315287         8.5794 
 103   0.0000       0.317805         8.6479 
 104   0.0000       0.334434         9.1004 
 105   0.0000       0.339095         9.2272 
 106   0.0000       0.344678         9.3792 
 107   0.0000       0.350538         9.5386 
 108   0.0000       0.357429         9.7261 
 109   0.0000       0.363512         9.8917 
 110   0.0000       0.375907        10.2290 
 111   0.0000       0.384100        10.4519 
 112   0.0000       0.391488        10.6529 
 113   0.0000       0.393240        10.7006 
 114   0.0000       0.406134        11.0515 
 115   0.0000       0.411720        11.2035 
 116   0.0000       0.413613        11.2550 
 117   0.0000       0.418105        11.3772 
 118   0.0000       0.422665        11.5013 
 119   0.0000       0.428622        11.6634 
 120   0.0000       0.433514        11.7965 
 121   0.0000       0.439589        11.9618 
 122   0.0000       0.443913        12.0795 
 123   0.0000       0.450573        12.2607 
 124   0.0000       0.451716        12.2918 
 125   0.0000       0.455231        12.3875 
 126   0.0000       0.457763        12.4564 
 127   0.0000       0.465423        12.6648 
 128   0.0000       0.476625        12.9696 
 129   0.0000       0.480011        13.0618 
 130   0.0000       0.486471        13.2376 
 131   0.0000       0.490572        13.3491 
 132   0.0000       0.497679        13.5425 
 133   0.0000       0.501851        13.6561 
 134   0.0000       0.504819        13.7368 
 135   0.0000       0.513105        13.9623 
 136   0.0000       0.516994        14.0681 
 137   0.0000       0.524609        14.2753 
 138   0.0000       0.528292        14.3755 
 139   0.0000       0.533525        14.5180 
 140   0.0000       0.540560        14.7094 
 141   0.0000       0.556576        15.1452 
 142   0.0000       0.565107        15.3773 
 143   0.0000       0.570056        15.5120 
 144   0.0000       0.574768        15.6402 
 145   0.0000       0.582730        15.8569 
 146   0.0000       0.591526        16.0962 
 147   0.0000       0.600943        16.3525 
 148   0.0000       0.606036        16.4911 
 149   0.0000       0.618765        16.8374 
 150   0.0000       0.623751        16.9731 
 151   0.0000       0.629304        17.1242 
 152   0.0000       0.635424        17.2908 
 153   0.0000       0.644831        17.5468 
 154   0.0000       0.649292        17.6681 
 155   0.0000       0.660050        17.9609 
 156   0.0000       0.663974        18.0677 
 157   0.0000       0.679819        18.4988 
 158   0.0000       0.695345        18.9213 
 159   0.0000       0.708566        19.2811 
 160   0.0000       0.720182        19.5971 
 161   0.0000       0.724092        19.7035 
 162   0.0000       0.727967        19.8090 
 163   0.0000       0.732569        19.9342 
 164   0.0000       0.744611        20.2619 
 165   0.0000       0.749632        20.3985 
 166   0.0000       0.757928        20.6243 
 167   0.0000       0.769533        20.9401 
 168   0.0000       0.776423        21.1275 
 169   0.0000       0.801720        21.8159 
 170   0.0000       0.807929        21.9849 
 171   0.0000       0.819679        22.3046 
 172   0.0000       0.832094        22.6424 
 173   0.0000       0.842572        22.9276 
 174   0.0000       0.865423        23.5494 
 175   0.0000       0.875158        23.8143 
 176   0.0000       0.898585        24.4517 
 177   0.0000       0.900724        24.5099 
 178   0.0000       0.910678        24.7808 
 179   0.0000       0.922348        25.0984 
 180   0.0000       0.929727        25.2992 
 181   0.0000       0.949746        25.8439 
 182   0.0000       0.957539        26.0560 
 183   0.0000       0.971976        26.4488 
 184   0.0000       0.982449        26.7338 
 185   0.0000       0.991616        26.9832 
 186   0.0000       0.994705        27.0673 
 187   0.0000       1.016121        27.6500 
 188   0.0000       1.023530        27.8517 
 189   0.0000       1.036016        28.1914 
 190   0.0000       1.044931        28.4340 
 191   0.0000       1.061802        28.8931 
 192   0.0000       1.082534        29.4573 
 193   0.0000       1.089201        29.6387 
 194   0.0000       1.098217        29.8840 
 195   0.0000       1.115554        30.3558 
 196   0.0000       1.133399        30.8413 
 197   0.0000       1.140922        31.0461 
 198   0.0000       1.146364        31.1942 
 199   0.0000       1.151873        31.3441 
 200   0.0000       1.163124        31.6502 
 201   0.0000       1.180165        32.1139 
 202   0.0000       1.192528        32.4503 
 203   0.0000       1.214107        33.0375 
 204   0.0000       1.218249        33.1502 
 205   0.0000       1.222353        33.2619 
 206   0.0000       1.240384        33.7526 
 207   0.0000       1.256238        34.1840 
 208   0.0000       1.266635        34.4669 
 209   0.0000       1.270612        34.5751 
 210   0.0000       1.281372        34.8679 
 211   0.0000       1.299814        35.3697 
 212   0.0000       1.310899        35.6714 
 213   0.0000       1.317337        35.8466 
 214   0.0000       1.330078        36.1933 
 215   0.0000       1.345893        36.6236 
 216   0.0000       1.364310        37.1248 
 217   0.0000       1.368122        37.2285 
 218   0.0000       1.373304        37.3695 
 219   0.0000       1.380239        37.5582 
 220   0.0000       1.393047        37.9067 
 221   0.0000       1.410567        38.3835 
 222   0.0000       1.433962        39.0201 
 223   0.0000       1.448091        39.4045 
 224   0.0000       1.453766        39.5590 
 225   0.0000       1.459083        39.7037 
 226   0.0000       1.466192        39.8971 
 227   0.0000       1.484356        40.3914 
 228   0.0000       1.493169        40.6312 
 229   0.0000       1.507230        41.0138 
 230   0.0000       1.513804        41.1927 
 231   0.0000       1.520886        41.3854 
 232   0.0000       1.534229        41.7485 
 233   0.0000       1.536751        41.8171 
 234   0.0000       1.549956        42.1764 
 235   0.0000       1.553327        42.2682 
 236   0.0000       1.562144        42.5081 
 237   0.0000       1.570993        42.7489 
 238   0.0000       1.578590        42.9556 
 239   0.0000       1.582685        43.0670 
 240   0.0000       1.595277        43.4097 
 241   0.0000       1.605499        43.6878 
 242   0.0000       1.611653        43.8553 
 243   0.0000       1.620065        44.0842 
 244   0.0000       1.629946        44.3531 
 245   0.0000       1.638486        44.5855 
 246   0.0000       1.640157        44.6309 
 247   0.0000       1.647963        44.8434 
 248   0.0000       1.660369        45.1809 
 249   0.0000       1.669281        45.4234 
 250   0.0000       1.687471        45.9184 
 251   0.0000       1.693457        46.0813 
 252   0.0000       1.704465        46.3808 
 253   0.0000       1.718270        46.7565 
 254   0.0000       1.724565        46.9278 
 255   0.0000       1.746865        47.5346 
 256   0.0000       1.759308        47.8732 
 257   0.0000       1.767683        48.1011 
 258   0.0000       1.775551        48.3152 
 259   0.0000       1.784175        48.5499 
 260   0.0000       1.798737        48.9461 
 261   0.0000       1.802860        49.0583 
 262   0.0000       1.819545        49.5123 
 263   0.0000       1.827937        49.7407 
 264   0.0000       1.833733        49.8984 
 265   0.0000       1.842133        50.1270 
 266   0.0000       1.847795        50.2811 
 267   0.0000       1.860042        50.6143 
 268   0.0000       1.883872        51.2628 
 269   0.0000       1.898759        51.6679 
 270   0.0000       1.915081        52.1120 
 271   0.0000       1.935811        52.6761 
 272   0.0000       1.939785        52.7842 
 273   0.0000       1.953287        53.1516 
 274   0.0000       1.966484        53.5107 
 275   0.0000       1.969367        53.5892 
 276   0.0000       1.980219        53.8845 
 277   0.0000       1.992700        54.2241 
 278   0.0000       2.010098        54.6975 
 279   0.0000       2.016539        54.8728 
 280   0.0000       2.028266        55.1919 
 281   0.0000       2.047313        55.7102 
 282   0.0000       2.059446        56.0404 
 283   0.0000       2.069648        56.3180 
 284   0.0000       2.074724        56.4561 
 285   0.0000       2.105104        57.2828 
 286   0.0000       2.113823        57.5201 
 287   0.0000       2.128250        57.9126 
 288   0.0000       2.136996        58.1506 
 289   0.0000       2.140976        58.2589 
 290   0.0000       2.177992        59.2662 
 291   0.0000       2.191183        59.6251 
 292   0.0000       2.198755        59.8312 
 293   0.0000       2.207343        60.0649 
 294   0.0000       2.217128        60.3311 
 295   0.0000       2.221394        60.4472 
 296   0.0000       2.234003        60.7903 
 297   0.0000       2.243619        61.0520 
 298   0.0000       2.255052        61.3631 
 299   0.0000       2.265039        61.6349 
 300   0.0000       2.295163        62.4545 
 301   0.0000       2.307259        62.7837 
 302   0.0000       2.312802        62.9345 
 303   0.0000       2.319798        63.1249 
 304   0.0000       2.331239        63.4363 
 305   0.0000       2.337402        63.6039 
 306   0.0000       2.347140        63.8689 
 307   0.0000       2.353078        64.0305 
 308   0.0000       2.368455        64.4489 
 309   0.0000       2.372578        64.5611 
 310   0.0000       2.375621        64.6439 
 311   0.0000       2.396083        65.2007 
 312   0.0000       2.415129        65.7190 
 313   0.0000       2.422796        65.9276 
 314   0.0000       2.430515        66.1377 
 315   0.0000       2.448624        66.6305 
 316   0.0000       2.460167        66.9446 
 317   0.0000       2.469284        67.1926 
 318   0.0000       2.481445        67.5235 
 319   0.0000       2.509505        68.2871 
 320   0.0000       2.521278        68.6075 
 321   0.0000       2.528493        68.8038 
 322   0.0000       2.534633        68.9709 
 323   0.0000       2.545436        69.2648 
 324   0.0000       2.553955        69.4967 
 325   0.0000       2.557492        69.5929 
 326   0.0000       2.560176        69.6659 
 327   0.0000       2.567530        69.8660 
 328   0.0000       2.582989        70.2867 
 329   0.0000       2.598313        70.7037 
 330   0.0000       2.599672        70.7407 
 331   0.0000       2.603968        70.8576 
 332   0.0000       2.612635        71.0934 
 333   0.0000       2.631567        71.6086 
 334   0.0000       2.634733        71.6947 
 335   0.0000       2.651629        72.1545 
 336   0.0000       2.652499        72.1782 
 337   0.0000       2.662455        72.4491 
 338   0.0000       2.667581        72.5886 
 339   0.0000       2.692193        73.2583 
 340   0.0000       2.701026        73.4986 
 341   0.0000       2.705533        73.6213 
 342   0.0000       2.723130        74.1001 
 343   0.0000       2.737913        74.5024 
 344   0.0000       2.751098        74.8612 
 345   0.0000       2.760170        75.1080 
 346   0.0000       2.777403        75.5770 
 347   0.0000       2.789847        75.9156 
 348   0.0000       2.802881        76.2703 
 349   0.0000       2.812563        76.5337 
 350   0.0000       2.827129        76.9301 
 351   0.0000       2.832188        77.0678 
 352   0.0000       2.835702        77.1634 
 353   0.0000       2.865431        77.9723 
 354   0.0000       2.867145        78.0190 
 355   0.0000       2.886258        78.5391 
 356   0.0000       2.889928        78.6389 
 357   0.0000       2.917457        79.3880 
 358   0.0000       2.925085        79.5956 
 359   0.0000       2.932190        79.7889 
 360   0.0000       2.941590        80.0447 
 361   0.0000       2.954534        80.3970 
 362   0.0000       2.959480        80.5316 
 363   0.0000       2.963990        80.6543 
 364   0.0000       2.977214        81.0141 
 365   0.0000       2.990093        81.3646 
 366   0.0000       2.998709        81.5990 
 367   0.0000       3.003047        81.7171 
 368   0.0000       3.020327        82.1873 
 369   0.0000       3.043168        82.8088 
 370   0.0000       3.050337        83.0039 
 371   0.0000       3.056908        83.1827 
 372   0.0000       3.060605        83.2833 
 373   0.0000       3.072260        83.6004 
 374   0.0000       3.076332        83.7113 
 375   0.0000       3.084992        83.9469 
 376   0.0000       3.086274        83.9818 
 377   0.0000       3.100249        84.3621 
 378   0.0000       3.113081        84.7112 
 379   0.0000       3.127534        85.1045 
 380   0.0000       3.136677        85.3533 
 381   0.0000       3.143672        85.5437 
 382   0.0000       3.161502        86.0288 
 383   0.0000       3.165422        86.1355 
 384   0.0000       3.176619        86.4402 
 385   0.0000       3.186193        86.7007 
 386   0.0000       3.193341        86.8952 
 387   0.0000       3.196476        86.9805 
 388   0.0000       3.205401        87.2234 
 389   0.0000       3.212814        87.4251 
 390   0.0000       3.225676        87.7751 
 391   0.0000       3.234228        88.0078 
 392   0.0000       3.241664        88.2102 
 393   0.0000       3.255433        88.5848 
 394   0.0000       3.269883        88.9780 
 395   0.0000       3.275839        89.1401 
 396   0.0000       3.278748        89.2193 
 397   0.0000       3.296935        89.7142 
 398   0.0000       3.303458        89.8917 
 399   0.0000       3.308466        90.0279 
 400   0.0000       3.311930        90.1222 
 401   0.0000       3.319310        90.3230 
 402   0.0000       3.323246        90.4301 
 403   0.0000       3.340087        90.8884 
 404   0.0000       3.347259        91.0835 
 405   0.0000       3.361340        91.4667 
 406   0.0000       3.366263        91.6007 
 407   0.0000       3.380279        91.9821 
 408   0.0000       3.387378        92.1752 
 409   0.0000       3.396166        92.4144 
 410   0.0000       3.398045        92.4655 
 411   0.0000       3.423425        93.1561 
 412   0.0000       3.431012        93.3626 
 413   0.0000       3.448978        93.8515 
 414   0.0000       3.477509        94.6278 
 415   0.0000       3.498826        95.2079 
 416   0.0000       3.523061        95.8674 
 417   0.0000       3.536355        96.2291 
 418   0.0000       3.552875        96.6787 
 419   0.0000       3.562740        96.9471 
 420   0.0000       3.573247        97.2330 
 421   0.0000       3.597561        97.8946 
 422   0.0000       3.600543        97.9758 
 423   0.0000       3.619407        98.4891 
 424   0.0000       3.657686        99.5307 
 425   0.0000       3.661206        99.6265 
 426   0.0000       3.679003       100.1108 
 427   0.0000       3.715668       101.1085 
 428   0.0000       3.725543       101.3772 
 429   0.0000       3.734446       101.6194 
 430   0.0000       3.743823       101.8746 
 431   0.0000       3.768591       102.5486 
 432   0.0000       3.773933       102.6939 
 433   0.0000       3.782807       102.9354 
 434   0.0000       3.804427       103.5237 
 435   0.0000       3.829570       104.2079 
 436   0.0000       3.834470       104.3412 
 437   0.0000       3.874569       105.4324 
 438   0.0000       3.880009       105.5804 
 439   0.0000       3.905593       106.2766 
 440   0.0000       3.915553       106.5476 
 441   0.0000       3.929910       106.9383 
 442   0.0000       3.962617       107.8283 
 443   0.0000       3.989078       108.5483 
 444   0.0000       4.014220       109.2325 
 445   0.0000       4.024335       109.5077 
 446   0.0000       4.030205       109.6675 
 447   0.0000       4.053889       110.3119 
 448   0.0000       4.073680       110.8505 
 449   0.0000       4.093280       111.3838 
 450   0.0000       4.113225       111.9265 
 451   0.0000       4.139932       112.6533 
 452   0.0000       4.153016       113.0093 
 453   0.0000       4.158235       113.1513 
 454   0.0000       4.169238       113.4507 
 455   0.0000       4.188691       113.9801 
 456   0.0000       4.214864       114.6923 
 457   0.0000       4.219823       114.8272 
 458   0.0000       4.228560       115.0650 
 459   0.0000       4.255069       115.7863 
 460   0.0000       4.292096       116.7939 
 461   0.0000       4.303894       117.1149 
 462   0.0000       4.324344       117.6714 
 463   0.0000       4.366538       118.8195 
 464   0.0000       4.381671       119.2313 
 465   0.0000       4.389670       119.4490 
 466   0.0000       4.408571       119.9633 
 467   0.0000       4.429051       120.5206 
 468   0.0000       4.429850       120.5423 
 469   0.0000       4.489485       122.1651 
 470   0.0000       4.529718       123.2599 
 471   0.0000       4.534348       123.3859 
 472   0.0000       4.560109       124.0869 
 473   0.0000       4.563661       124.1835 
 474   0.0000       4.576863       124.5428 
 475   0.0000       4.590321       124.9090 
 476   0.0000       4.604070       125.2831 
 477   0.0000       4.606845       125.3586 
 478   0.0000       4.615493       125.5939 
 479   0.0000       4.640584       126.2767 
 480   0.0000       4.655969       126.6954 
 481   0.0000       4.701114       127.9238 
 482   0.0000       4.706372       128.0669 
 483   0.0000       4.715465       128.3143 
 484   0.0000       4.789341       130.3246 
 485   0.0000       4.827432       131.3611 
 486   0.0000       4.829309       131.4122 
 487   0.0000       4.851924       132.0276 
 488   0.0000       4.869359       132.5020 
 489   0.0000       4.871742       132.5668 
 490   0.0000       4.933598       134.2500 
 491   0.0000       4.950965       134.7226 
 492   0.0000       4.957948       134.9126 
 493   0.0000       5.037178       137.0686 
 494   0.0000       5.049024       137.3909 
 495   0.0000       5.083643       138.3330 
 496   0.0000       5.113106       139.1347 
 497   0.0000       5.117984       139.2674 
 498   0.0000       5.123142       139.4078 
 499   0.0000       5.137780       139.8061 
 500   0.0000       5.148405       140.0952 
 501   0.0000       5.160458       140.4232 
 502   0.0000       5.165647       140.5644 
 503   0.0000       5.219820       142.0385 
 504   0.0000       5.245160       142.7281 
 505   0.0000       5.264588       143.2567 
 506   0.0000       5.290432       143.9600 
 507   0.0000       5.291652       143.9932 
 508   0.0000       5.311737       144.5397 
 509   0.0000       5.325249       144.9074 
 510   0.0000       5.342752       145.3837 
 511   0.0000       5.399762       146.9350 
 512   0.0000       5.428186       147.7085 
 513   0.0000       5.481433       149.1574 
 514   0.0000       5.543229       150.8389 
 515   0.0000       5.571582       151.6105 
 516   0.0000       5.584367       151.9583 
 517   0.0000       5.605888       152.5440 
 518   0.0000       5.668705       154.2533 
 519   0.0000       5.672143       154.3469 
 520   0.0000       5.690494       154.8462 
 521   0.0000       5.797681       157.7629 
 522   0.0000       5.936160       161.5311 
 523   0.0000       6.070948       165.1989 
 524   0.0000       6.114078       166.3725 
 525   0.0000       6.232447       169.5935 
 526   0.0000       6.273919       170.7220 
 527   0.0000       6.321117       172.0063 
 528   0.0000       6.336540       172.4260 
 529   0.0000       6.348092       172.7404 
 530   0.0000       6.361919       173.1166 
 531   0.0000       6.375451       173.4848 
 532   0.0000       6.397814       174.0934 
 533   0.0000       6.425962       174.8593 
 534   0.0000       6.455015       175.6499 
 535   0.0000       6.658658       181.1913 
 536   0.0000       6.840357       186.1356 
 537   0.0000       6.863855       186.7750 
 538   0.0000       6.920491       188.3161 
 539   0.0000       6.960426       189.4028 
 540   0.0000       7.084281       192.7731 
 541   0.0000       7.106565       193.3795 
 542   0.0000       7.247429       197.2126 
 543   0.0000       7.296539       198.5489 
 544   0.0000       7.342443       199.7980 
 545   0.0000       7.383518       200.9158 
 546   0.0000      22.090075       601.1015 
 547   0.0000      22.309513       607.0727 
 548   0.0000      22.399872       609.5315 
 549   0.0000      22.487500       611.9160 
 550   0.0000      22.519391       612.7838 
 551   0.0000      22.705125       617.8379 
 552   0.0000      22.739439       618.7716 
 553   0.0000      22.853773       621.8828 
 554   0.0000      22.898417       623.0976 
 555   0.0000      23.354746       635.5149 
 556   0.0000      32.397446       881.5793 
 557   0.0000      32.474582       883.6783 
 558   0.0000      43.577930      1185.8157 
 559   0.0000      43.926156      1195.2915 
 560   0.0000      43.963693      1196.3129 

                    ********************************
                    * MULLIKEN POPULATION ANALYSIS *
                    ********************************

-----------------------
MULLIKEN ATOMIC CHARGES
-----------------------
   0 C :   -0.139661
   1 H :    0.145275
   2 N :    0.439451
   3 O :   -0.342485
   4 O :   -0.356647
   5 H :    0.141472
   6 C :   -0.118533
   7 H :    0.157208
   8 H :    0.169291
   9 C :   -0.291747
  10 H :    0.148321
  11 C :   -0.062218
  12 C :    0.091245
  13 C :    0.031084
  14 C :   -0.155944
  15 C :   -0.018158
  16 N :   -0.342472
  17 H :    0.141835
  18 H :    0.143897
  19 H :    0.171052
  20 C :   -0.370342
  21 H :    0.139362
  22 H :    0.137429
  23 H :    0.132955
  24 C :   -0.379427
  25 H :    0.135806
  26 H :    0.142754
  27 H :    0.141021
  28 H :    0.340187
  29 O :   -0.719348
  30 H :    0.347334
Sum of atomic charges:    0.0000000

--------------------------------
MULLIKEN REDUCED ORBITAL CHARGES
--------------------------------
  0 C s       :     3.229555  s :     3.229555
      pz      :     0.880656  p :     2.826538
      px      :     0.978122
      py      :     0.967760
      dz2     :     0.029650  d :     0.076381
      dxz     :     0.011771
      dyz     :     0.014608
      dx2y2   :     0.009909
      dxy     :     0.010442
      f0      :     0.001705  f :     0.007187
      f+1     :     0.000921
      f-1     :     0.001238
      f+2     :     0.001383
      f-2     :     0.000817
      f+3     :     0.000651
      f-3     :     0.000472
  1 H s       :     0.832612  s :     0.832612
      pz      :     0.003591  p :     0.022114
      px      :     0.005914
      py      :     0.012609
  2 N s       :     3.314284  s :     3.314284
      pz      :     0.894163  p :     2.993713
      px      :     1.049933
      py      :     1.049617
      dz2     :     0.069642  d :     0.238266
      dxz     :     0.063381
      dyz     :     0.043263
      dx2y2   :     0.031081
      dxy     :     0.030898
      f0      :     0.002631  f :     0.014286
      f+1     :     0.003522
      f-1     :     0.001535
      f+2     :     0.002093
      f-2     :     0.002343
      f+3     :     0.001120
      f-3     :     0.001042
  3 O s       :     3.881967  s :     3.881967
      pz      :     1.476050  p :     4.415515
      px      :     1.495190
      py      :     1.444276
      dz2     :     0.007689  d :     0.041714
      dxz     :     0.014369
      dyz     :     0.005818
      dx2y2   :     0.006265
      dxy     :     0.007573
      f0      :     0.000381  f :     0.003288
      f+1     :     0.000887
      f-1     :     0.000136
      f+2     :     0.000703
      f-2     :     0.000687
      f+3     :     0.000219
      f-3     :     0.000275
  4 O s       :     3.878625  s :     3.878625
      pz      :     1.210441  p :     4.433351
      px      :     1.841462
      py      :     1.381448
      dz2     :     0.015484  d :     0.041386
      dxz     :     0.008249
      dyz     :     0.013129
      dx2y2   :     0.002502
      dxy     :     0.002022
      f0      :     0.000973  f :     0.003285
      f+1     :     0.000594
      f-1     :     0.000922
      f+2     :     0.000384
      f-2     :     0.000322
      f+3     :     0.000043
      f-3     :     0.000048
  5 H s       :     0.836552  s :     0.836552
      pz      :     0.003632  p :     0.021976
      px      :     0.005985
      py      :     0.012359
  6 C s       :     3.235571  s :     3.235571
      pz      :     0.987098  p :     2.785308
      px      :     0.745661
      py      :     1.052549
      dz2     :     0.021338  d :     0.090643
      dxz     :     0.022836
      dyz     :     0.013531
      dx2y2   :     0.018980
      dxy     :     0.013958
      f0      :     0.001016  f :     0.007011
      f+1     :     0.001201
      f-1     :     0.001258
      f+2     :     0.000973
      f-2     :     0.000528
      f+3     :     0.001245
      f-3     :     0.000790
  7 H s       :     0.817089  s :     0.817089
      pz      :     0.004082  p :     0.025703
      px      :     0.006112
      py      :     0.015509
  8 H s       :     0.808571  s :     0.808571
      pz      :     0.010312  p :     0.022138
      px      :     0.005257
      py      :     0.006568
  9 C s       :     3.294146  s :     3.294146
      pz      :     0.976295  p :     2.947576
      px      :     0.956986
      py      :     1.014294
      dz2     :     0.015974  d :     0.045085
      dxz     :     0.005924
      dyz     :     0.008695
      dx2y2   :     0.006635
      dxy     :     0.007857
      f0      :     0.000973  f :     0.004940
      f+1     :     0.000470
      f-1     :     0.001109
      f+2     :     0.001047
      f-2     :     0.000397
      f+3     :     0.000570
      f-3     :     0.000374
 10 H s       :     0.829695  s :     0.829695
      pz      :     0.011013  p :     0.021983
      px      :     0.004525
      py      :     0.006445
 11 C s       :     3.197525  s :     3.197525
      pz      :     0.930119  p :     2.746039
      px      :     0.836844
      py      :     0.979076
      dz2     :     0.006033  d :     0.107748
      dxz     :     0.026117
      dyz     :     0.007960
      dx2y2   :     0.043723
      dxy     :     0.023915
      f0      :     0.001415  f :     0.010905
      f+1     :     0.001116
      f-1     :     0.000823
      f+2     :     0.000708
      f-2     :     0.001544
      f+3     :     0.003218
      f-3     :     0.002081
 12 C s       :     3.172608  s :     3.172608
      pz      :     0.919807  p :     2.596907
      px      :     0.853086
      py      :     0.824014
      dz2     :     0.008393  d :     0.129505
      dxz     :     0.024667
      dyz     :     0.018112
      dx2y2   :     0.041783
      dxy     :     0.036550
      f0      :     0.001368  f :     0.009734
      f+1     :     0.000778
      f-1     :     0.000706
      f+2     :     0.001088
      f-2     :     0.001051
      f+3     :     0.002929
      f-3     :     0.001814
 13 C s       :     3.242335  s :     3.242335
      pz      :     0.860363  p :     2.583139
      px      :     0.870043
      py      :     0.852734
      dz2     :     0.008769  d :     0.133634
      dxz     :     0.026868
      dyz     :     0.019448
      dx2y2   :     0.045501
      dxy     :     0.033048
      f0      :     0.001218  f :     0.009808
      f+1     :     0.000908
      f-1     :     0.000743
      f+2     :     0.001166
      f-2     :     0.000955
      f+3     :     0.003195
      f-3     :     0.001624
 14 C s       :     3.214574  s :     3.214574
      pz      :     0.982740  p :     2.854637
      px      :     0.908850
      py      :     0.963047
      dz2     :     0.006596  d :     0.079338
      dxz     :     0.018318
      dyz     :     0.005892
      dx2y2   :     0.031900
      dxy     :     0.016632
      f0      :     0.001178  f :     0.007395
      f+1     :     0.000720
      f-1     :     0.000678
      f+2     :     0.000461
      f-2     :     0.000962
      f+3     :     0.002177
      f-3     :     0.001220
 15 C s       :     3.190797  s :     3.190797
      pz      :     0.917017  p :     2.709037
      px      :     0.969468
      py      :     0.822552
      dz2     :     0.004126  d :     0.107453
      dxz     :     0.013743
      dyz     :     0.022582
      dx2y2   :     0.025992
      dxy     :     0.041010
      f0      :     0.001567  f :     0.010870
      f+1     :     0.000532
      f-1     :     0.001170
      f+2     :     0.001621
      f-2     :     0.000617
      f+3     :     0.003291
      f-3     :     0.002073
 16 N s       :     3.626068  s :     3.626068
      pz      :     1.167419  p :     3.649715
      px      :     1.391350
      py      :     1.090946
      dz2     :     0.006068  d :     0.062953
      dxz     :     0.008816
      dyz     :     0.013118
      dx2y2   :     0.017426
      dxy     :     0.017524
      f0      :     0.000496  f :     0.003736
      f+1     :     0.000341
      f-1     :     0.000423
      f+2     :     0.000511
      f-2     :     0.000404
      f+3     :     0.000940
      f-3     :     0.000622
 17 H s       :     0.836457  s :     0.836457
      pz      :     0.004486  p :     0.021708
      px      :     0.003409
      py      :     0.013812
 18 H s       :     0.833765  s :     0.833765
      pz      :     0.004903  p :     0.022339
      px      :     0.003595
      py      :     0.013841
 19 H s       :     0.806940  s :     0.806940
      pz      :     0.004938  p :     0.022008
      px      :     0.010856
      py      :     0.006213
 20 C s       :     3.321209  s :     3.321209
      pz      :     1.046492  p :     2.998903
      px      :     0.957559
      py      :     0.994852
      dz2     :     0.004909  d :     0.046546
      dxz     :     0.016304
      dyz     :     0.005055
      dx2y2   :     0.014542
      dxy     :     0.005737
      f0      :     0.000198  f :     0.003684
      f+1     :     0.000983
      f-1     :     0.000225
      f+2     :     0.000212
      f-2     :     0.000572
      f+3     :     0.000966
      f-3     :     0.000529
 21 H s       :     0.839148  s :     0.839148
      pz      :     0.008592  p :     0.021490
      px      :     0.008549
      py      :     0.004349
 22 H s       :     0.841066  s :     0.841066
      pz      :     0.010225  p :     0.021505
      px      :     0.006339
      py      :     0.004941
 23 H s       :     0.845224  s :     0.845224
      pz      :     0.004612  p :     0.021821
      px      :     0.004885
      py      :     0.012323
 24 C s       :     3.330172  s :     3.330172
      pz      :     1.056843  p :     3.000148
      px      :     0.912544
      py      :     1.030761
      dz2     :     0.004646  d :     0.045460
      dxz     :     0.016123
      dyz     :     0.002985
      dx2y2   :     0.012901
      dxy     :     0.008805
      f0      :     0.000643  f :     0.003647
      f+1     :     0.000665
      f-1     :     0.000149
      f+2     :     0.000158
      f-2     :     0.000293
      f+3     :     0.000726
      f-3     :     0.001014
 25 H s       :     0.842411  s :     0.842411
      pz      :     0.004701  p :     0.021783
      px      :     0.004258
      py      :     0.012824
 26 H s       :     0.835672  s :     0.835672
[...]
     20       0.000034  -0.000917   0.000027
     21       0.002752  -0.000101   0.000498
     22      -0.006384   0.001138  -0.001211
     23      -0.000749  -0.001038  -0.000236
     24      -0.000255   0.001585  -0.000176
     25       0.000615   0.002968   0.000060
     26       0.000337   0.004859  -0.000122
     27      -0.000067   0.014687   0.000035
     28       0.000036  -0.082018  -0.000044
     29       0.000155   0.052273  -0.000010
     30       0.000246   0.091405  -0.000006
     31       0.001633   0.375880   0.000164
     32      -0.002243  -0.602546  -0.000097
     33      -0.000947  -0.000002  -0.000041
     34      -0.011139   0.000050   0.000156
     35      -0.001844   0.000007   0.000033
     36      -0.000349   0.000001   0.000037
     37      -0.000001   0.000005   0.000009
     38       0.000025  -0.000002  -0.000020
     39       0.000759   0.000006  -0.000011
     40       0.000042  -0.000009  -0.000006
     41      -0.000128  -0.000010   0.000003
     42       0.001080   0.000019   0.000024
     43       0.008812   0.000023   0.000008
     44       0.001342   0.000003  -0.000008
     45      -0.015771  -0.000564   0.000096
     46       0.010455   0.000333  -0.000139
     47       0.004567   0.000190  -0.000039
     48      -0.001322   0.000058   0.000246
     49      -0.000751   0.000007   0.000106
     50       0.000332   0.000022   0.000039
     51       0.015163  -0.000074   0.000009
     52       0.105973  -0.000529  -0.000709
     53       0.016452  -0.000077  -0.000138
     54      -0.012751  -0.000034   0.000170
     55      -0.105664  -0.000225   0.000411
     56      -0.016377   0.000002   0.000049
     57       0.163732   0.006358  -0.000563
     58      -0.106841  -0.004303   0.000495
     59      -0.046745  -0.002130   0.000226
     60      -0.000288   0.000003  -0.000007
     61      -0.000832   0.000011   0.000022
     62      -0.000087  -0.000002  -0.000002
     63      -0.001885   0.000018   0.000150
     64       0.000695  -0.000013  -0.000034
     65      -0.000529   0.000004   0.000081
     66      -0.001536   0.000018   0.000127
     67       0.000423  -0.000015   0.000012
     68       0.001069  -0.000016  -0.000141
     69       0.002611  -0.000028  -0.000043
     70       0.008846  -0.000100  -0.000147
     71       0.001340  -0.000017  -0.000033
     72      -0.000156  -0.000004   0.000002
     73       0.000582  -0.000006  -0.000006
     74       0.000147  -0.000006   0.000003
     75      -0.000357   0.000001   0.000035
     76      -0.006125   0.000093   0.000156
     77      -0.001107   0.000014   0.000038
     78      -0.000924   0.000017   0.000090
     79      -0.000845   0.000008   0.000025
     80      -0.000333  -0.000015  -0.000105
     81      -0.000773   0.000017   0.000122
     82      -0.000928  -0.000001  -0.000012
     83       0.000240   0.000007   0.000073
     84      -0.871098   0.002602   0.038378
     85      -0.397377   0.001088   0.019421
     86       0.100896  -0.000223  -0.033916
     87       0.054482  -0.000125  -0.027752
     88       0.025438  -0.000112  -0.008593
     89      -0.009710   0.000086  -0.054962
     90       0.047133  -0.000529   0.396740
     91       0.018975  -0.001002   0.115813
     92       0.047414  -0.000475   0.906816


-----------
IR SPECTRUM
-----------

 Mode   freq       eps      Int      T**2         TX        TY        TZ
       cm**-1   L/(mol*cm) km/mol    a.u.
----------------------------------------------------------------------------
  7:      8.01   0.000275    1.39  0.010725  (-0.011455  0.096672  0.035326)
  8:     14.77   0.000124    0.63  0.002629  (-0.018691 -0.047539 -0.004468)
  9:     26.00   0.000730    3.69  0.008760  ( 0.027089 -0.077836  0.044362)
 10:     34.11   0.000259    1.31  0.002371  (-0.015613 -0.045679 -0.006402)
 11:     37.40   0.000113    0.57  0.000940  (-0.011453  0.026519 -0.010297)
 12:     48.90   0.000207    1.05  0.001323  (-0.029836 -0.001790  0.020731)
 13:     72.28   0.000316    1.60  0.001365  (-0.017432 -0.009707 -0.031100)
 14:    103.22   0.011241   56.81  0.033985  (-0.076275  0.167115  0.015491)
 15:    111.54   0.003610   18.24  0.010101  (-0.043372  0.087743  0.022821)
 16:    139.65   0.000019    0.09  0.000042  ( 0.002460  0.000870  0.005926)
 17:    172.69   0.000234    1.18  0.000422  (-0.004203  0.001211 -0.020076)
 18:    176.91   0.002376   12.01  0.004191  ( 0.061329  0.020551 -0.002765)
 19:    181.73   0.000074    0.37  0.000127  ( 0.009386 -0.004278  0.004574)
 20:    225.55   0.026495  133.89  0.036657  (-0.089227  0.168732  0.015015)
 21:    252.38   0.005518   27.88  0.006823  ( 0.018091 -0.074454  0.030854)
 22:    258.66   0.000772    3.90  0.000931  ( 0.013405  0.018678  0.020061)
 23:    298.73   0.000098    0.49  0.000102  ( 0.009665 -0.000739 -0.002861)
 24:    386.92   0.000666    3.37  0.000537  ( 0.022761 -0.002018 -0.003865)
 25:    409.50   0.000152    0.77  0.000116  ( 0.001588  0.010176  0.003077)
 26:    436.22   0.001765    8.92  0.001263  (-0.013827 -0.015117  0.029038)
 27:    458.41   0.022373  113.07  0.015231  ( 0.101026  0.056959  0.042193)
 28:    481.99   0.002154   10.89  0.001395  (-0.025868 -0.020834  0.017080)
 29:    522.56   0.002389   12.07  0.001427  ( 0.032510  0.019019 -0.002849)
 30:    551.48   0.003576   18.07  0.002023  (-0.022264 -0.005088 -0.038754)
 31:    563.32   0.000517    2.61  0.000286  ( 0.011436 -0.007575  0.009908)
 32:    580.85   0.004310   21.78  0.002316  ( 0.022333 -0.025633 -0.034056)
 33:    614.67   0.001331    6.73  0.000676  ( 0.023879  0.009749 -0.003267)
 34:    733.88   0.011941   60.35  0.005078  (-0.067370 -0.016833 -0.015992)
 35:    752.31   0.002555   12.91  0.001060  (-0.006681  0.001819 -0.031811)
 36:    768.70   0.000666    3.37  0.000270  ( 0.013255 -0.009527 -0.002010)
 37:    835.61   0.024635  124.50  0.009200  (-0.020034  0.093503 -0.007487)
 38:    846.17   0.007168   36.23  0.002644  (-0.006040 -0.008403 -0.050365)
 39:    862.34   0.000567    2.87  0.000205  ( 0.011335 -0.000813 -0.008727)
 40:    868.57   0.006112   30.89  0.002196  ( 0.046452 -0.004625 -0.004092)
 41:    897.86   0.003998   20.20  0.001389  (-0.033694  0.001171  0.015900)
 42:    945.45   0.000211    1.07  0.000070  (-0.001491 -0.000478  0.008195)
 43:    966.97   0.003290   16.63  0.001062  (-0.027230  0.007375 -0.016309)
 44:    987.28   0.013434   67.89  0.004246  (-0.055985 -0.028245 -0.017724)
 45:    995.19   0.000089    0.45  0.000028  ( 0.003306  0.003215 -0.002595)
 46:   1007.32   0.001230    6.22  0.000381  (-0.019244  0.000222  0.003269)
 47:   1027.04   0.003418   17.27  0.001038  ( 0.027919  0.016091 -0.000064)
 48:   1029.52   0.001163    5.88  0.000352  (-0.014230 -0.012052  0.002175)
 49:   1045.78   0.002957   14.95  0.000883  ( 0.005016 -0.005989  0.028662)
 50:   1062.18   0.003037   15.35  0.000892  (-0.014856  0.005370 -0.025349)
 51:   1076.96   0.000020    0.10  0.000006  (-0.002368 -0.000223 -0.000333)
 52:   1100.99   0.008497   42.94  0.002408  ( 0.045338  0.018004 -0.005365)
 53:   1127.17   0.001508    7.62  0.000417  ( 0.018089 -0.008305  0.004606)
 54:   1199.51   0.001035    5.23  0.000269  ( 0.013387  0.009489 -0.000162)
 55:   1221.82   0.006965   35.20  0.001779  (-0.041305 -0.007468  0.004123)
 56:   1264.16   0.001335    6.75  0.000329  (-0.015458  0.008067  0.005048)
 57:   1278.11   0.010068   50.88  0.002458  ( 0.034176 -0.014705  0.032772)
 58:   1291.48   0.000249    1.26  0.000060  ( 0.002242 -0.007013 -0.002454)
 59:   1318.27   0.007228   36.53  0.001711  (-0.021741 -0.002188  0.035123)
 60:   1326.60   0.001785    9.02  0.000420  ( 0.002541 -0.003028  0.020108)
 61:   1339.26   0.000495    2.50  0.000115  ( 0.005934 -0.008824 -0.001486)
 62:   1401.35   0.000563    2.85  0.000125  (-0.010745  0.001302  0.002882)
 63:   1410.46   0.001080    5.46  0.000239  (-0.013741  0.006394  0.003047)
 64:   1414.75   0.031920  161.31  0.007041  ( 0.072269  0.019137 -0.038102)
 65:   1442.48   0.004087   20.65  0.000884  ( 0.014848 -0.024928 -0.006506)
 66:   1451.28   0.007072   35.74  0.001521  ( 0.024822 -0.005394 -0.029588)
 67:   1463.91   0.000278    1.40  0.000059  ( 0.003406 -0.003133  0.006143)
 68:   1474.00   0.004996   25.25  0.001058  (-0.002675  0.005403  0.031960)
 69:   1476.27   0.005175   26.15  0.001094  (-0.017217  0.027178 -0.007672)
 70:   1483.78   0.006488   32.79  0.001365  ( 0.006029 -0.035522 -0.008146)
 71:   1527.86   0.003879   19.60  0.000792  ( 0.027572 -0.002204 -0.005225)
 72:   1560.83   0.130950  661.77  0.026181  (-0.049417  0.058965 -0.142346)
 73:   1599.04   0.003548   17.93  0.000692  ( 0.014507  0.021945 -0.000522)
 74:   1623.01   0.015490   78.28  0.002978  (-0.016315 -0.011091  0.050885)
 75:   1639.67   0.021660  109.46  0.004122  ( 0.055837  0.030541 -0.008470)
 76:   1703.22   0.000370    1.87  0.000068  ( 0.005036 -0.006167 -0.002103)
 77:   2257.54   0.011401   57.62  0.001576  ( 0.027881 -0.026954 -0.008494)
 78:   3026.20   0.004624   23.37  0.000477  ( 0.019105 -0.009846 -0.003858)
 79:   3029.34   0.002345   11.85  0.000242  (-0.014392 -0.005396  0.002314)
 80:   3070.57   0.004803   24.27  0.000488  ( 0.003338 -0.002663  0.021677)
 81:   3074.59   0.000649    3.28  0.000066  (-0.002628  0.001131 -0.007596)
 82:   3093.59   0.000471    2.38  0.000048  ( 0.001348  0.003744 -0.005629)
 83:   3109.90   0.004466   22.57  0.000448  (-0.006415 -0.020055 -0.002185)
 84:   3116.88   0.004032   20.37  0.000404  (-0.000301 -0.019804 -0.003371)
 85:   3138.60   0.001213    6.13  0.000121  ( 0.004117 -0.004907 -0.008919)
 86:   3145.93   0.008084   40.86  0.000802  (-0.023629  0.014565  0.005611)
 87:   3164.41   0.000792    4.00  0.000078  ( 0.004481 -0.007596  0.000556)
 88:   3169.67   0.003874   19.58  0.000381  (-0.013976 -0.013558 -0.001495)
 89:   3184.12   0.022509  113.75  0.002206  ( 0.032819  0.033525  0.002242)
 90:   3209.81   0.409098  2067.42  0.039773  (-0.185560 -0.071845  0.013376)
 91:   3225.75   0.001546    7.81  0.000150  ( 0.002654 -0.010271  0.006085)
 92:   3808.75   0.015540   78.53  0.001273  ( 0.024502  0.012092  0.022950)

* The epsilon (eps) is given for a Dirac delta lineshape.
** The dipole moment derivative (T) already includes vibrational overlap.

The first frequency considered to be a vibration is 7
The total number of vibrations considered is 86


--------------------------
THERMOCHEMISTRY AT 298.15K
--------------------------

Temperature         ... 298.15 K
Pressure            ... 1.00 atm
Total Mass          ... 213.24 AMU

Throughout the following assumptions are being made:
  (1) The electronic state is orbitally nondegenerate
  (2) There are no thermally accessible electronically excited states
  (3) Hindered rotations indicated by low frequency modes are not
      treated as such but are treated as vibrations and this may
      cause some error
  (4) All equations used are the standard statistical mechanics
      equations for an ideal gas
  (5) All vibrations are strictly harmonic

freq.       8.01  E(vib)   ...       0.58 
freq.      14.77  E(vib)   ...       0.57 
freq.      26.00  E(vib)   ...       0.56 
freq.      34.11  E(vib)   ...       0.55 
freq.      37.40  E(vib)   ...       0.54 
freq.      48.90  E(vib)   ...       0.53 
freq.      72.28  E(vib)   ...       0.50 
freq.     103.22  E(vib)   ...       0.46 
freq.     111.54  E(vib)   ...       0.45 
freq.     139.65  E(vib)   ...       0.42 
freq.     172.69  E(vib)   ...       0.38 
freq.     176.91  E(vib)   ...       0.38 
freq.     181.73  E(vib)   ...       0.37 
freq.     225.55  E(vib)   ...       0.33 
freq.     252.38  E(vib)   ...       0.30 
freq.     258.66  E(vib)   ...       0.30 
freq.     298.73  E(vib)   ...       0.26 
freq.     386.92  E(vib)   ...       0.20 
freq.     409.50  E(vib)   ...       0.19 
freq.     436.22  E(vib)   ...       0.17 
freq.     458.41  E(vib)   ...       0.16 
freq.     481.99  E(vib)   ...       0.15 
freq.     522.56  E(vib)   ...       0.13 
freq.     551.48  E(vib)   ...       0.12 
freq.     563.32  E(vib)   ...       0.11 
freq.     580.85  E(vib)   ...       0.11 
freq.     614.67  E(vib)   ...       0.10 
freq.     733.88  E(vib)   ...       0.06 
freq.     752.31  E(vib)   ...       0.06 
freq.     768.70  E(vib)   ...       0.06 
freq.     835.61  E(vib)   ...       0.04 
freq.     846.17  E(vib)   ...       0.04 
freq.     862.34  E(vib)   ...       0.04 
freq.     868.57  E(vib)   ...       0.04 
freq.     897.86  E(vib)   ...       0.03 
freq.     945.45  E(vib)   ...       0.03 
freq.     966.97  E(vib)   ...       0.03 
freq.     987.28  E(vib)   ...       0.02 
freq.     995.19  E(vib)   ...       0.02 
freq.    1007.32  E(vib)   ...       0.02 
freq.    1027.04  E(vib)   ...       0.02 
freq.    1029.52  E(vib)   ...       0.02 
freq.    1045.78  E(vib)   ...       0.02 
freq.    1062.18  E(vib)   ...       0.02 
freq.    1076.96  E(vib)   ...       0.02 
freq.    1100.99  E(vib)   ...       0.02 
freq.    1127.17  E(vib)   ...       0.01 
freq.    1199.51  E(vib)   ...       0.01 
freq.    1221.82  E(vib)   ...       0.01 
freq.    1264.16  E(vib)   ...       0.01 
freq.    1278.11  E(vib)   ...       0.01 
freq.    1291.48  E(vib)   ...       0.01 
freq.    1318.27  E(vib)   ...       0.01 
freq.    1326.60  E(vib)   ...       0.01 
freq.    1339.26  E(vib)   ...       0.01 
freq.    1401.35  E(vib)   ...       0.00 
freq.    1410.46  E(vib)   ...       0.00 
freq.    1414.75  E(vib)   ...       0.00 
freq.    1442.48  E(vib)   ...       0.00 
freq.    1451.28  E(vib)   ...       0.00 
freq.    1463.91  E(vib)   ...       0.00 
freq.    1474.00  E(vib)   ...       0.00 
freq.    1476.27  E(vib)   ...       0.00 
freq.    1483.78  E(vib)   ...       0.00 
freq.    1527.86  E(vib)   ...       0.00 
freq.    1560.83  E(vib)   ...       0.00 
freq.    1599.04  E(vib)   ...       0.00 
freq.    1623.01  E(vib)   ...       0.00 
freq.    1639.67  E(vib)   ...       0.00 
freq.    1703.22  E(vib)   ...       0.00 
freq.    2257.54  E(vib)   ...       0.00 
freq.    3026.20  E(vib)   ...       0.00 
freq.    3029.34  E(vib)   ...       0.00 
freq.    3070.57  E(vib)   ...       0.00 
freq.    3074.59  E(vib)   ...       0.00 
freq.    3093.59  E(vib)   ...       0.00 
freq.    3109.90  E(vib)   ...       0.00 
freq.    3116.88  E(vib)   ...       0.00 
freq.    3138.60  E(vib)   ...       0.00 
freq.    3145.93  E(vib)   ...       0.00 
freq.    3164.41  E(vib)   ...       0.00 
freq.    3169.67  E(vib)   ...       0.00 
freq.    3184.12  E(vib)   ...       0.00 
freq.    3209.81  E(vib)   ...       0.00 
freq.    3225.75  E(vib)   ...       0.00 
freq.    3808.75  E(vib)   ...       0.00 

------------
INNER ENERGY
------------

The inner energy is: U= E(el) + E(ZPE) + E(vib) + E(rot) + E(trans)
    E(el)   - is the total energy from the electronic structure calculation
              = E(kin-el) + E(nuc-el) + E(el-el) + E(nuc-nuc)
    E(ZPE)  - the the zero temperature vibrational energy from the frequency calculation
    E(vib)  - the the finite temperature correction to E(ZPE) due to population
              of excited vibrational states
    E(rot)  - is the rotational thermal energy
    E(trans)- is the translational thermal energy

Summary of contributions to the inner energy U:
Electronic energy                ...   -725.71775834 Eh
Zero point energy                ...      0.24796147 Eh     155.60 kcal/mol
Thermal vibrational correction   ...      0.01533714 Eh       9.62 kcal/mol
Thermal rotational correction    ...      0.00141627 Eh       0.89 kcal/mol
Thermal translational correction ...      0.00141627 Eh       0.89 kcal/mol
-----------------------------------------------------------------------
Total thermal energy                   -725.45162719 Eh


Summary of corrections to the electronic energy:
(perhaps to be used in another calculation)
Total thermal correction                  0.01816968 Eh      11.40 kcal/mol
Non-thermal (ZPE) correction              0.24796147 Eh     155.60 kcal/mol
-----------------------------------------------------------------------
Total correction                          0.26613115 Eh     167.00 kcal/mol


--------
ENTHALPY
--------

The enthalpy is H = U + kB*T
                kB is Boltzmann's constant
Total free energy                 ...   -725.45162719 Eh 
Thermal Enthalpy correction       ...      0.00094421 Eh       0.59 kcal/mol
-----------------------------------------------------------------------
Total Enthalpy                    ...   -725.45068298 Eh


Note: Only C1 symmetry has been detected, increase convergence thresholds 
      if your molecule has a higher symmetry. Symmetry factor of 1.0 is   
      used for the rotational entropy correction. 
 

Note: Rotational entropy computed according to Herzberg 
Infrared and Raman Spectra, Chapter V,1, Van Nostrand Reinhold, 1945 
Point Group:  C1, Symmetry Number:   1  
Rotational constants in cm-1:     0.040787     0.006336     0.005943 

Vibrational entropy computed according to the QRRHO of S. Grimme
Chem.Eur.J. 2012 18 9955


-------
ENTROPY
-------

The entropy contributions are T*S = T*(S(el)+S(vib)+S(rot)+S(trans))
     S(el)   - electronic entropy
     S(vib)  - vibrational entropy
     S(rot)  - rotational entropy
     S(trans)- translational entropy
The entropies will be listed as multiplied by the temperature to get
units of energy

Electronic entropy                ...      0.00000000 Eh      0.00 kcal/mol
Vibrational entropy               ...      0.02931754 Eh     18.40 kcal/mol
Rotational entropy                ...      0.01583040 Eh      9.93 kcal/mol
Translational entropy             ...      0.01994372 Eh     12.51 kcal/mol
-----------------------------------------------------------------------
Final entropy term                ...      0.06509166 Eh     40.85 kcal/mol

In case the symmetry of your molecule has not been determined correctly
or in case you have a reason to use a different symmetry number we print 
out the resulting rotational entropy values for sn=1,12 :
 --------------------------------------------------------
|  sn= 1 | S(rot)=       0.01583040 Eh      9.93 kcal/mol|
|  sn= 2 | S(rot)=       0.01517595 Eh      9.52 kcal/mol|
|  sn= 3 | S(rot)=       0.01479312 Eh      9.28 kcal/mol|
|  sn= 4 | S(rot)=       0.01452149 Eh      9.11 kcal/mol|
|  sn= 5 | S(rot)=       0.01431080 Eh      8.98 kcal/mol|
|  sn= 6 | S(rot)=       0.01413866 Eh      8.87 kcal/mol|
|  sn= 7 | S(rot)=       0.01399311 Eh      8.78 kcal/mol|
|  sn= 8 | S(rot)=       0.01386704 Eh      8.70 kcal/mol|
|  sn= 9 | S(rot)=       0.01375583 Eh      8.63 kcal/mol|
|  sn=10 | S(rot)=       0.01365635 Eh      8.57 kcal/mol|
|  sn=11 | S(rot)=       0.01356636 Eh      8.51 kcal/mol|
|  sn=12 | S(rot)=       0.01348420 Eh      8.46 kcal/mol|
 --------------------------------------------------------


-------------------
GIBBS FREE ENERGY
-------------------

The Gibbs free energy is G = H - T*S

Total enthalpy                    ...   -725.45068298 Eh 
Total entropy correction          ...     -0.06509166 Eh    -40.85 kcal/mol
-----------------------------------------------------------------------
Final Gibbs free energy         ...   -725.51577464 Eh

For completeness - the Gibbs free energy minus the electronic energy
G-E(el)                           ...      0.20198370 Eh    126.75 kcal/mol



Timings for individual modules:

Sum of individual times         ...     1918.489 sec (=  31.975 min)
GTO integral calculation        ...        9.527 sec (=   0.159 min)   0.5 %
SCF iterations                  ...      109.052 sec (=   1.818 min)   5.7 %
SCF Gradient evaluation         ...       23.622 sec (=   0.394 min)   1.2 %
Numerical frequency calculation ...     1776.288 sec (=  29.605 min)  92.6 %
                             ****ORCA TERMINATED NORMALLY****
TOTAL RUN TIME: 0 days 0 hours 30 minutes 52 seconds 90 msec
