 *******************************************************************************
 **                                                                           **
 **                              MOPAC v22.0.6                                **
 **                                                                           **
 *******************************************************************************
 **          Digital Object Identifier (DOI): 10.5281/zenodo.6511958          **
 **    Visit the DOI location for information on how to cite this program.    **
 *******************************************************************************

                              PM7 CALCULATION RESULTS

 *******************************************************************************
 *  CALCULATION DONE:                                Mon Mar 25 23:19:45 2024  *
 *  PM7        - The PM7 Hamiltonian to be used
 *  SINGLET    - SPIN STATE DEFINED AS A SINGLET
 *
 *
 *
 *                 CHARGE ON SYSTEM = -1
 *
 *
 *
 *  EPS=78.4   - USE ANDREAS KLAMT'S COSMO IMPLICIT SOLVATION MODEL
 *  SADDLE     - TRANSITION STATE TO BE OPTIMIZED
 *  T=         - A TIME OF 14.0 DAYS REQUESTED
 *  DUMP=N     - RESTART FILE WRITTEN EVERY 30.0 MINUTES REQUESTED
 *  RELSCF     - DEFAULT SCF CRITERION MULTIPLIED BY 1.0000
 *              (DEFAULT SCF CRITERION = 0.00010)
 *  ITRY=      - DO A MAXIMUM OF 15000 ITERATIONS FOR SCF
 *  AUX        - OUTPUT AUXILIARY INFORMATION
 *  BONDS      - FINAL BOND-ORDER MATRIX TO BE PRINTED
 *******************************************************************************
SADDLE PM7 BONDS AUX DUMP=30M ITRY=15000 T=14D CHARGE=-1 SINGLET eps=78.4 RELSCF=1


   ATOM   CHEMICAL          X               Y               Z
  NUMBER   SYMBOL      (ANGSTROMS)     (ANGSTROMS)     (ANGSTROMS)

     1       C         -0.77373000  *   1.16768000  *  -0.07989000  *
     2       C          0.58230000  *   1.18121000  *   0.23895000  *
     3       C          1.33178000  *  -0.00286000  *   0.21123000  *
     4       C          0.70543000  *  -1.20323000  *  -0.10226000  *
     5       C         -0.66092000  *  -1.20596000  *  -0.40109000  *
     6       C         -1.41056000  *  -0.02697000  *  -0.40953000  *
     7       H         -1.34704000  *   2.09974000  *  -0.06523000  *
     8       H          1.05895000  *   2.13145000  *   0.50553000  *
     9       H          1.25598000  *  -2.15301000  *  -0.11422000  *
    10       H         -2.47476000  *  -0.03623000  *  -0.66807000  *
    11       N         -1.28645000  *  -2.47112000  *  -0.69928000  *
    12       O         -2.46913000  *  -2.50162000  *  -1.00988000  *
    13       O         -0.61616000  *  -3.49520000  *  -0.62686000  *
    14       C          2.79120000  *   0.02949000  *   0.57482000  *
    15       H          2.90727000  *   0.51356000  *   1.60886000  *
    16       C          3.45458000  *  -1.34116000  *   0.62395000  *
    17       H          4.51004000  *  -1.28087000  *   0.92801000  *
    18       H          3.42967000  *  -1.87408000  *  -0.33605000  *
    19       H          2.95399000  *  -1.98556000  *   1.36623000  *
    20       N          3.55824000  *   0.90503000  *  -0.37306000  *
    21       O          4.74621000  *   1.08582000  *  -0.15242000  *
    22       O          2.98955000  *   1.42771000  *  -1.31733000  *
    23       O          2.63422000  *   2.55593000  *   6.05669000  *
    24       H          2.92583000  *   1.85169000  *   5.58186000  *
    25       H          2.04886000  *   1.12344000  *   3.70127000  *
    26       H          3.48935000  *   1.57349000  *   3.56331000  *
    27       O          2.93472000  *   0.78373000  *   3.52398000  *



          CARTESIAN COORDINATES 

    NO.       ATOM           X           Y           Z

     1         C         -0.7737      1.1677     -0.0799
     2         C          0.5823      1.1812      0.2390
     3         C          1.3318     -0.0029      0.2112
     4         C          0.7054     -1.2032     -0.1023
     5         C         -0.6609     -1.2060     -0.4011
     6         C         -1.4106     -0.0270     -0.4095
     7         H         -1.3470      2.0997     -0.0652
     8         H          1.0590      2.1315      0.5055
     9         H          1.2560     -2.1530     -0.1142
    10         H         -2.4748     -0.0362     -0.6681
    11         N         -1.2865     -2.4711     -0.6993
    12         O         -2.4691     -2.5016     -1.0099
    13         O         -0.6162     -3.4952     -0.6269
    14         C          2.7912      0.0295      0.5748
    15         H          2.9073      0.5136      1.6089
    16         C          3.4546     -1.3412      0.6240
    17         H          4.5100     -1.2809      0.9280
    18         H          3.4297     -1.8741     -0.3361
    19         H          2.9540     -1.9856      1.3662
    20         N          3.5582      0.9050     -0.3731
    21         O          4.7462      1.0858     -0.1524
    22         O          2.9895      1.4277     -1.3173
    23         O          2.6342      2.5559      6.0567
    24         H          2.9258      1.8517      5.5819
    25         H          2.0489      1.1234      3.7013
    26         H          3.4893      1.5735      3.5633
    27         O          2.9347      0.7837      3.5240

 General Reference for PM7:
 "Optimization of Parameters for Semiempirical Methods VI: More Modifications to the 
 NDDO Approximations and Re-optimization of Parameters", J. J. P. Stewart, J. Mol. Mod., 1:32, 19 (2013)
 https://link.springer.com/article/10.1007/s00894-012-1667-x

           Empirical Formula: C8 H11 N2 O6  =    27 atoms



      MOLECULAR POINT GROUP   :   C1  


 SINGLET STATE CALCULATION


      RHF CALCULATION, NO. OF DOUBLY OCCUPIED LEVELS = 45



  CARTESIAN GEOMETRY OF FIRST SYSTEM


   1    C          0.15646       1.25696       0.59098
   2    C          0.49931       1.03349      -0.73953
   3    C          0.30741      -0.22347      -1.33868
   4    C         -0.19768      -1.26662      -0.55427
   5    C         -0.51549      -1.03200       0.78717
   6    C         -0.35790       0.22765       1.37237
   7    H          0.28593       2.25167       1.02660
   8    H          0.90469       1.86305      -1.32753
   9    H         -0.36574      -2.25765      -0.98661
  10    H         -0.63009       0.40237       2.41693
  11    N         -1.03319      -2.11675       1.58566
  12    O         -1.35973      -1.90537       2.74717
  13    O         -1.13541      -3.23308       1.08952
  14    C          0.58970      -0.43874      -2.75123
  15    H          2.52271      -0.20494      -2.83039
  16    C          0.66320      -1.84128      -3.27193
  17    H          1.05949      -1.89917      -4.29583
  18    H         -0.34358      -2.29366      -3.31090
  19    H          1.28365      -2.49500      -2.64370
  20    N          0.22954       0.51974      -3.65461
  21    O          0.39902       0.34393      -4.87922
  22    O         -0.21798       1.62699      -3.28996
  23    O          6.62564       1.38569      -2.92301
  24    H          6.09212       0.66825      -2.88841
  25    H          3.85313       0.37667      -2.02573
  26    H          3.74963       0.57972      -3.59801
  27    O          3.58995      -0.13417      -2.88071


  CARTESIAN GEOMETRY OF SECOND SYSTEM


   1    C          0.21019       1.29464       0.57325
   2    C          0.57489       1.07724      -0.75355
   3    C          0.38860      -0.17920      -1.34614
   4    C         -0.13088      -1.22326      -0.59014
   5    C         -0.47451      -0.99691       0.74661
   6    C         -0.32471       0.26002       1.33800
   7    H          0.35035       2.28250       1.02283
   8    H          1.00362       1.90356      -1.33200
   9    H         -0.27196      -2.22582      -1.01477
  10    H         -0.61892       0.43321       2.37863
  11    N         -0.98900      -2.10684       1.51093
  12    O         -1.34211      -1.93066       2.66869
  13    O         -1.05420      -3.21100       0.98191
  14    C          0.80407      -0.39882      -2.77523
  15    H          1.90459      -0.09603      -2.89439
  16    C          0.66138      -1.83797      -3.25447
  17    H          1.00820      -1.96686      -4.29042
  18    H         -0.37050      -2.21203      -3.21523
  19    H          1.27547      -2.51340      -2.63519
  20    N          0.03264       0.49804      -3.69931
  21    O          0.32067       0.48188      -4.88650
  22    O         -0.83763       1.22870      -3.25544
  23    O          6.60489       1.27144      -2.63708
  24    H          6.03625       0.61392      -2.86239
  25    H          4.03506       0.30191      -2.00571
  26    H          4.02021       0.56942      -3.49729
  27    O          3.83815      -0.12343      -2.84945


   "DISTANCE":     1.211570


  REACTION COORDINATE VECTOR


   1    C         -0.05373      -0.03768       0.01773
   2    C         -0.07557      -0.04376       0.01402
   3    C         -0.08119      -0.04428       0.00746
   4    C         -0.06679      -0.04336       0.03587
   5    C         -0.04098      -0.03509       0.04055
   6    C         -0.03319      -0.03236       0.03437
   7    H         -0.06442      -0.03083       0.00377
   8    H         -0.09893      -0.04051       0.00447
   9    H         -0.09379      -0.03184       0.02816
  10    H         -0.01117      -0.03084       0.03831
  11    N         -0.04419      -0.00991       0.07473
  12    O         -0.01763       0.02528       0.07848
  13    O         -0.08121      -0.02208       0.10761
  14    C         -0.21436      -0.03991       0.02401
  15    H          0.61812      -0.10891       0.06400
  16    C          0.00182      -0.00331      -0.01745
  17    H          0.05129       0.06769      -0.00541
  18    H          0.02692      -0.08163      -0.09567
  19    H          0.00818       0.01840      -0.00851
  20    N          0.19690       0.02169       0.04471
  21    O          0.07835      -0.13795       0.00729
  22    O          0.61965       0.39829      -0.03452
  23    O          0.02075       0.11425      -0.28594
  24    H          0.05587       0.05433      -0.02602
  25    H         -0.18192       0.07476      -0.02003
  26    H         -0.27058       0.01029      -0.10072
  27    O         -0.24820      -0.01075      -0.03126
 *+*+*+*+*+*+*+*+*+*+*+*+*+*+*+*+*+*+*+*+*+*+*+*+*+*+*+*+*+*+*+*+*+*+*+*+*+*+*+*+
            BAR SHORTENED BY       0.000 PERCENT
 GRADIENT CRITERION IN FLEPO =     1.000
  SCF CRITERION =    0.1000E-03
 

                    SINCE COS WAS JUST RESET,THE SEARCH IS BEING ENDED


          FOR POINT    1 SECOND STRUCTURE
 DISTANCE A - B      1.211570
 HEAT             -189.262085
 GRADIENT NORM       9.807150
 DIRECTION COSINE    0.000002
* ===============================
* Input file for Mopac
* ===============================
 PM7 BONDS AUX DUMP=30M ITRY=15000 T=14D CHARGE=-1 SINGLET eps=78.4 RELSCF=1


  C     0.00000000 +0    0.0000000 +0    0.0000000 +0     0     0     0
  C     1.39196912 +1    0.0000000 +0    0.0000000 +0     1     0     0
  C     1.40563389 +1  121.1611247 +1    0.0000000 +0     2     1     0
  C     1.39954258 +1  118.4741398 +1   -2.1200742 +1     3     2     1
  C     1.39822449 +1  119.6587525 +1    0.9822912 +1     4     3     2
  C     1.39099165 +1  120.6064807 +1    1.5403045 +1     1     2     3
  H     1.09347377 +1  119.8374558 +1 -178.1068845 +1     1     2     3
  H     1.09461758 +1  118.8900892 +1  178.6864048 +1     2     1     3
  H     1.09444177 +1  120.5741548 +1  179.7133380 +1     4     3     2
  H     1.08968827 +1  120.6815993 +1 -179.7702848 +1     6     1     2
  N     1.44284407 +1  119.0994539 +1 -179.8960532 +1     5     4     3
  O     1.22474883 +1  119.4626273 +1 -177.3339054 +1    11     5     4
  O     1.22574552 +1  119.3802241 +1    2.8238543 +1    11     5     4
  C     1.45725294 +1  121.2759157 +1  176.2939855 +1     3     2     1
  H     1.94034899 +1  102.3538949 +1   66.0544776 +1    14     3     2
  C     1.49804454 +1  119.0158679 +1  166.5679447 +1    14     3     2
  H     1.10023634 +1  113.1612832 +1 -169.4174174 +1    16    14     3
  H     1.10497483 +1  110.6688504 +1   72.0347036 +1    16    14     3
  H     1.09656520 +1  112.7980365 +1  -47.6749038 +1    16    14     3
  N     1.36635746 +1  119.1354610 +1  -41.1910099 +1    14     3     2
  O     1.24917969 +1  120.9335263 +1 -176.5251540 +1    20    14     3
  O     1.24923045 +1  121.4928827 +1    7.0543586 +1    20    14     3
  O     4.40797970 +1  165.8948751 +1  -75.5726852 +1    15    14     3
  H     0.89467812 +1   32.3019478 +1  172.9243702 +1    23    15    14
  H     1.64998551 +1  144.7251077 +1  -15.4216902 +1    15    14     3
  H     1.58725184 +1   61.1740290 +1 -141.4071107 +1    25    15    14
  O     1.02356582 +1   39.2169264 +1  -43.7868913 +1    26    25    15

 TIME=     7.32
  REACTANTS AND PRODUCTS SWAPPED AROUND
 *+*+*+*+*+*+*+*+*+*+*+*+*+*+*+*+*+*+*+*+*+*+*+*+*+*+*+*+*+*+*+*+*+*+*+*+*+*+*+*+
            BAR SHORTENED BY       1.000 PERCENT
 GRADIENT CRITERION IN FLEPO =     6.807


          FOR POINT    2 FIRST  STRUCTURE
 DISTANCE A - B      1.199454
 HEAT             -210.022134
 GRADIENT NORM       9.653542
 DIRECTION COSINE   -0.105497
* ===============================
* Input file for Mopac
* ===============================
 PM7 BONDS AUX DUMP=30M ITRY=15000 T=14D CHARGE=-1 SINGLET eps=78.4 RELSCF=1


  C     0.00000000 +0    0.0000000 +0    0.0000000 +0     0     0     0
  C     1.39298556 +1    0.0000000 +0    0.0000000 +0     1     0     0
  C     1.40335421 +1  120.5210297 +1    0.0000000 +0     2     1     0
  C     1.38808139 +1  119.4941238 +1   -1.6310558 +1     3     2     1
  C     1.39867150 +1  119.4164193 +1    0.6866505 +1     4     3     2
  C     1.39312337 +1  120.4793303 +1    1.0037206 +1     1     2     3
  H     1.09449657 +1  119.9208202 +1 -179.3826363 +1     1     2     3
  H     1.09655587 +1  119.1424494 +1  179.6559809 +1     2     1     3
  H     1.09784216 +1  121.5020593 +1 -178.8375058 +1     4     3     2
  H     1.09514350 +1  120.5130876 +1 -179.4982817 +1     6     1     2
  N     1.44248554 +1  118.0165102 +1 -178.8939164 +1     5     4     3
  O     1.22317568 +1  119.5779893 +1 -177.4613774 +1    11     5     4
  O     1.22606074 +1  118.9046175 +1    2.9281522 +1    11     5     4
  C     1.50351689 +1  119.6250638 +1 -179.3121988 +1     3     2     1
  H     1.15455616 +1  108.9283551 +1   54.4141645 +1    14     3     2
  C     1.52325299 +1  114.2189620 +1  174.8065106 +1    14     3     2
  H     1.10030662 +1  112.1848366 +1 -177.8507860 +1    16    14     3
  H     1.09839963 +1  113.4731989 +1   60.9682167 +1    16    14     3
  H     1.10303914 +1  110.4903123 +1  -59.3718194 +1    16    14     3
  N     1.49936837 +1  110.9882887 +1  -61.6231383 +1    14     3     2
  O     1.22191651 +1  118.0287827 +1  176.0952540 +1    20    14     3
  O     1.21898114 +1  120.0193608 +1   -2.7517765 +1    20    14     3
  O     4.89718793 +1  171.0747271 +1    6.3356328 +1    15    14     3
  H     0.89725999 +1   34.4153306 +1  117.8841655 +1    23    15    14
  H     2.20168727 +1  125.7149951 +1  -26.5554622 +1    24    23    15
  H     1.51668720 +1   66.5050904 +1  118.4030396 +1    25    24    23
  O     0.96599015 +1   84.7378429 +1  153.3896110 +1    25    24    23

 *+*+*+*+*+*+*+*+*+*+*+*+*+*+*+*+*+*+*+*+*+*+*+*+*+*+*+*+*+*+*+*+*+*+*+*+*+*+*+*+
            BAR SHORTENED BY       1.000 PERCENT
 GRADIENT CRITERION IN FLEPO =     6.654
 

                    SINCE COS WAS JUST RESET,THE SEARCH IS BEING ENDED


          FOR POINT    3 FIRST  STRUCTURE
 DISTANCE A - B      1.187460
 HEAT             -209.967854
 GRADIENT NORM      13.831859
 DIRECTION COSINE    0.942188
* ===============================
* Input file for Mopac
* ===============================
 PM7 BONDS AUX DUMP=30M ITRY=15000 T=14D CHARGE=-1 SINGLET eps=78.4 RELSCF=1


  C     0.00000000 +0    0.0000000 +0    0.0000000 +0     0     0     0
  C     1.39297364 +1    0.0000000 +0    0.0000000 +0     1     0     0
  C     1.40337672 +1  120.5274134 +1    0.0000000 +0     2     1     0
  C     1.38819283 +1  119.4839540 +1   -1.6362261 +1     3     2     1
  C     1.39866441 +1  119.4188281 +1    0.6899159 +1     4     3     2
  C     1.39309953 +1  120.4805253 +1    1.0091817 +1     1     2     3
  H     1.09448485 +1  119.9201704 +1 -179.3697707 +1     1     2     3
  H     1.09653367 +1  119.1398352 +1  179.6462182 +1     2     1     3
  H     1.09780430 +1  121.4931546 +1 -178.8520610 +1     4     3     2
  H     1.09508694 +1  120.5146916 +1 -179.5009503 +1     6     1     2
  N     1.44248305 +1  118.0273832 +1 -178.9038213 +1     5     4     3
  O     1.22318416 +1  119.5768403 +1 -177.4602216 +1    11     5     4
  O     1.22604730 +1  118.9094256 +1    2.9270789 +1    11     5     4
  C     1.50300367 +1  119.6418190 +1 -179.3537489 +1     3     2     1
  H     1.16218325 +1  108.8572157 +1   54.5939350 +1    14     3     2
  C     1.52284446 +1  114.2752546 +1  174.7325955 +1    14     3     2
  H     1.10027393 +1  112.1928906 +1 -177.7773041 +1    16    14     3
  H     1.09840699 +1  113.4469063 +1   61.0699464 +1    16    14     3
  H     1.10297211 +1  110.5143158 +1  -59.2663021 +1    16    14     3
  N     1.49753559 +1  111.0812194 +1  -61.4528777 +1    14     3     2
  O     1.22202636 +1  118.0899029 +1  176.1818136 +1    20    14     3
  O     1.21798047 +1  120.0098050 +1   -2.6132541 +1    20    14     3
  O     4.89202453 +1  171.1473128 +1    5.0500118 +1    15    14     3
  H     0.89684255 +1   34.3834741 +1  118.8900313 +1    23    15    14
  H     2.20399480 +1  125.7979020 +1  -26.5700002 +1    24    23    15
  H     1.51735857 +1   66.5601107 +1  118.2256216 +1    25    24    23
  O     0.96654401 +1   84.7885630 +1  153.2173806 +1    25    24    23

 *+*+*+*+*+*+*+*+*+*+*+*+*+*+*+*+*+*+*+*+*+*+*+*+*+*+*+*+*+*+*+*+*+*+*+*+*+*+*+*+
            BAR SHORTENED BY       1.000 PERCENT
 GRADIENT CRITERION IN FLEPO =    10.000


          FOR POINT    4 FIRST  STRUCTURE
 DISTANCE A - B      1.175585
 HEAT             -209.768457
 GRADIENT NORM      18.656914
 DIRECTION COSINE    0.985721
* ===============================
* Input file for Mopac
* ===============================
 PM7 BONDS AUX DUMP=30M ITRY=15000 T=14D CHARGE=-1 SINGLET eps=78.4 RELSCF=1


  C     0.00000000 +0    0.0000000 +0    0.0000000 +0     0     0     0
  C     1.39297019 +1    0.0000000 +0    0.0000000 +0     1     0     0
  C     1.40339282 +1  120.5334892 +1    0.0000000 +0     2     1     0
  C     1.38830691 +1  119.4741601 +1   -1.6406650 +1     3     2     1
  C     1.39865768 +1  119.4212116 +1    0.6925418 +1     4     3     2
  C     1.39307674 +1  120.4817936 +1    1.0139904 +1     1     2     3
  H     1.09446378 +1  119.9197016 +1 -179.3572012 +1     1     2     3
  H     1.09650211 +1  119.1371562 +1  179.6370683 +1     2     1     3
  H     1.09777012 +1  121.4843385 +1 -178.8669744 +1     4     3     2
  H     1.09502339 +1  120.5184647 +1 -179.5042756 +1     6     1     2
  N     1.44247923 +1  118.0382452 +1 -178.9134451 +1     5     4     3
  O     1.22319649 +1  119.5757449 +1 -177.4588453 +1    11     5     4
  O     1.22603417 +1  118.9142253 +1    2.9258517 +1    11     5     4
  C     1.50249901 +1  119.6580771 +1 -179.3944626 +1     3     2     1
  H     1.16971469 +1  108.7872240 +1   54.7701971 +1    14     3     2
  C     1.52244996 +1  114.3309446 +1  174.6601710 +1    14     3     2
  H     1.10031714 +1  112.2011667 +1 -177.7061355 +1    16    14     3
  H     1.09850488 +1  113.4201317 +1   61.1712759 +1    16    14     3
  H     1.10293975 +1  110.5398442 +1  -59.1618491 +1    16    14     3
  N     1.49573327 +1  111.1728562 +1  -61.2838925 +1    14     3     2
  O     1.22219574 +1  118.1492301 +1  176.2696538 +1    20    14     3
  O     1.21701878 +1  120.0007238 +1   -2.4760468 +1    20    14     3
  O     4.88693861 +1  171.2147017 +1    3.7681172 +1    15    14     3
  H     0.89643440 +1   34.3518920 +1  119.8949529 +1    23    15    14
  H     2.20628427 +1  125.8799298 +1  -26.5845078 +1    24    23    15
  H     1.51802956 +1   66.6146469 +1  118.0491829 +1    25    24    23
  O     0.96709217 +1   84.8385621 +1  153.0456018 +1    25    24    23

 TIME=     1.13
  REACTANTS AND PRODUCTS SWAPPED AROUND
 *+*+*+*+*+*+*+*+*+*+*+*+*+*+*+*+*+*+*+*+*+*+*+*+*+*+*+*+*+*+*+*+*+*+*+*+*+*+*+*+
            BAR SHORTENED BY       0.000 PERCENT
 GRADIENT CRITERION IN FLEPO =    10.000


          FOR POINT    5 SECOND STRUCTURE
 DISTANCE A - B      1.175585
 HEAT             -189.151322
 GRADIENT NORM       9.814141
 DIRECTION COSINE   -0.131107
* ===============================
* Input file for Mopac
* ===============================
 PM7 BONDS AUX DUMP=30M ITRY=15000 T=14D CHARGE=-1 SINGLET eps=78.4 RELSCF=1


  C     0.00000000 +0    0.0000000 +0    0.0000000 +0     0     0     0
  C     1.39196912 +1    0.0000000 +0    0.0000000 +0     1     0     0
  C     1.40563389 +1  121.1611247 +1    0.0000000 +0     2     1     0
  C     1.39954258 +1  118.4741398 +1   -2.1200742 +1     3     2     1
  C     1.39822449 +1  119.6587525 +1    0.9822912 +1     4     3     2
  C     1.39099165 +1  120.6064807 +1    1.5403045 +1     1     2     3
  H     1.09347377 +1  119.8374558 +1 -178.1068845 +1     1     2     3
  H     1.09461758 +1  118.8900892 +1  178.6864048 +1     2     1     3
  H     1.09444177 +1  120.5741548 +1  179.7133380 +1     4     3     2
  H     1.08968827 +1  120.6815993 +1 -179.7702848 +1     6     1     2
  N     1.44284407 +1  119.0994539 +1 -179.8960532 +1     5     4     3
  O     1.22474883 +1  119.4626273 +1 -177.3339054 +1    11     5     4
  O     1.22574552 +1  119.3802241 +1    2.8238543 +1    11     5     4
  C     1.45725294 +1  121.2759157 +1  176.2939855 +1     3     2     1
  H     1.94034899 +1  102.3538949 +1   66.0544776 +1    14     3     2
  C     1.49804454 +1  119.0158679 +1  166.5679447 +1    14     3     2
  H     1.10023634 +1  113.1612832 +1 -169.4174174 +1    16    14     3
  H     1.10497483 +1  110.6688504 +1   72.0347036 +1    16    14     3
  H     1.09656520 +1  112.7980365 +1  -47.6749038 +1    16    14     3
  N     1.36635746 +1  119.1354610 +1  -41.1910099 +1    14     3     2
  O     1.24917969 +1  120.9335263 +1 -176.5251540 +1    20    14     3
  O     1.24923045 +1  121.4928827 +1    7.0543586 +1    20    14     3
  O     4.40797970 +1  165.8948751 +1  -75.5726852 +1    15    14     3
  H     0.89467812 +1   32.3019478 +1  172.9243702 +1    23    15    14
  H     1.64998551 +1  144.7251077 +1  -15.4216902 +1    15    14     3
  H     1.58725184 +1   61.1740290 +1 -141.4071107 +1    25    15    14
  O     1.02356582 +1   39.2169264 +1  -43.7868913 +1    26    25    15

 TIME=     0.14
  REACTANTS AND PRODUCTS SWAPPED AROUND
 *+*+*+*+*+*+*+*+*+*+*+*+*+*+*+*+*+*+*+*+*+*+*+*+*+*+*+*+*+*+*+*+*+*+*+*+*+*+*+*+
            BAR SHORTENED BY       1.000 PERCENT
 GRADIENT CRITERION IN FLEPO =     6.814
           THERE HAVE BEEN 3 ATTEMPTS TO REDUCE THE GRADIENT.
           DURING THESE ATTEMPTS THE ENERGY DROPPED BY LESS THAN 0.3 KCAL/MOLE
           FURTHER CALCULATION IS NOT JUSTIFIED AT THIS TIME.
           TO CONTINUE, START AGAIN WITH THE WORD "PRECISE"


          FOR POINT    6 FIRST  STRUCTURE
 DISTANCE A - B      1.163829
 HEAT             -209.770517
 GRADIENT NORM      22.857708
 DIRECTION COSINE   -0.212084
* ===============================
* Input file for Mopac
* ===============================
 PM7 BONDS AUX DUMP=30M ITRY=15000 T=14D CHARGE=-1 SINGLET eps=78.4 RELSCF=1


  C     0.00000000 +0    0.0000000 +0    0.0000000 +0     0     0     0
  C     1.39124940 +1    0.0000000 +0    0.0000000 +0     1     0     0
  C     1.40218141 +1  120.6545554 +1    0.0000000 +0     2     1     0
  C     1.38978526 +1  119.3674127 +1   -1.0311647 +1     3     2     1
  C     1.39899399 +1  119.4762184 +1    0.3393812 +1     4     3     2
  C     1.39202986 +1  120.5361177 +1    0.4091006 +1     1     2     3
  H     1.09394629 +1  119.9056459 +1 -179.3052197 +1     1     2     3
  H     1.09722746 +1  119.5366647 +1 -179.7064142 +1     2     1     3
  H     1.10057627 +1  121.2766650 +1 -179.2848973 +1     4     3     2
  H     1.09456703 +1  120.6952916 +1 -179.3000833 +1     6     1     2
  N     1.44257642 +1  118.1664797 +1 -179.0131773 +1     5     4     3
  O     1.22249252 +1  119.5621220 +1 -177.6314227 +1    11     5     4
  O     1.22536490 +1  118.8965068 +1    3.2703587 +1    11     5     4
  C     1.50402050 +1  119.7778425 +1 -179.0319759 +1     3     2     1
  H     1.16227162 +1  108.9003210 +1   55.5218101 +1    14     3     2
  C     1.52563348 +1  114.3468213 +1  175.0729880 +1    14     3     2
  H     1.10487931 +1  112.1332827 +1 -177.9930194 +1    16    14     3
  H     1.10359391 +1  113.5932969 +1   61.5477633 +1    16    14     3
  H     1.08851831 +1  111.3406333 +1  -58.9550782 +1    16    14     3
  N     1.49538785 +1  111.1041504 +1  -61.0491835 +1    14     3     2
  O     1.22677454 +1  118.0457386 +1  177.0292718 +1    20    14     3
  O     1.21769399 +1  120.0198746 +1   -2.1811269 +1    20    14     3
  O     4.89479489 +1  171.2009420 +1   -0.7606603 +1    15    14     3
  H     0.89549024 +1   34.1493934 +1  124.0020756 +1    23    15    14
  H     2.21025709 +1  126.0995386 +1  -26.6053839 +1    24    23    15
  H     1.52010028 +1   66.7632749 +1  117.7998922 +1    25    24    23
  O     0.96676133 +1   38.1834394 +1  112.9026356 +1    26    25    24

 TIME=     1.61
  REACTANTS AND PRODUCTS SWAPPED AROUND
 *+*+*+*+*+*+*+*+*+*+*+*+*+*+*+*+*+*+*+*+*+*+*+*+*+*+*+*+*+*+*+*+*+*+*+*+*+*+*+*+
            BAR SHORTENED BY       1.000 PERCENT
 GRADIENT CRITERION IN FLEPO =    10.000


          FOR POINT    7 SECOND STRUCTURE
 DISTANCE A - B      1.152191
 HEAT             -189.145342
 GRADIENT NORM      14.682477
 DIRECTION COSINE    0.005602
* ===============================
* Input file for Mopac
* ===============================
 PM7 BONDS AUX DUMP=30M ITRY=15000 T=14D CHARGE=-1 SINGLET eps=78.4 RELSCF=1


  C     0.00000000 +0    0.0000000 +0    0.0000000 +0     0     0     0
  C     1.39208915 +1    0.0000000 +0    0.0000000 +0     1     0     0
  C     1.40604775 +1  121.1949309 +1    0.0000000 +0     2     1     0
  C     1.40016001 +1  118.4028659 +1   -2.1393121 +1     3     2     1
  C     1.39818877 +1  119.7004696 +1    1.0070528 +1     4     3     2
  C     1.39081076 +1  120.5960608 +1    1.5517592 +1     1     2     3
  H     1.09347217 +1  119.8343695 +1 -178.1197819 +1     1     2     3
  H     1.09463913 +1  118.8992505 +1  178.7106307 +1     2     1     3
  H     1.09452439 +1  120.5297001 +1  179.7597045 +1     4     3     2
  H     1.09023088 +1  120.6765762 +1 -179.7468520 +1     6     1     2
  N     1.44278652 +1  119.0918350 +1 -179.9034884 +1     5     4     3
  O     1.22478740 +1  119.4620719 +1 -177.3339233 +1    11     5     4
  O     1.22583996 +1  119.3614907 +1    2.8241943 +1    11     5     4
  C     1.45664936 +1  121.3019614 +1  176.3743303 +1     3     2     1
  H     1.93095467 +1  102.4474954 +1   65.9154328 +1    14     3     2
  C     1.49813574 +1  118.9905751 +1  166.6580902 +1    14     3     2
  H     1.10014098 +1  113.1472793 +1 -169.5260712 +1    16    14     3
  H     1.10494761 +1  110.7446101 +1   71.8745774 +1    16    14     3
  H     1.09678655 +1  112.7606355 +1  -47.8282045 +1    16    14     3
  N     1.36452905 +1  119.1676186 +1  -41.5739664 +1    14     3     2
  O     1.24804328 +1  121.2430451 +1 -176.5942964 +1    20    14     3
  O     1.25169872 +1  121.3807532 +1    7.2422949 +1    20    14     3
  O     4.41134684 +1  166.0250403 +1  -75.0678699 +1    15    14     3
  H     0.89489148 +1   32.5069137 +1  172.8184398 +1    23    15    14
  H     1.65525429 +1  144.8884657 +1  -14.8955508 +1    15    14     3
  H     1.58709599 +1   61.1225618 +1 -141.8984518 +1    25    15    14
  O     1.02196708 +1   39.0987720 +1  -44.1086258 +1    26    25    15

 TIME=     0.23
  REACTANTS AND PRODUCTS SWAPPED AROUND
 *+*+*+*+*+*+*+*+*+*+*+*+*+*+*+*+*+*+*+*+*+*+*+*+*+*+*+*+*+*+*+*+*+*+*+*+*+*+*+*+
            BAR SHORTENED BY       1.000 PERCENT
 GRADIENT CRITERION IN FLEPO =    10.000


          FOR POINT    8 FIRST  STRUCTURE
 DISTANCE A - B      1.140669
 HEAT             -209.967251
 GRADIENT NORM      11.652666
 DIRECTION COSINE    0.139532
* ===============================
* Input file for Mopac
* ===============================
 PM7 BONDS AUX DUMP=30M ITRY=15000 T=14D CHARGE=-1 SINGLET eps=78.4 RELSCF=1


  C     0.00000000 +0    0.0000000 +0    0.0000000 +0     0     0     0
  C     1.39442678 +1    0.0000000 +0    0.0000000 +0     1     0     0
  C     1.40028540 +1  120.6986870 +1    0.0000000 +0     2     1     0
  C     1.38952265 +1  119.4485806 +1   -1.6562714 +1     3     2     1
  C     1.39971437 +1  119.3964612 +1    0.6352811 +1     4     3     2
  C     1.39237028 +1  120.3617913 +1    1.0602958 +1     1     2     3
  H     1.09188521 +1  120.1532405 +1 -178.5023908 +1     1     2     3
  H     1.09716089 +1  119.2730211 +1  179.5061255 +1     2     1     3
  H     1.09766477 +1  121.3197101 +1 -179.0353391 +1     4     3     2
  H     1.09505267 +1  120.6382665 +1 -179.5386202 +1     6     1     2
  N     1.44077597 +1  118.1364267 +1 -179.0142793 +1     5     4     3
  O     1.22390311 +1  119.5485357 +1 -177.4470512 +1    11     5     4
  O     1.22750808 +1  119.2407470 +1    2.6202636 +1    11     5     4
  C     1.50680459 +1  119.7795041 +1 -178.7981023 +1     3     2     1
  H     1.14426882 +1  109.2812425 +1   54.9419752 +1    14     3     2
  C     1.52270560 +1  114.7003895 +1  175.4805472 +1    14     3     2
  H     1.10023664 +1  112.5733170 +1 -177.9571919 +1    16    14     3
  H     1.09514641 +1  114.5498786 +1   60.9996615 +1    16    14     3
  H     1.10698208 +1  110.3551259 +1  -59.8772229 +1    16    14     3
  N     1.50091277 +1  110.6497126 +1  -61.5110435 +1    14     3     2
  O     1.22103401 +1  118.0906945 +1  177.7730872 +1    20    14     3
  O     1.22022150 +1  120.0542227 +1   -1.7246439 +1    20    14     3
  O     4.91292469 +1  171.2318757 +1   -1.6316737 +1    15    14     3
  H     0.88941878 +1   33.9116361 +1  124.4105174 +1    23    15    14
  H     2.21930605 +1  126.6397758 +1  -26.7822255 +1    24    23    15
  H     1.52286130 +1   67.0583111 +1  117.2749019 +1    25    24    23
  O     0.96615587 +1   85.0530859 +1  152.0214628 +1    25    24    23

 *+*+*+*+*+*+*+*+*+*+*+*+*+*+*+*+*+*+*+*+*+*+*+*+*+*+*+*+*+*+*+*+*+*+*+*+*+*+*+*+
            BAR SHORTENED BY       1.000 PERCENT
 GRADIENT CRITERION IN FLEPO =     8.653


          FOR POINT    9 FIRST  STRUCTURE
 DISTANCE A - B      1.129262
 HEAT             -210.040858
 GRADIENT NORM      10.379769
 DIRECTION COSINE   -0.040671
* ===============================
* Input file for Mopac
* ===============================
 PM7 BONDS AUX DUMP=30M ITRY=15000 T=14D CHARGE=-1 SINGLET eps=78.4 RELSCF=1


  C     0.00000000 +0    0.0000000 +0    0.0000000 +0     0     0     0
  C     1.39222647 +1    0.0000000 +0    0.0000000 +0     1     0     0
  C     1.40348151 +1  120.6823327 +1    0.0000000 +0     2     1     0
  C     1.39012121 +1  119.3536943 +1   -1.3332323 +1     3     2     1
  C     1.40128794 +1  119.3873599 +1    0.2540021 +1     4     3     2
  C     1.39329459 +1  120.5266605 +1    1.1561282 +1     1     2     3
  H     1.09658499 +1  119.9278299 +1 -179.1177091 +1     1     2     3
  H     1.09555686 +1  119.4731377 +1  179.7525520 +1     2     1     3
  H     1.09801600 +1  121.5955420 +1 -179.3377562 +1     4     3     2
  H     1.09565804 +1  120.5864949 +1 -179.9242520 +1     6     1     2
  N     1.44290874 +1  118.3038469 +1 -178.7272086 +1     5     4     3
  O     1.22487837 +1  119.4022495 +1 -177.5725739 +1    11     5     4
  O     1.22517294 +1  118.9430787 +1    2.5778255 +1    11     5     4
  C     1.50324440 +1  119.8251352 +1 -178.9745565 +1     3     2     1
  H     1.14787299 +1  109.0970137 +1   55.2169567 +1    14     3     2
  C     1.52606436 +1  114.7178832 +1  175.5757312 +1    14     3     2
  H     1.10444537 +1  112.1005458 +1 -178.0122380 +1    16    14     3
  H     1.09778459 +1  113.9997242 +1   61.1242508 +1    16    14     3
  H     1.10276684 +1  110.5864373 +1  -59.5821115 +1    16    14     3
  N     1.50299990 +1  110.7846729 +1  -61.4372370 +1    14     3     2
  O     1.22325313 +1  117.7841420 +1  177.6155819 +1    20    14     3
  O     1.21759961 +1  119.9677971 +1   -0.8708164 +1    20    14     3
  O     4.91301430 +1  171.4995763 +1   -1.7729092 +1    15    14     3
  H     0.89439053 +1   33.8423196 +1  123.9621783 +1    23    15    14
  H     2.22205865 +1  126.7432047 +1  -26.8904546 +1    24    23    15
  H     1.52716023 +1   67.0519706 +1  116.9762802 +1    25    24    23
  O     0.96645939 +1   84.6520079 +1  151.7166111 +1    25    24    23

 TIME=     0.46
  REACTANTS AND PRODUCTS SWAPPED AROUND
 *+*+*+*+*+*+*+*+*+*+*+*+*+*+*+*+*+*+*+*+*+*+*+*+*+*+*+*+*+*+*+*+*+*+*+*+*+*+*+*+
            BAR SHORTENED BY       1.000 PERCENT
 GRADIENT CRITERION IN FLEPO =     7.380


          FOR POINT   10 SECOND STRUCTURE
 DISTANCE A - B      1.117970
 HEAT             -189.109340
 GRADIENT NORM      20.797934
 DIRECTION COSINE   -0.043748
* ===============================
* Input file for Mopac
* ===============================
 PM7 BONDS AUX DUMP=30M ITRY=15000 T=14D CHARGE=-1 SINGLET eps=78.4 RELSCF=1


  C     0.00000000 +0    0.0000000 +0    0.0000000 +0     0     0     0
  C     1.39261270 +1    0.0000000 +0    0.0000000 +0     1     0     0
  C     1.40173507 +1  121.1982853 +1    0.0000000 +0     2     1     0
  C     1.39675877 +1  118.6636688 +1   -2.4615032 +1     3     2     1
  C     1.39750782 +1  119.7157439 +1    1.2275192 +1     4     3     2
  C     1.39360232 +1  120.3558726 +1    1.8026361 +1     1     2     3
  H     1.09028291 +1  120.0469157 +1 -178.0470651 +1     1     2     3
  H     1.09456635 +1  118.7722037 +1  178.5165371 +1     2     1     3
  H     1.09781474 +1  120.7167054 +1 -179.9931548 +1     4     3     2
  H     1.09534139 +1  120.4654224 +1 -179.5995998 +1     6     1     2
  N     1.44276298 +1  119.2330355 +1  179.9894531 +1     5     4     3
  O     1.22890500 +1  119.3179340 +1 -177.3089061 +1    11     5     4
  O     1.22248997 +1  119.2924451 +1    2.8225097 +1    11     5     4
  C     1.46393800 +1  121.1345655 +1  176.9717069 +1     3     2     1
  H     1.91193111 +1  102.9413671 +1   65.0148068 +1    14     3     2
  C     1.49776340 +1  118.9697263 +1  166.9623307 +1    14     3     2
  H     1.09668108 +1  112.7903135 +1 -170.1679278 +1    16    14     3
  H     1.10443065 +1  111.1200259 +1   70.7883349 +1    16    14     3
  H     1.09679280 +1  112.2392857 +1  -48.7900398 +1    16    14     3
  N     1.37166115 +1  118.4825020 +1  -42.9582057 +1    14     3     2
  O     1.24825729 +1  120.8138139 +1 -176.0345221 +1    20    14     3
  O     1.24597557 +1  121.5359439 +1    8.3598251 +1    20    14     3
  O     4.41157419 +1  166.5071531 +1  -74.1188107 +1    15    14     3
  H     0.90171061 +1   32.9373100 +1  172.7489499 +1    23    15    14
  H     1.65846861 +1  145.0830652 +1  -13.4428758 +1    15    14     3
  H     1.59056224 +1   60.9528494 +1 -143.2654362 +1    25    15    14
  O     1.02353419 +1   39.5258904 +1  172.8856316 +1    25    15    14

 TIME=     0.80
  REACTANTS AND PRODUCTS SWAPPED AROUND
 *+*+*+*+*+*+*+*+*+*+*+*+*+*+*+*+*+*+*+*+*+*+*+*+*+*+*+*+*+*+*+*+*+*+*+*+*+*+*+*+
            BAR SHORTENED BY       1.000 PERCENT
 GRADIENT CRITERION IN FLEPO =    10.000


          FOR POINT   11 FIRST  STRUCTURE
 DISTANCE A - B      1.106790
 HEAT             -210.111232
 GRADIENT NORM       7.468032
 DIRECTION COSINE    0.101845
* ===============================
* Input file for Mopac
* ===============================
 PM7 BONDS AUX DUMP=30M ITRY=15000 T=14D CHARGE=-1 SINGLET eps=78.4 RELSCF=1


  C     0.00000000 +0    0.0000000 +0    0.0000000 +0     0     0     0
  C     1.39333399 +1    0.0000000 +0    0.0000000 +0     1     0     0
  C     1.40204886 +1  120.7294883 +1    0.0000000 +0     2     1     0
  C     1.39075954 +1  119.3385124 +1   -1.0762829 +1     3     2     1
  C     1.39821881 +1  119.4277493 +1    0.0207966 +1     4     3     2
  C     1.39309778 +1  120.4146576 +1    0.8977740 +1     1     2     3
  H     1.09466024 +1  120.0162815 +1 -179.1195546 +1     1     2     3
  H     1.09718150 +1  119.1952383 +1  179.9602173 +1     2     1     3
  H     1.09798337 +1  121.3636387 +1 -179.4783406 +1     4     3     2
  H     1.09564219 +1  120.5872901 +1 -179.9325963 +1     6     1     2
  N     1.44134042 +1  118.3854858 +1 -178.7587276 +1     5     4     3
  O     1.22359578 +1  119.5959257 +1 -177.5429106 +1    11     5     4
  O     1.22612165 +1  119.0159952 +1    2.7457013 +1    11     5     4
  C     1.50587406 +1  119.8786172 +1 -178.8931581 +1     3     2     1
  H     1.14632876 +1  108.8162412 +1   55.1323328 +1    14     3     2
  C     1.52215185 +1  114.9491055 +1  175.6791942 +1    14     3     2
  H     1.10070061 +1  112.1559985 +1 -177.9730376 +1    16    14     3
  H     1.09944718 +1  114.0553228 +1   61.5699481 +1    16    14     3
  H     1.10350955 +1  110.6525592 +1  -59.5472492 +1    16    14     3
  N     1.50212104 +1  110.7615131 +1  -61.0311695 +1    14     3     2
  O     1.22100501 +1  117.9540799 +1  177.9202846 +1    20    14     3
  O     1.21953150 +1  120.0238999 +1   -0.8124331 +1    20    14     3
  O     4.92118725 +1  171.8164182 +1   -0.8997485 +1    15    14     3
  H     0.89131742 +1   33.3172517 +1  120.3386229 +1    23    15    14
  H     2.21852461 +1  128.3114512 +1  -27.6952413 +1    24    23    15
  H     1.52781973 +1   67.6760065 +1  115.1240103 +1    25    24    23
  O     0.96609833 +1   85.1353658 +1  149.8227840 +1    25    24    23

 *+*+*+*+*+*+*+*+*+*+*+*+*+*+*+*+*+*+*+*+*+*+*+*+*+*+*+*+*+*+*+*+*+*+*+*+*+*+*+*+
            BAR SHORTENED BY       1.000 PERCENT
 GRADIENT CRITERION IN FLEPO =     4.468


          FOR POINT   12 FIRST  STRUCTURE
 DISTANCE A - B      1.095722
 HEAT             -210.087366
 GRADIENT NORM       9.033319
 DIRECTION COSINE    0.731590
* ===============================
* Input file for Mopac
* ===============================
 PM7 BONDS AUX DUMP=30M ITRY=15000 T=14D CHARGE=-1 SINGLET eps=78.4 RELSCF=1


  C     0.00000000 +0    0.0000000 +0    0.0000000 +0     0     0     0
  C     1.39336955 +1    0.0000000 +0    0.0000000 +0     1     0     0
  C     1.40202752 +1  120.7340984 +1    0.0000000 +0     2     1     0
  C     1.39081658 +1  119.3343745 +1   -1.0935041 +1     3     2     1
  C     1.39831958 +1  119.4264518 +1    0.0387640 +1     4     3     2
  C     1.39302632 +1  120.4140700 +1    0.9099764 +1     1     2     3
  H     1.09453669 +1  120.0115939 +1 -179.1092926 +1     1     2     3
  H     1.09710954 +1  119.1873357 +1  179.9385462 +1     2     1     3
  H     1.09800582 +1  121.3685536 +1 -179.5231501 +1     4     3     2
  H     1.09559178 +1  120.5895224 +1 -179.9405811 +1     6     1     2
  N     1.44145901 +1  118.3958817 +1 -178.7688935 +1     5     4     3
  O     1.22375224 +1  119.5889551 +1 -177.5323470 +1    11     5     4
  O     1.22609340 +1  119.0110252 +1    2.7314721 +1    11     5     4
  C     1.50537568 +1  119.8850980 +1 -178.9317751 +1     3     2     1
  H     1.15354705 +1  108.7454154 +1   55.2903194 +1    14     3     2
  C     1.52200645 +1  114.9976668 +1  175.6057002 +1    14     3     2
  H     1.10070700 +1  112.1565287 +1 -177.8992801 +1    16    14     3
  H     1.09937040 +1  114.0118983 +1   61.6336619 +1    16    14     3
  H     1.10726629 +1  110.9143376 +1  -59.4073751 +1    16    14     3
  N     1.50031613 +1  110.8513602 +1  -60.8834367 +1    14     3     2
  O     1.22124234 +1  117.9681557 +1  178.0581532 +1    20    14     3
  O     1.21876032 +1  120.0170691 +1   -0.6691427 +1    20    14     3
  O     4.91624268 +1  171.8750523 +1   -2.2254752 +1    15    14     3
  H     0.89137548 +1   33.3029757 +1  121.4025168 +1    23    15    14
  H     2.22070340 +1  128.3636099 +1  -27.6973341 +1    24    23    15
  H     1.52839858 +1   67.7206898 +1  114.9441199 +1    25    24    23
  O     0.96644009 +1   85.1152068 +1  149.6788677 +1    25    24    23

 *+*+*+*+*+*+*+*+*+*+*+*+*+*+*+*+*+*+*+*+*+*+*+*+*+*+*+*+*+*+*+*+*+*+*+*+*+*+*+*+
            BAR SHORTENED BY       1.000 PERCENT
 GRADIENT CRITERION IN FLEPO =     6.033
 

                    SINCE COS WAS JUST RESET,THE SEARCH IS BEING ENDED


          FOR POINT   13 FIRST  STRUCTURE
 DISTANCE A - B      1.084765
 HEAT             -210.042732
 GRADIENT NORM      12.714412
 DIRECTION COSINE    0.934424
* ===============================
* Input file for Mopac
* ===============================
 PM7 BONDS AUX DUMP=30M ITRY=15000 T=14D CHARGE=-1 SINGLET eps=78.4 RELSCF=1


  C     0.00000000 +0    0.0000000 +0    0.0000000 +0     0     0     0
  C     1.39336053 +1    0.0000000 +0    0.0000000 +0     1     0     0
  C     1.40202351 +1  120.7386922 +1    0.0000000 +0     2     1     0
  C     1.39087221 +1  119.3278875 +1   -1.1073893 +1     3     2     1
  C     1.39830981 +1  119.4292904 +1    0.0508822 +1     4     3     2
  C     1.39303056 +1  120.4134451 +1    0.9189353 +1     1     2     3
  H     1.09449372 +1  120.0120139 +1 -179.0986574 +1     1     2     3
  H     1.09708181 +1  119.1831196 +1  179.9243327 +1     2     1     3
  H     1.09800207 +1  121.3623775 +1 -179.5278838 +1     4     3     2
  H     1.09558852 +1  120.5882644 +1 -179.9371645 +1     6     1     2
  N     1.44146876 +1  118.4042861 +1 -178.7812352 +1     5     4     3
  O     1.22379889 +1  119.5861998 +1 -177.5302133 +1    11     5     4
  O     1.22605245 +1  119.0138181 +1    2.7323710 +1    11     5     4
  C     1.50491912 +1  119.8975227 +1 -178.9709447 +1     3     2     1
  H     1.16096277 +1  108.6829925 +1   55.4404020 +1    14     3     2
  C     1.52162285 +1  115.0452339 +1  175.5265198 +1    14     3     2
  H     1.10064186 +1  112.1617296 +1 -177.8312179 +1    16    14     3
  H     1.09937844 +1  113.9846336 +1   61.7173220 +1    16    14     3
  H     1.10715017 +1  110.9279923 +1  -59.3091913 +1    16    14     3
  N     1.49861349 +1  110.9365325 +1  -60.7325447 +1    14     3     2
  O     1.22140519 +1  118.0203859 +1  178.1278640 +1    20    14     3
  O     1.21796209 +1  120.0119452 +1   -0.5441922 +1    20    14     3
  O     4.91099653 +1  171.9101586 +1   -3.4766421 +1    15    14     3
  H     0.89123872 +1   33.2950289 +1  122.4255182 +1    23    15    14
  H     2.22280937 +1  128.4034336 +1  -27.6977416 +1    24    23    15
  H     1.52899475 +1   67.7619965 +1  114.7874209 +1    25    24    23
  O     0.96697823 +1   85.1602180 +1  149.5304818 +1    25    24    23

 TIME=     1.37
  REACTANTS AND PRODUCTS SWAPPED AROUND
 *+*+*+*+*+*+*+*+*+*+*+*+*+*+*+*+*+*+*+*+*+*+*+*+*+*+*+*+*+*+*+*+*+*+*+*+*+*+*+*+
            BAR SHORTENED BY       0.000 PERCENT
 GRADIENT CRITERION IN FLEPO =     9.714


          FOR POINT   14 SECOND STRUCTURE
 DISTANCE A - B      1.084765
 HEAT             -189.270260
 GRADIENT NORM      17.361645
 DIRECTION COSINE    0.167962
* ===============================
* Input file for Mopac
* ===============================
 PM7 BONDS AUX DUMP=30M ITRY=15000 T=14D CHARGE=-1 SINGLET eps=78.4 RELSCF=1


  C     0.00000000 +0    0.0000000 +0    0.0000000 +0     0     0     0
  C     1.39292981 +1    0.0000000 +0    0.0000000 +0     1     0     0
  C     1.40699322 +1  121.0763169 +1    0.0000000 +0     2     1     0
  C     1.40044128 +1  118.4446498 +1   -2.4519865 +1     3     2     1
  C     1.39731810 +1  119.6511224 +1    0.9715615 +1     4     3     2
  C     1.38920122 +1  120.6499189 +1    2.0586609 +1     1     2     3
  H     1.09440331 +1  119.7008847 +1 -178.2129864 +1     1     2     3
  H     1.09464732 +1  118.9744101 +1  178.4058801 +1     2     1     3
  H     1.09359087 +1  120.4444213 +1 -179.8300025 +1     4     3     2
  H     1.09088487 +1  120.7367698 +1 -179.7186629 +1     6     1     2
  N     1.44415997 +1  119.0392905 +1  179.9492600 +1     5     4     3
  O     1.22339084 +1  119.4436713 +1 -177.3641181 +1    11     5     4
  O     1.22772590 +1  119.1831136 +1    3.0946428 +1    11     5     4
  C     1.45865391 +1  121.1278798 +1  176.6693940 +1     3     2     1
  H     1.91237878 +1  102.9570168 +1   65.1256659 +1    14     3     2
  C     1.49777936 +1  118.8480471 +1  166.9845870 +1    14     3     2
  H     1.10205322 +1  112.9702213 +1 -169.8716519 +1    16    14     3
  H     1.10259158 +1  111.4501593 +1   71.0444361 +1    16    14     3
  H     1.10137812 +1  112.3614691 +1  -48.7664751 +1    16    14     3
  N     1.37036251 +1  118.9333439 +1  -42.7656041 +1    14     3     2
  O     1.24774282 +1  121.1626450 +1 -175.8730901 +1    20    14     3
  O     1.25214843 +1  121.1656955 +1    8.1068845 +1    20    14     3
  O     4.40989780 +1  166.5361538 +1  -73.5411713 +1    15    14     3
  H     0.89599996 +1   33.0421235 +1  172.4466610 +1    23    15    14
  H     1.65678988 +1  145.0035455 +1  -13.3038597 +1    15    14     3
  H     1.58665832 +1   60.9021398 +1 -143.5691421 +1    25    15    14
  O     1.02278030 +1   39.1831182 +1  -44.4361786 +1    26    25    15

 TIME=     0.85
  REACTANTS AND PRODUCTS SWAPPED AROUND
 *+*+*+*+*+*+*+*+*+*+*+*+*+*+*+*+*+*+*+*+*+*+*+*+*+*+*+*+*+*+*+*+*+*+*+*+*+*+*+*+
            BAR SHORTENED BY       1.000 PERCENT
 GRADIENT CRITERION IN FLEPO =    10.000


          FOR POINT   15 FIRST  STRUCTURE
 DISTANCE A - B      1.073917
 HEAT             -210.128566
 GRADIENT NORM      16.853702
 DIRECTION COSINE   -0.242289
* ===============================
* Input file for Mopac
* ===============================
 PM7 BONDS AUX DUMP=30M ITRY=15000 T=14D CHARGE=-1 SINGLET eps=78.4 RELSCF=1


  C     0.00000000 +0    0.0000000 +0    0.0000000 +0     0     0     0
  C     1.39652406 +1    0.0000000 +0    0.0000000 +0     1     0     0
  C     1.39939794 +1  120.6201702 +1    0.0000000 +0     2     1     0
  C     1.39067019 +1  119.5131142 +1   -0.9786922 +1     3     2     1
  C     1.40159620 +1  119.3780019 +1   -0.0524186 +1     4     3     2
  C     1.39149362 +1  120.4952816 +1    0.6699587 +1     1     2     3
  H     1.09407229 +1  120.1170050 +1 -179.1334862 +1     1     2     3
  H     1.08956876 +1  119.1324853 +1 -179.7301243 +1     2     1     3
  H     1.09860038 +1  121.3613354 +1 -179.7352846 +1     4     3     2
  H     1.09466269 +1  120.9078335 +1 -179.9132399 +1     6     1     2
  N     1.44245323 +1  118.4189774 +1 -178.8161221 +1     5     4     3
  O     1.22300643 +1  119.4702643 +1 -177.3397241 +1    11     5     4
  O     1.22369106 +1  118.8634658 +1    2.6835261 +1    11     5     4
  C     1.50249205 +1  119.4931255 +1 -178.6082682 +1     3     2     1
  H     1.15927555 +1  109.1972483 +1   55.5973179 +1    14     3     2
  C     1.52705992 +1  114.8913136 +1  175.7147419 +1    14     3     2
  H     1.10230617 +1  112.2112289 +1 -178.1117029 +1    16    14     3
  H     1.10135226 +1  114.0831002 +1   61.4322320 +1    16    14     3
  H     1.10455211 +1  110.8901298 +1  -59.6245238 +1    16    14     3
  N     1.49763132 +1  111.0622712 +1  -60.9483608 +1    14     3     2
  O     1.22176521 +1  118.1017225 +1  179.0372992 +1    20    14     3
  O     1.22352855 +1  119.7875829 +1    0.0442369 +1    20    14     3
  O     4.91438148 +1  171.7054638 +1   -5.2779113 +1    15    14     3
  H     0.89601785 +1   33.1987059 +1  123.7042514 +1    23    15    14
  H     2.22409390 +1  128.4645311 +1  -27.7118147 +1    24    23    15
  H     1.52844709 +1   67.8369164 +1  114.6100952 +1    25    24    23
  O     0.96494079 +1   85.2391355 +1  149.3379691 +1    25    24    23

 TIME=     0.48
  REACTANTS AND PRODUCTS SWAPPED AROUND
 *+*+*+*+*+*+*+*+*+*+*+*+*+*+*+*+*+*+*+*+*+*+*+*+*+*+*+*+*+*+*+*+*+*+*+*+*+*+*+*+
            BAR SHORTENED BY       1.000 PERCENT
 GRADIENT CRITERION IN FLEPO =    10.000
 

                    SINCE COS WAS JUST RESET,THE SEARCH IS BEING ENDED


          FOR POINT   16 SECOND STRUCTURE
 DISTANCE A - B      1.063178
 HEAT             -189.233403
 GRADIENT NORM      21.611561
 DIRECTION COSINE   -0.036004
* ===============================
* Input file for Mopac
* ===============================
 PM7 BONDS AUX DUMP=30M ITRY=15000 T=14D CHARGE=-1 SINGLET eps=78.4 RELSCF=1


  C     0.00000000 +0    0.0000000 +0    0.0000000 +0     0     0     0
  C     1.39262487 +1    0.0000000 +0    0.0000000 +0     1     0     0
  C     1.40114100 +1  121.2549362 +1    0.0000000 +0     2     1     0
  C     1.39812100 +1  118.6112256 +1   -2.0981259 +1     3     2     1
  C     1.40139697 +1  119.7377624 +1    0.8234213 +1     4     3     2
  C     1.39361563 +1  120.3565685 +1    1.6129522 +1     1     2     3
  H     1.09239125 +1  120.1575790 +1 -178.5242245 +1     1     2     3
  H     1.09695497 +1  118.5006182 +1  178.9469019 +1     2     1     3
  H     1.09567581 +1  120.8332188 +1 -179.8718384 +1     4     3     2
  H     1.09434497 +1  120.4104393 +1 -179.8257493 +1     6     1     2
  N     1.44052945 +1  119.1161389 +1 -179.8696686 +1     5     4     3
  O     1.22886912 +1  119.1954307 +1 -177.2632369 +1    11     5     4
  O     1.22246630 +1  119.4130927 +1    2.9176464 +1    11     5     4
  C     1.46288210 +1  121.0678600 +1  176.7999406 +1     3     2     1
  H     1.90050828 +1  102.8745681 +1   65.2650302 +1    14     3     2
  C     1.50164126 +1  118.7438852 +1  167.2504872 +1    14     3     2
  H     1.09813077 +1  112.7086887 +1 -169.8701005 +1    16    14     3
  H     1.10076292 +1  111.2421989 +1   70.8682507 +1    16    14     3
  H     1.09680797 +1  112.2661229 +1  -48.7328483 +1    16    14     3
  N     1.36968689 +1  118.7165397 +1  -42.9213222 +1    14     3     2
  O     1.24794280 +1  120.8191288 +1 -175.8523657 +1    20    14     3
  O     1.24471934 +1  121.3992550 +1    8.3326309 +1    20    14     3
  O     4.41349700 +1  166.6982448 +1  -73.9387126 +1    15    14     3
  H     0.89344946 +1   33.2939016 +1  173.0785695 +1    23    15    14
  H     1.65970568 +1  145.3993796 +1  -13.0277738 +1    15    14     3
  H     1.58604285 +1   61.0706761 +1 -143.9635050 +1    25    15    14
  O     1.01969169 +1   39.8300820 +1  171.9802402 +1    25    15    14

 TIME=     0.62
  REACTANTS AND PRODUCTS SWAPPED AROUND
 *+*+*+*+*+*+*+*+*+*+*+*+*+*+*+*+*+*+*+*+*+*+*+*+*+*+*+*+*+*+*+*+*+*+*+*+*+*+*+*+
            BAR SHORTENED BY       1.000 PERCENT
 GRADIENT CRITERION IN FLEPO =    10.000
 

                    SINCE COS WAS JUST RESET,THE SEARCH IS BEING ENDED


          FOR POINT   17 FIRST  STRUCTURE
 DISTANCE A - B      1.052546
 HEAT             -210.012760
 GRADIENT NORM      16.907627
 DIRECTION COSINE    0.017919
* ===============================
* Input file for Mopac
* ===============================
 PM7 BONDS AUX DUMP=30M ITRY=15000 T=14D CHARGE=-1 SINGLET eps=78.4 RELSCF=1


  C     0.00000000 +0    0.0000000 +0    0.0000000 +0     0     0     0
  C     1.39270951 +1    0.0000000 +0    0.0000000 +0     1     0     0
  C     1.40108221 +1  120.7776577 +1    0.0000000 +0     2     1     0
  C     1.39290158 +1  119.2357916 +1   -1.1498780 +1     3     2     1
  C     1.39780098 +1  119.4961310 +1    0.1098778 +1     4     3     2
  C     1.39151202 +1  120.4809496 +1    0.7901903 +1     1     2     3
  H     1.09405642 +1  120.1305435 +1 -179.0718520 +1     1     2     3
  H     1.09471698 +1  119.1548104 +1 -179.9867446 +1     2     1     3
  H     1.10012689 +1  121.0468143 +1 -179.7548881 +1     4     3     2
  H     1.09465844 +1  120.9031879 +1 -179.9674825 +1     6     1     2
  N     1.43940853 +1  118.5047699 +1 -178.9224736 +1     5     4     3
  O     1.22620712 +1  119.7572580 +1 -177.5007596 +1    11     5     4
  O     1.22724992 +1  118.8419289 +1    2.7196944 +1    11     5     4
  C     1.50319980 +1  119.5992862 +1 -178.5460429 +1     3     2     1
  H     1.16182332 +1  109.0904003 +1   55.5754437 +1    14     3     2
  C     1.52708186 +1  114.8456594 +1  175.7236944 +1    14     3     2
  H     1.10224343 +1  112.1570073 +1 -178.2070458 +1    16    14     3
  H     1.10130786 +1  114.2047430 +1   61.2849366 +1    16    14     3
  H     1.10446913 +1  110.8107842 +1  -59.7936577 +1    16    14     3
  N     1.50045200 +1  110.9109335 +1  -60.9875229 +1    14     3     2
  O     1.22211833 +1  117.8814778 +1  179.3584285 +1    20    14     3
  O     1.21757102 +1  119.8213392 +1    0.2741173 +1    20    14     3
  O     4.91318979 +1  171.9652608 +1   -6.4379503 +1    15    14     3
  H     0.89213972 +1   33.0152029 +1  124.4503634 +1    23    15    14
  H     2.22970732 +1  128.7711813 +1  -27.8028956 +1    24    23    15
  H     1.52830420 +1   67.9263668 +1  114.5154342 +1    25    24    23
  O     0.96324543 +1   37.8507277 +1  112.3253726 +1    26    25    24

 *+*+*+*+*+*+*+*+*+*+*+*+*+*+*+*+*+*+*+*+*+*+*+*+*+*+*+*+*+*+*+*+*+*+*+*+*+*+*+*+
            BAR SHORTENED BY       1.000 PERCENT
 GRADIENT CRITERION IN FLEPO =    10.000


          FOR POINT   18 FIRST  STRUCTURE
 DISTANCE A - B      1.042021
 HEAT             -209.994033
 GRADIENT NORM      20.749149
 DIRECTION COSINE   -0.123864
* ===============================
* Input file for Mopac
* ===============================
 PM7 BONDS AUX DUMP=30M ITRY=15000 T=14D CHARGE=-1 SINGLET eps=78.4 RELSCF=1


  C     0.00000000 +0    0.0000000 +0    0.0000000 +0     0     0     0
  C     1.39570231 +1    0.0000000 +0    0.0000000 +0     1     0     0
  C     1.40171190 +1  120.6407938 +1    0.0000000 +0     2     1     0
  C     1.39003142 +1  119.4223825 +1   -0.8341481 +1     3     2     1
  C     1.40152917 +1  119.3115829 +1   -0.1728604 +1     4     3     2
  C     1.38885883 +1  120.3579808 +1    0.7294464 +1     1     2     3
  H     1.09225454 +1  119.9715561 +1 -179.0544423 +1     1     2     3
  H     1.09714236 +1  119.0607945 +1 -179.9234469 +1     2     1     3
  H     1.09546328 +1  121.1956121 +1 -179.8272088 +1     4     3     2
  H     1.09852882 +1  120.8295306 +1 -179.7648662 +1     6     1     2
  N     1.44196589 +1  118.2999771 +1 -178.7212036 +1     5     4     3
  O     1.22194537 +1  119.6012139 +1 -177.5711241 +1    11     5     4
  O     1.22403369 +1  118.8965784 +1    2.6023323 +1    11     5     4
  C     1.50897311 +1  119.8402514 +1 -178.2911229 +1     3     2     1
  H     1.15894074 +1  108.9203907 +1   54.9529699 +1    14     3     2
  C     1.52221255 +1  115.6778643 +1  176.1968258 +1    14     3     2
  H     1.09253612 +1  112.3891428 +1 -178.1164494 +1    16    14     3
  H     1.09823821 +1  114.0495415 +1   60.3509930 +1    16    14     3
  H     1.10818132 +1  109.8499643 +1  -59.7471690 +1    16    14     3
  N     1.50652576 +1  110.4476092 +1  -60.3518575 +1    14     3     2
  O     1.22325580 +1  117.8357506 +1  179.6321081 +1    20    14     3
  O     1.22264624 +1  119.9764079 +1   -0.0886573 +1    20    14     3
  O     4.92295343 +1  172.1114686 +1   -3.2179653 +1    15    14     3
  H     0.89647090 +1   32.9171369 +1  121.3147502 +1    23    15    14
  H     2.23295127 +1  128.9442143 +1  -27.8911939 +1    24    23    15
  H     1.52969488 +1   68.1866071 +1  114.0114158 +1    25    24    23
  O     0.96613530 +1   85.3561662 +1  148.7755437 +1    25    24    23

 TIME=     1.12
  REACTANTS AND PRODUCTS SWAPPED AROUND
 *+*+*+*+*+*+*+*+*+*+*+*+*+*+*+*+*+*+*+*+*+*+*+*+*+*+*+*+*+*+*+*+*+*+*+*+*+*+*+*+
            BAR SHORTENED BY       1.000 PERCENT
 GRADIENT CRITERION IN FLEPO =    10.000
 

                    SINCE COS WAS JUST RESET,THE SEARCH IS BEING ENDED


          FOR POINT   19 SECOND STRUCTURE
 DISTANCE A - B      1.031601
 HEAT             -189.104021
 GRADIENT NORM      26.642633
 DIRECTION COSINE    0.077653
* ===============================
* Input file for Mopac
* ===============================
 PM7 BONDS AUX DUMP=30M ITRY=15000 T=14D CHARGE=-1 SINGLET eps=78.4 RELSCF=1


  C     0.00000000 +0    0.0000000 +0    0.0000000 +0     0     0     0
  C     1.39275786 +1    0.0000000 +0    0.0000000 +0     1     0     0
  C     1.40076941 +1  121.2534435 +1    0.0000000 +0     2     1     0
  C     1.39787969 +1  118.6370570 +1   -2.0895577 +1     3     2     1
  C     1.40166113 +1  119.7289213 +1    0.8218002 +1     4     3     2
  C     1.39376150 +1  120.3382071 +1    1.5976870 +1     1     2     3
  H     1.09232230 +1  120.1832580 +1 -178.5243089 +1     1     2     3
  H     1.09722532 +1  118.4746242 +1  178.9610255 +1     2     1     3
  H     1.09568258 +1  120.8709139 +1 -179.8714379 +1     4     3     2
  H     1.09453463 +1  120.3988974 +1 -179.8168306 +1     6     1     2
  N     1.44041361 +1  119.1047255 +1 -179.8629447 +1     5     4     3
  O     1.22908957 +1  119.1804145 +1 -177.2588377 +1    11     5     4
  O     1.22221748 +1  119.4185923 +1    2.9180910 +1    11     5     4
  C     1.46336910 +1  121.0569477 +1  176.8246850 +1     3     2     1
  H     1.89422065 +1  102.9089985 +1   65.2535843 +1    14     3     2
  C     1.50195155 +1  118.7258234 +1  167.3291433 +1    14     3     2
  H     1.09795031 +1  112.6928501 +1 -169.9085048 +1    16    14     3
  H     1.10011762 +1  111.2543447 +1   70.7799168 +1    16    14     3
  H     1.09687813 +1  112.2405197 +1  -48.8179700 +1    16    14     3
  N     1.37032716 +1  118.6666394 +1  -43.0717548 +1    14     3     2
  O     1.24778695 +1  120.7896865 +1 -175.9844001 +1    20    14     3
  O     1.24325236 +1  121.3589625 +1    8.2372347 +1    20    14     3
  O     4.41842062 +1  166.7142844 +1  -73.7163975 +1    15    14     3
  H     0.88608045 +1   33.0280769 +1  172.9661494 +1    23    15    14
  H     1.66607554 +1  145.5121090 +1  -12.9591944 +1    15    14     3
  H     1.58544978 +1   61.1742072 +1 -144.0407707 +1    25    15    14
  O     1.01814884 +1   40.1324549 +1  171.9610687 +1    25    15    14

 TIME=     1.19
  REACTANTS AND PRODUCTS SWAPPED AROUND
 *+*+*+*+*+*+*+*+*+*+*+*+*+*+*+*+*+*+*+*+*+*+*+*+*+*+*+*+*+*+*+*+*+*+*+*+*+*+*+*+
            BAR SHORTENED BY       1.000 PERCENT
 GRADIENT CRITERION IN FLEPO =    10.000


          FOR POINT   20 FIRST  STRUCTURE
 DISTANCE A - B      1.021285
 HEAT             -210.195976
 GRADIENT NORM      14.564550
 DIRECTION COSINE    0.243495
* ===============================
* Input file for Mopac
* ===============================
 PM7 BONDS AUX DUMP=30M ITRY=15000 T=14D CHARGE=-1 SINGLET eps=78.4 RELSCF=1


  C     0.00000000 +0    0.0000000 +0    0.0000000 +0     0     0     0
  C     1.39231195 +1    0.0000000 +0    0.0000000 +0     1     0     0
  C     1.40512994 +1  120.9567050 +1    0.0000000 +0     2     1     0
  C     1.39090443 +1  119.0882928 +1   -0.5268730 +1     3     2     1
  C     1.39854170 +1  119.5350472 +1   -0.3380760 +1     4     3     2
  C     1.39433746 +1  120.2297878 +1    0.5084014 +1     1     2     3
  H     1.09298935 +1  120.1950162 +1 -178.9948041 +1     1     2     3
  H     1.09514813 +1  119.1235452 +1 -179.8631436 +1     2     1     3
  H     1.09762972 +1  120.8749943 +1  179.9549775 +1     4     3     2
  H     1.09397551 +1  120.8045326 +1 -179.8883881 +1     6     1     2
  N     1.43970336 +1  118.4206626 +1 -178.6507055 +1     5     4     3
  O     1.22474635 +1  119.6561194 +1 -177.8128100 +1    11     5     4
  O     1.22677797 +1  118.8473810 +1    2.6613016 +1    11     5     4
  C     1.50749581 +1  119.7220315 +1 -178.3644987 +1     3     2     1
  H     1.15884775 +1  108.8596198 +1   55.5846655 +1    14     3     2
  C     1.52517650 +1  115.1871732 +1  176.3187663 +1    14     3     2
  H     1.09785972 +1  112.1408235 +1 -178.1039414 +1    16    14     3
  H     1.09893268 +1  114.2774815 +1   60.8446730 +1    16    14     3
  H     1.10540772 +1  110.1984513 +1  -59.8590614 +1    16    14     3
  N     1.50122214 +1  110.7720762 +1  -60.4833552 +1    14     3     2
  O     1.22008293 +1  117.9994585 +1  179.7467848 +1    20    14     3
  O     1.22219825 +1  119.9700988 +1    0.8854140 +1    20    14     3
  O     4.92497781 +1  172.2795482 +1   -6.5145266 +1    15    14     3
  H     0.89396879 +1   32.6401380 +1  123.6511803 +1    23    15    14
  H     2.23840870 +1  129.4125574 +1  -27.9458542 +1    24    23    15
  H     1.52622074 +1   68.3209405 +1  113.7657662 +1    25    24    23
  O     0.96459752 +1   37.8367279 +1  111.9367711 +1    26    25    24

 *+*+*+*+*+*+*+*+*+*+*+*+*+*+*+*+*+*+*+*+*+*+*+*+*+*+*+*+*+*+*+*+*+*+*+*+*+*+*+*+
            BAR SHORTENED BY       1.000 PERCENT
 GRADIENT CRITERION IN FLEPO =    10.000
 

                    SINCE COS WAS JUST RESET,THE SEARCH IS BEING ENDED


          FOR POINT   21 FIRST  STRUCTURE
 DISTANCE A - B      1.011072
 HEAT             -210.040300
 GRADIENT NORM      21.205817
 DIRECTION COSINE   -0.250117
* ===============================
* Input file for Mopac
* ===============================
 PM7 BONDS AUX DUMP=30M ITRY=15000 T=14D CHARGE=-1 SINGLET eps=78.4 RELSCF=1


  C     0.00000000 +0    0.0000000 +0    0.0000000 +0     0     0     0
  C     1.39710582 +1    0.0000000 +0    0.0000000 +0     1     0     0
  C     1.39986133 +1  120.8153154 +1    0.0000000 +0     2     1     0
  C     1.39176016 +1  119.3949851 +1   -0.6525976 +1     3     2     1
  C     1.40397259 +1  119.2174404 +1   -0.1652322 +1     4     3     2
  C     1.38769965 +1  120.2527651 +1    0.7059780 +1     1     2     3
  H     1.09185217 +1  119.8788299 +1 -179.1458630 +1     1     2     3
  H     1.09662305 +1  119.0377849 +1  179.7321898 +1     2     1     3
  H     1.09660677 +1  121.3588528 +1  179.7975434 +1     4     3     2
  H     1.09878932 +1  120.8362698 +1 -179.8540625 +1     6     1     2
  N     1.44273066 +1  118.2383230 +1 -178.6209666 +1     5     4     3
  O     1.22102753 +1  119.5408064 +1 -177.9076045 +1    11     5     4
  O     1.22315520 +1  118.8796626 +1    2.4146184 +1    11     5     4
  C     1.50702243 +1  119.6526267 +1 -178.5288969 +1     3     2     1
  H     1.16135494 +1  109.0420843 +1   55.8268623 +1    14     3     2
  C     1.52893147 +1  115.1350209 +1  176.3636638 +1    14     3     2
  H     1.10156431 +1  112.0421845 +1 -178.1177458 +1    16    14     3
  H     1.09887233 +1  114.4652215 +1   61.1076064 +1    16    14     3
  H     1.10311704 +1  110.2893624 +1  -59.9955117 +1    16    14     3
  N     1.49915989 +1  110.8403919 +1  -60.5630715 +1    14     3     2
  O     1.22414727 +1  118.0616084 +1  179.7898866 +1    20    14     3
  O     1.21745316 +1  120.1143928 +1    1.3292386 +1    20    14     3
  O     4.92488451 +1  172.0351251 +1   -8.3542470 +1    15    14     3
  H     0.89629390 +1   32.4194962 +1  125.3019462 +1    23    15    14
  H     2.24032588 +1  129.6036236 +1  -27.9904974 +1    24    23    15
  H     1.52677457 +1   68.3541804 +1  113.7598000 +1    25    24    23
  O     0.96547335 +1   85.5857265 +1  148.7878348 +1    25    24    23

 TIME=     3.73
  REACTANTS AND PRODUCTS SWAPPED AROUND
 *+*+*+*+*+*+*+*+*+*+*+*+*+*+*+*+*+*+*+*+*+*+*+*+*+*+*+*+*+*+*+*+*+*+*+*+*+*+*+*+
            BAR SHORTENED BY       1.000 PERCENT
 GRADIENT CRITERION IN FLEPO =    10.000
 

                    SINCE COS WAS JUST RESET,THE SEARCH IS BEING ENDED


          FOR POINT   22 SECOND STRUCTURE
 DISTANCE A - B      1.000961
 HEAT             -188.927645
 GRADIENT NORM      28.717473
 DIRECTION COSINE   -0.118409
* ===============================
* Input file for Mopac
* ===============================
 PM7 BONDS AUX DUMP=30M ITRY=15000 T=14D CHARGE=-1 SINGLET eps=78.4 RELSCF=1


  C     0.00000000 +0    0.0000000 +0    0.0000000 +0     0     0     0
  C     1.39280047 +1    0.0000000 +0    0.0000000 +0     1     0     0
  C     1.40075918 +1  121.2490153 +1    0.0000000 +0     2     1     0
  C     1.39781519 +1  118.6448454 +1   -2.0754377 +1     3     2     1
  C     1.40168239 +1  119.7237332 +1    0.8121793 +1     4     3     2
  C     1.39369978 +1  120.3373439 +1    1.5888508 +1     1     2     3
  H     1.09231754 +1  120.1802013 +1 -178.5305339 +1     1     2     3
  H     1.09721877 +1  118.4802349 +1  178.9687305 +1     2     1     3
  H     1.09569156 +1  120.8759181 +1 -179.8746421 +1     4     3     2
  H     1.09457559 +1  120.4032863 +1 -179.8171579 +1     6     1     2
  N     1.44043483 +1  119.0960891 +1 -179.8504459 +1     5     4     3
  O     1.22900554 +1  119.1839216 +1 -177.2654667 +1    11     5     4
  O     1.22222240 +1  119.4132229 +1    2.9129929 +1    11     5     4
  C     1.46375475 +1  121.0429982 +1  176.8732137 +1     3     2     1
  H     1.88680241 +1  102.9674681 +1   65.1879300 +1    14     3     2
  C     1.50206996 +1  118.7001544 +1  167.4255326 +1    14     3     2
  H     1.09796468 +1  112.6852515 +1 -169.9989651 +1    16    14     3
  H     1.10006532 +1  111.2877738 +1   70.6759513 +1    16    14     3
  H     1.09692995 +1  112.2213487 +1  -48.9373788 +1    16    14     3
  N     1.37120364 +1  118.6017018 +1  -43.2752521 +1    14     3     2
  O     1.24747597 +1  120.7850180 +1 -176.0095354 +1    20    14     3
  O     1.24213248 +1  121.3265075 +1    8.2151172 +1    20    14     3
  O     4.42330969 +1  166.7899515 +1  -73.4347530 +1    15    14     3
  H     0.88600345 +1   33.0205696 +1  172.8451281 +1    23    15    14
  H     1.67194511 +1  145.6423835 +1  -12.7531890 +1    15    14     3
  H     1.58484690 +1   61.2634039 +1 -144.2828273 +1    25    15    14
  O     1.01760041 +1   40.2950164 +1  171.7661658 +1    25    15    14

 TIME=     3.87
  REACTANTS AND PRODUCTS SWAPPED AROUND
 *+*+*+*+*+*+*+*+*+*+*+*+*+*+*+*+*+*+*+*+*+*+*+*+*+*+*+*+*+*+*+*+*+*+*+*+*+*+*+*+
            BAR SHORTENED BY       1.000 PERCENT
 GRADIENT CRITERION IN FLEPO =    10.000


          FOR POINT   23 FIRST  STRUCTURE
 DISTANCE A - B      0.990951
 HEAT             -210.019248
 GRADIENT NORM      19.785096
 DIRECTION COSINE   -0.104109
* ===============================
* Input file for Mopac
* ===============================
 PM7 BONDS AUX DUMP=30M ITRY=15000 T=14D CHARGE=-1 SINGLET eps=78.4 RELSCF=1


  C     0.00000000 +0    0.0000000 +0    0.0000000 +0     0     0     0
  C     1.39649041 +1    0.0000000 +0    0.0000000 +0     1     0     0
  C     1.40050642 +1  120.8320289 +1    0.0000000 +0     2     1     0
  C     1.39163522 +1  119.3494642 +1   -0.6360534 +1     3     2     1
  C     1.40329052 +1  119.2649011 +1   -0.1988607 +1     4     3     2
  C     1.38840180 +1  120.2675221 +1    0.6902533 +1     1     2     3
  H     1.09225268 +1  119.9080322 +1 -179.1544041 +1     1     2     3
  H     1.09648105 +1  119.0413865 +1  179.7360901 +1     2     1     3
  H     1.09706007 +1  121.3388133 +1  179.7563866 +1     4     3     2
  H     1.09810420 +1  120.8223554 +1 -179.8626390 +1     6     1     2
  N     1.44244168 +1  118.2803812 +1 -178.6292111 +1     5     4     3
  O     1.22161980 +1  119.5509437 +1 -177.8669497 +1    11     5     4
  O     1.22353937 +1  118.8955723 +1    2.4090186 +1    11     5     4
  C     1.50670274 +1  119.6769515 +1 -178.5488864 +1     3     2     1
  H     1.16486052 +1  108.9926271 +1   56.0362545 +1    14     3     2
  C     1.52865652 +1  115.2529027 +1  176.3406323 +1    14     3     2
  H     1.10428702 +1  112.2010037 +1 -178.0950989 +1    16    14     3
  H     1.09957776 +1  114.4286900 +1   61.0893742 +1    16    14     3
  H     1.10427149 +1  110.2371216 +1  -59.8370118 +1    16    14     3
  N     1.49757453 +1  110.9123697 +1  -60.3918336 +1    14     3     2
  O     1.22381225 +1  118.1059466 +1  179.9580500 +1    20    14     3
  O     1.21734806 +1  120.1108463 +1    1.4786850 +1    20    14     3
  O     4.92349789 +1  172.0455917 +1  -10.1945642 +1    15    14     3
  H     0.89550046 +1   32.3849790 +1  126.8154140 +1    23    15    14
  H     2.24331679 +1  129.6905259 +1  -28.0079248 +1    24    23    15
  H     1.52746527 +1   68.4080425 +1  113.5507300 +1    25    24    23
  O     0.96618445 +1   85.6104890 +1  148.5537422 +1    25    24    23

 TIME=     0.32
  REACTANTS AND PRODUCTS SWAPPED AROUND
 *+*+*+*+*+*+*+*+*+*+*+*+*+*+*+*+*+*+*+*+*+*+*+*+*+*+*+*+*+*+*+*+*+*+*+*+*+*+*+*+
            BAR SHORTENED BY       1.000 PERCENT
 GRADIENT CRITERION IN FLEPO =    10.000


          FOR POINT   24 SECOND STRUCTURE
 DISTANCE A - B      0.981042
 HEAT             -208.317092
 GRADIENT NORM      21.482003
 DIRECTION COSINE    0.069411
* ===============================
* Input file for Mopac
* ===============================
 PM7 BONDS AUX DUMP=30M ITRY=15000 T=14D CHARGE=-1 SINGLET eps=78.4 RELSCF=1


  C     0.00000000 +0    0.0000000 +0    0.0000000 +0     0     0     0
  C     1.39523407 +1    0.0000000 +0    0.0000000 +0     1     0     0
  C     1.40392472 +1  121.2736255 +1    0.0000000 +0     2     1     0
  C     1.39622909 +1  119.0687969 +1    1.7499816 +1     3     2     1
  C     1.40129166 +1  118.9424225 +1   -3.1369843 +1     4     3     2
  C     1.39101462 +1  119.9465481 +1    0.5121103 +1     1     2     3
  H     1.09753643 +1  121.0295255 +1 -179.7269874 +1     1     2     3
  H     1.10041004 +1  118.1639088 +1  179.6414096 +1     2     1     3
  H     1.09710051 +1  121.8006556 +1  177.6370255 +1     4     3     2
  H     1.09350276 +1  120.1685718 +1  178.4089025 +1     6     1     2
  N     1.44626541 +1  119.0660135 +1 -177.0291590 +1     5     4     3
  O     1.22417745 +1  119.4499288 +1 -179.1633123 +1    11     5     4
  O     1.22489092 +1  119.0970912 +1    0.5427641 +1    11     5     4
  C     1.51422587 +1  118.7703852 +1 -175.4408802 +1     3     2     1
  H     1.15322983 +1  106.4935121 +1   56.0621620 +1    14     3     2
  C     1.51301073 +1  114.7829306 +1  177.5328915 +1    14     3     2
  H     1.10285173 +1  111.7520846 +1  179.0430849 +1    16    14     3
  H     1.10407913 +1  110.8013849 +1   59.3286065 +1    16    14     3
  H     1.09610577 +1  113.3365310 +1  -60.6101335 +1    16    14     3
  N     1.50098040 +1  111.8607081 +1  -57.6172507 +1    14     3     2
  O     1.21873842 +1  119.8300246 +1 -159.7281746 +1    20    14     3
  O     1.22023946 +1  118.2979644 +1   21.3763987 +1    20    14     3
  O     4.99981271 +1  173.6327005 +1 -142.0115953 +1    15    14     3
  H     0.89297878 +1   35.0970435 +1 -142.9952214 +1    23    15    14
  H     2.20917496 +1  140.2248872 +1  -34.0401536 +1    24    23    15
  H     1.54567938 +1   63.2696254 +1   79.6158644 +1    25    24    23
  O     0.96569717 +1   36.9797550 +1  140.5965224 +1    26    25    24

 TIME=     1.65
  REACTANTS AND PRODUCTS SWAPPED AROUND
 *+*+*+*+*+*+*+*+*+*+*+*+*+*+*+*+*+*+*+*+*+*+*+*+*+*+*+*+*+*+*+*+*+*+*+*+*+*+*+*+
            BAR SHORTENED BY       1.000 PERCENT
 GRADIENT CRITERION IN FLEPO =    10.000


          FOR POINT   25 FIRST  STRUCTURE
 DISTANCE A - B      0.971231
 HEAT             -209.872876
 GRADIENT NORM      13.345916
 DIRECTION COSINE    0.151800
* ===============================
* Input file for Mopac
* ===============================
 PM7 BONDS AUX DUMP=30M ITRY=15000 T=14D CHARGE=-1 SINGLET eps=78.4 RELSCF=1


  C     0.00000000 +0    0.0000000 +0    0.0000000 +0     0     0     0
  C     1.39435172 +1    0.0000000 +0    0.0000000 +0     1     0     0
  C     1.40308218 +1  120.8329830 +1    0.0000000 +0     2     1     0
  C     1.39012208 +1  119.1713075 +1   -0.5933194 +1     3     2     1
  C     1.39999098 +1  119.5553500 +1   -0.4560157 +1     4     3     2
  C     1.39150783 +1  120.3670410 +1    0.7800779 +1     1     2     3
  H     1.09482713 +1  119.9965840 +1 -179.2449386 +1     1     2     3
  H     1.09660214 +1  119.0481896 +1  179.6366700 +1     2     1     3
  H     1.09927897 +1  121.2073270 +1  179.9003248 +1     4     3     2
  H     1.09556404 +1  120.7058842 +1  179.9336679 +1     6     1     2
  N     1.44146908 +1  118.5151683 +1 -178.5143219 +1     5     4     3
  O     1.22387391 +1  119.6058423 +1 -177.7308526 +1    11     5     4
  O     1.22544779 +1  118.9697480 +1    2.2715303 +1    11     5     4
  C     1.50765946 +1  119.6666412 +1 -178.4950472 +1     3     2     1
  H     1.15017378 +1  108.8192676 +1   55.8718768 +1    14     3     2
  C     1.52520811 +1  115.1906628 +1  176.4063864 +1    14     3     2
  H     1.10091929 +1  112.0581361 +1 -178.2347408 +1    16    14     3
  H     1.09719163 +1  114.0913890 +1   60.8754601 +1    16    14     3
  H     1.10287381 +1  110.3822846 +1  -59.9815548 +1    16    14     3
  N     1.49947397 +1  110.7961194 +1  -60.4798795 +1    14     3     2
  O     1.22166464 +1  118.0178158 +1 -179.5676268 +1    20    14     3
  O     1.21959079 +1  120.0913694 +1    1.8924072 +1    20    14     3
  O     4.94101346 +1  172.5441132 +1  -10.4681592 +1    15    14     3
  H     0.89612875 +1   31.6941442 +1  124.8975854 +1    23    15    14
  H     2.23444130 +1  131.1553700 +1  -28.8566145 +1    24    23    15
  H     1.52736736 +1   68.4842615 +1  112.4187941 +1    25    24    23
  O     0.95456135 +1   82.3432858 +1  148.1410610 +1    25    24    23

 *+*+*+*+*+*+*+*+*+*+*+*+*+*+*+*+*+*+*+*+*+*+*+*+*+*+*+*+*+*+*+*+*+*+*+*+*+*+*+*+
            BAR SHORTENED BY       1.000 PERCENT
 GRADIENT CRITERION IN FLEPO =    10.000


          FOR POINT   26 FIRST  STRUCTURE
 DISTANCE A - B      0.961519
 HEAT             -209.994386
 GRADIENT NORM      12.900466
 DIRECTION COSINE    0.311673
* ===============================
* Input file for Mopac
* ===============================
 PM7 BONDS AUX DUMP=30M ITRY=15000 T=14D CHARGE=-1 SINGLET eps=78.4 RELSCF=1


  C     0.00000000 +0    0.0000000 +0    0.0000000 +0     0     0     0
  C     1.39184872 +1    0.0000000 +0    0.0000000 +0     1     0     0
  C     1.40306170 +1  120.8300098 +1    0.0000000 +0     2     1     0
  C     1.39100236 +1  119.3620764 +1   -0.6611440 +1     3     2     1
  C     1.40321707 +1  119.2479252 +1   -0.4848510 +1     4     3     2
  C     1.39256834 +1  120.4432921 +1    1.0238127 +1     1     2     3
  H     1.09584598 +1  120.1457820 +1 -179.3149413 +1     1     2     3
  H     1.09672678 +1  119.0114195 +1  179.5554532 +1     2     1     3
  H     1.09508127 +1  121.4794083 +1  179.9032820 +1     4     3     2
  H     1.09628733 +1  120.7393178 +1  179.9023217 +1     6     1     2
  N     1.44207602 +1  118.4383970 +1 -178.6530838 +1     5     4     3
  O     1.22510794 +1  119.5668218 +1 -177.9130659 +1    11     5     4
  O     1.22584012 +1  118.9293203 +1    2.6039523 +1    11     5     4
  C     1.50642839 +1  119.6508435 +1 -178.5495894 +1     3     2     1
  H     1.14811577 +1  108.7261598 +1   55.4623232 +1    14     3     2
  C     1.52274428 +1  114.9742119 +1  176.2971564 +1    14     3     2
  H     1.10854261 +1  111.7886674 +1 -178.3953143 +1    16    14     3
  H     1.09968200 +1  114.0585910 +1   61.4390758 +1    16    14     3
  H     1.10038461 +1  110.9750062 +1  -60.2372303 +1    16    14     3
  N     1.50173777 +1  110.8132149 +1  -60.3936372 +1    14     3     2
  O     1.22425503 +1  117.9113284 +1 -179.1370981 +1    20    14     3
  O     1.21944925 +1  120.0413232 +1    1.8064832 +1    20    14     3
  O     4.95020389 +1  172.8757992 +1   -7.2916810 +1    15    14     3
  H     0.89838756 +1   31.4114121 +1  120.8381308 +1    23    15    14
  H     2.23316980 +1  131.7981789 +1  -29.3333607 +1    24    23    15
  H     1.53230186 +1   68.4330463 +1  112.0022153 +1    25    24    23
  O     0.96192749 +1   82.8031770 +1  147.6614820 +1    25    24    23

 *+*+*+*+*+*+*+*+*+*+*+*+*+*+*+*+*+*+*+*+*+*+*+*+*+*+*+*+*+*+*+*+*+*+*+*+*+*+*+*+
            BAR SHORTENED BY       1.000 PERCENT
 GRADIENT CRITERION IN FLEPO =     9.900


          FOR POINT   27 FIRST  STRUCTURE
 DISTANCE A - B      0.951904
 HEAT             -210.091740
 GRADIENT NORM       9.492219
 DIRECTION COSINE    0.252751
* ===============================
* Input file for Mopac
* ===============================
 PM7 BONDS AUX DUMP=30M ITRY=15000 T=14D CHARGE=-1 SINGLET eps=78.4 RELSCF=1


  C     0.00000000 +0    0.0000000 +0    0.0000000 +0     0     0     0
  C     1.39308866 +1    0.0000000 +0    0.0000000 +0     1     0     0
  C     1.40247191 +1  120.8287799 +1    0.0000000 +0     2     1     0
  C     1.39154373 +1  119.3191064 +1   -0.3602892 +1     3     2     1
  C     1.40106712 +1  119.3170099 +1   -0.7249114 +1     4     3     2
  C     1.39017349 +1  120.2488516 +1    0.7220728 +1     1     2     3
  H     1.09458509 +1  120.0539149 +1 -179.4854660 +1     1     2     3
  H     1.09754978 +1  118.9873990 +1  179.9136614 +1     2     1     3
  H     1.09766109 +1  121.3279711 +1  179.7560539 +1     4     3     2
  H     1.09781543 +1  120.4753843 +1  179.7974029 +1     6     1     2
  N     1.44089597 +1  118.4968635 +1 -178.2866942 +1     5     4     3
  O     1.22612311 +1  119.4339033 +1 -177.6188438 +1    11     5     4
  O     1.22436478 +1  119.1201399 +1    1.8991290 +1    11     5     4
  C     1.50489384 +1  119.6202338 +1 -178.6029958 +1     3     2     1
  H     1.14801754 +1  108.4945068 +1   55.3320330 +1    14     3     2
  C     1.52449837 +1  115.1034985 +1  176.4127368 +1    14     3     2
  H     1.10210460 +1  111.9325662 +1 -178.4573488 +1    16    14     3
  H     1.09813093 +1  113.5799402 +1   61.2609224 +1    16    14     3
  H     1.10263221 +1  110.9329831 +1  -59.8549536 +1    16    14     3
  N     1.50177268 +1  111.0091496 +1  -60.1999061 +1    14     3     2
  O     1.22154453 +1  118.1266321 +1 -178.9974488 +1    20    14     3
  O     1.21986554 +1  119.8975486 +1    2.0100403 +1    20    14     3
  O     4.95455487 +1  173.2313489 +1   -4.0363948 +1    15    14     3
  H     0.89664023 +1   31.1718883 +1  116.7650346 +1    23    15    14
  H     2.23068507 +1  132.3861547 +1  -29.7241475 +1    24    23    15
  H     1.53393905 +1   68.3661372 +1  111.6292752 +1    25    24    23
  O     0.96618123 +1   83.2877900 +1  147.3116836 +1    25    24    23

 TIME=     0.73
  REACTANTS AND PRODUCTS SWAPPED AROUND
 *+*+*+*+*+*+*+*+*+*+*+*+*+*+*+*+*+*+*+*+*+*+*+*+*+*+*+*+*+*+*+*+*+*+*+*+*+*+*+*+
            BAR SHORTENED BY       0.000 PERCENT
 GRADIENT CRITERION IN FLEPO =     6.492


          FOR POINT   28 SECOND STRUCTURE
 DISTANCE A - B      0.951904
 HEAT             -208.551507
 GRADIENT NORM      14.374742
 DIRECTION COSINE   -0.087107
* ===============================
* Input file for Mopac
* ===============================
 PM7 BONDS AUX DUMP=30M ITRY=15000 T=14D CHARGE=-1 SINGLET eps=78.4 RELSCF=1


  C     0.00000000 +0    0.0000000 +0    0.0000000 +0     0     0     0
  C     1.39215132 +1    0.0000000 +0    0.0000000 +0     1     0     0
  C     1.40415851 +1  121.1895860 +1    0.0000000 +0     2     1     0
  C     1.39346828 +1  118.9936361 +1    1.1491447 +1     3     2     1
  C     1.40437242 +1  119.2683583 +1   -2.6678042 +1     4     3     2
  C     1.38918786 +1  120.2891151 +1    1.0904657 +1     1     2     3
  H     1.09295955 +1  120.4995759 +1 -179.5876576 +1     1     2     3
  H     1.09773492 +1  118.4432768 +1  179.3807022 +1     2     1     3
  H     1.09758622 +1  121.7120388 +1  178.0325093 +1     4     3     2
  H     1.09600872 +1  120.5957063 +1  178.3769114 +1     6     1     2
  N     1.43981672 +1  119.4456081 +1 -177.3713264 +1     5     4     3
  O     1.22534349 +1  119.5761383 +1 -179.6171925 +1    11     5     4
  O     1.22596101 +1  119.1516335 +1    0.9674668 +1    11     5     4
  C     1.51207465 +1  118.8331256 +1 -175.3356838 +1     3     2     1
[...]
  C     1.50592599 +1  118.9386788 +1 -177.9299889 +1     3     2     1
  H     1.14678546 +1  108.3516731 +1   54.8336902 +1    14     3     2
  C     1.52220075 +1  114.7325393 +1  176.1333123 +1    14     3     2
  H     1.10195961 +1  112.0254174 +1 -178.4088634 +1    16    14     3
  H     1.09844825 +1  112.9929917 +1   61.1248514 +1    16    14     3
  H     1.10335711 +1  111.1780251 +1  -59.7828048 +1    16    14     3
  N     1.50269790 +1  110.9847169 +1  -60.5183432 +1    14     3     2
  O     1.22082322 +1  118.4209016 +1 -168.6780965 +1    20    14     3
  O     1.21943598 +1  119.6330083 +1   13.0514774 +1    20    14     3
  O     5.10086776 +1  177.8867893 +1  -86.9525712 +1    15    14     3
  H     0.89332560 +1   30.7439743 +1  167.6827441 +1    23    15    14
  H     2.32692628 +1  142.7044425 +1  -37.1652053 +1    24    23    15
  H     1.52642778 +1   64.0818575 +1   87.2569810 +1    25    24    23
  O     0.96569142 +1   37.8057481 +1  113.1285212 +1    26    25    24

 TIME=     0.15
  REACTANTS AND PRODUCTS SWAPPED AROUND
 *+*+*+*+*+*+*+*+*+*+*+*+*+*+*+*+*+*+*+*+*+*+*+*+*+*+*+*+*+*+*+*+*+*+*+*+*+*+*+*+
            BAR SHORTENED BY       1.000 PERCENT
 AT END OF STEPWISE ASCENT OF REACTION BARRIER

 -------------------------------------------------------------------------------
 PM7 BONDS AUX DUMP=30M ITRY=15000 T=14D CHARGE=-1 SINGLET eps=78.4 RELSCF=1




     TRANSITION STATE LOCATED USING THE "SADDLE" TECHNIQUE    
     SCF FIELD WAS ACHIEVED                                   


                              PM7 CALCULATION
                                                       MOPAC v22.0.6 Linux
                                                       Mon Mar 25 23:22:19 2024




          FINAL HEAT OF FORMATION =       -210.24773 KCAL/MOL =    -879.67648 KJ/MOL
          VAN DER WAALS AREA      =        263.81 SQUARE ANGSTROMS



          DIELECTRIC ENERGY       =         -4.69908 EV
          COSMO AREA              =        263.81 SQUARE ANGSTROMS
          COSMO VOLUME            =        268.97 CUBIC ANGSTROMS

          GRADIENT NORM           =          2.96767          =       0.57113 PER ATOM
          IONIZATION POTENTIAL    =         10.315073 EV
          HOMO LUMO ENERGIES (EV) =        -10.315 -1.481
          NO. OF FILLED LEVELS    =         45
          MOLECULAR WEIGHT        =        231.1847         POINT GROUP:  C1  

          MOLECULAR DIMENSIONS (Angstroms)

            Atom       Atom       Distance
            O    23    O    12    10.56553
            H    17    H     7     6.45829
            H    24    O    22     4.73124


          SCF CALCULATIONS        =       1952

          WALL-CLOCK TIME         =          2 MINUTES AND 34.383 SECONDS
          COMPUTATION TIME        =          2 HOURS 38 MINUTES AND 8.488 SECONDS



       FINAL  POINT  AND  DERIVATIVES

   PARAMETER     ATOM    TYPE            VALUE        GRADIENT
      1          1  C    CARTESIAN X     0.158670     -0.015918  KCAL/ANGSTROM
      2          1  C    CARTESIAN Y     1.278641     -0.064519  KCAL/ANGSTROM
      3          1  C    CARTESIAN Z     0.582708     -0.341811  KCAL/ANGSTROM
      4          2  C    CARTESIAN X     0.526159     -0.290917  KCAL/ANGSTROM
      5          2  C    CARTESIAN Y     1.051179     -0.017791  KCAL/ANGSTROM
      6          2  C    CARTESIAN Z    -0.741130     -0.267267  KCAL/ANGSTROM
      7          3  C    CARTESIAN X     0.348642     -0.271064  KCAL/ANGSTROM
      8          3  C    CARTESIAN Y    -0.210319     -0.277408  KCAL/ANGSTROM
      9          3  C    CARTESIAN Z    -1.327119      0.143185  KCAL/ANGSTROM
     10          4  C    CARTESIAN X    -0.191810      0.238803  KCAL/ANGSTROM
     11          4  C    CARTESIAN Y    -1.245944      0.181974  KCAL/ANGSTROM
     12          4  C    CARTESIAN Z    -0.571871     -0.518160  KCAL/ANGSTROM
     13          5  C    CARTESIAN X    -0.531769     -0.127898  KCAL/ANGSTROM
     14          5  C    CARTESIAN Y    -1.011411     -0.023671  KCAL/ANGSTROM
     15          5  C    CARTESIAN Z     0.766994      0.134195  KCAL/ANGSTROM
     16          6  C    CARTESIAN X    -0.370168      0.182067  KCAL/ANGSTROM
     17          6  C    CARTESIAN Y     0.248048     -0.312169  KCAL/ANGSTROM
     18          6  C    CARTESIAN Z     1.353814     -0.158896  KCAL/ANGSTROM
     19          7  H    CARTESIAN X     0.290627     -0.061752  KCAL/ANGSTROM
     20          7  H    CARTESIAN Y     2.271086     -0.094348  KCAL/ANGSTROM
     21          7  H    CARTESIAN Z     1.023825     -0.051970  KCAL/ANGSTROM
     22          8  H    CARTESIAN X     0.956935     -0.132568  KCAL/ANGSTROM
     23          8  H    CARTESIAN Y     1.874682      0.016551  KCAL/ANGSTROM
     24          8  H    CARTESIAN Z    -1.323638     -0.068677  KCAL/ANGSTROM
     25          9  H    CARTESIAN X    -0.350666     -0.077881  KCAL/ANGSTROM
     26          9  H    CARTESIAN Y    -2.243846      0.008637  KCAL/ANGSTROM
     27          9  H    CARTESIAN Z    -0.999804      0.013512  KCAL/ANGSTROM
     28         10  H    CARTESIAN X    -0.649824     -0.149307  KCAL/ANGSTROM
     29         10  H    CARTESIAN Y     0.421195     -0.042859  KCAL/ANGSTROM
     30         10  H    CARTESIAN Z     2.399779      0.330640  KCAL/ANGSTROM
     31         11  N    CARTESIAN X    -1.051471      0.141493  KCAL/ANGSTROM
     32         11  N    CARTESIAN Y    -2.098607     -0.044668  KCAL/ANGSTROM
     33         11  N    CARTESIAN Z     1.558979      0.184914  KCAL/ANGSTROM
     34         12  O    CARTESIAN X    -1.361782      0.019983  KCAL/ANGSTROM
     35         12  O    CARTESIAN Y    -1.893909      0.087900  KCAL/ANGSTROM
     36         12  O    CARTESIAN Z     2.725765      0.226533  KCAL/ANGSTROM
     37         13  O    CARTESIAN X    -1.167028      0.030260  KCAL/ANGSTROM
     38         13  O    CARTESIAN Y    -3.207504     -0.638812  KCAL/ANGSTROM
     39         13  O    CARTESIAN Z     1.051104     -0.374253  KCAL/ANGSTROM
     40         14  C    CARTESIAN X     0.803367     -0.049761  KCAL/ANGSTROM
     41         14  C    CARTESIAN Y    -0.424911      0.028967  KCAL/ANGSTROM
     42         14  C    CARTESIAN Z    -2.746624     -0.135851  KCAL/ANGSTROM
     43         15  H    CARTESIAN X     1.909435      0.160186  KCAL/ANGSTROM
     44         15  H    CARTESIAN Y    -0.130975      0.061958  KCAL/ANGSTROM
     45         15  H    CARTESIAN Z    -2.819778      0.094219  KCAL/ANGSTROM
     46         16  C    CARTESIAN X     0.649777     -0.503124  KCAL/ANGSTROM
     47         16  C    CARTESIAN Y    -1.851163      0.239378  KCAL/ANGSTROM
     48         16  C    CARTESIAN Z    -3.255848     -0.074060  KCAL/ANGSTROM
     49         17  H    CARTESIAN X     1.021107     -0.209583  KCAL/ANGSTROM
     50         17  H    CARTESIAN Y    -1.963970      0.010982  KCAL/ANGSTROM
     51         17  H    CARTESIAN Z    -4.287207     -0.083548  KCAL/ANGSTROM
     52         18  H    CARTESIAN X    -0.393091      0.205596  KCAL/ANGSTROM
     53         18  H    CARTESIAN Y    -2.196137      0.139296  KCAL/ANGSTROM
     54         18  H    CARTESIAN Z    -3.257697      0.017714  KCAL/ANGSTROM
     55         19  H    CARTESIAN X     1.231198      0.141687  KCAL/ANGSTROM
     56         19  H    CARTESIAN Y    -2.558855     -0.312690  KCAL/ANGSTROM
     57         19  H    CARTESIAN Z    -2.640623      0.140731  KCAL/ANGSTROM
     58         20  N    CARTESIAN X     0.080726     -0.482439  KCAL/ANGSTROM
     59         20  N    CARTESIAN Y     0.496526      0.776396  KCAL/ANGSTROM
     60         20  N    CARTESIAN Z    -3.688342     -0.562708  KCAL/ANGSTROM
     61         21  O    CARTESIAN X     0.185044      0.076086  KCAL/ANGSTROM
     62         21  O    CARTESIAN Y     0.299265      0.220720  KCAL/ANGSTROM
     63         21  O    CARTESIAN Z    -4.888594      0.085435  KCAL/ANGSTROM
     64         22  O    CARTESIAN X    -0.562257      0.820000  KCAL/ANGSTROM
     65         22  O    CARTESIAN Y     1.431638     -0.931178  KCAL/ANGSTROM
     66         22  O    CARTESIAN Z    -3.242079     -0.721797  KCAL/ANGSTROM
     67         23  O    CARTESIAN X     6.775699     -1.029887  KCAL/ANGSTROM
     68         23  O    CARTESIAN Y     1.354170     -0.689200  KCAL/ANGSTROM
     69         23  O    CARTESIAN Z    -3.178629      0.627681  KCAL/ANGSTROM
     70         24  H    CARTESIAN X     6.178489      0.303010  KCAL/ANGSTROM
     71         24  H    CARTESIAN Y     0.729745      0.644314  KCAL/ANGSTROM
     72         24  H    CARTESIAN Z    -2.951802     -0.353577  KCAL/ANGSTROM
     73         25  H    CARTESIAN X     4.065798     -0.036778  KCAL/ANGSTROM
     74         25  H    CARTESIAN Y     0.441009      0.005285  KCAL/ANGSTROM
     75         25  H    CARTESIAN Z    -2.020642      0.080308  KCAL/ANGSTROM
     76         26  H    CARTESIAN X     4.104265     -0.171038  KCAL/ANGSTROM
     77         26  H    CARTESIAN Y     0.674064     -0.526035  KCAL/ANGSTROM
     78         26  H    CARTESIAN Z    -3.528674     -0.167862  KCAL/ANGSTROM
     79         27  O    CARTESIAN X     3.890181      0.137553  KCAL/ANGSTROM
     80         27  O    CARTESIAN Y     0.005930     -0.334379  KCAL/ANGSTROM
     81         27  O    CARTESIAN Z    -2.865102     -0.176434  KCAL/ANGSTROM




   ATOM   CHEMICAL          X               Y               Z
  NUMBER   SYMBOL      (ANGSTROMS)     (ANGSTROMS)     (ANGSTROMS)

     1       C          0.15867002  *   1.27864085  *   0.58270831  *
     2       C          0.52615935  *   1.05117874  *  -0.74113005  *
     3       C          0.34864235  *  -0.21031861  *  -1.32711892  *
     4       C         -0.19180950  *  -1.24594373  *  -0.57187088  *
     5       C         -0.53176882  *  -1.01141112  *   0.76699389  *
     6       C         -0.37016806  *   0.24804762  *   1.35381384  *
     7       H          0.29062661  *   2.27108592  *   1.02382498  *
     8       H          0.95693525  *   1.87468217  *  -1.32363835  *
     9       H         -0.35066605  *  -2.24384622  *  -0.99980447  *
    10       H         -0.64982442  *   0.42119499  *   2.39977937  *
    11       N         -1.05147115  *  -2.09860686  *   1.55897885  *
    12       O         -1.36178199  *  -1.89390884  *   2.72576507  *
    13       O         -1.16702841  *  -3.20750384  *   1.05110372  *
    14       C          0.80336670  *  -0.42491147  *  -2.74662421  *
    15       H          1.90943501  *  -0.13097462  *  -2.81977760  *
    16       C          0.64977714  *  -1.85116345  *  -3.25584779  *
    17       H          1.02110736  *  -1.96396953  *  -4.28720675  *
    18       H         -0.39309083  *  -2.19613731  *  -3.25769741  *
    19       H          1.23119775  *  -2.55885506  *  -2.64062255  *
    20       N          0.08072617  *   0.49652611  *  -3.68834171  *
    21       O          0.18504405  *   0.29926539  *  -4.88859424  *
    22       O         -0.56225691  *   1.43163839  *  -3.24207904  *
    23       O          6.77569928  *   1.35416961  *  -3.17862900  *
    24       H          6.17848904  *   0.72974494  *  -2.95180193  *
    25       H          4.06579832  *   0.44100857  *  -2.02064179  *
    26       H          4.10426466  *   0.67406380  *  -3.52867384  *
    27       O          3.89018150  *   0.00593010  *  -2.86510172  *

                             CARTESIAN COORDINATES

   1    C        0.158670023     1.278640853     0.582708310
   2    C        0.526159353     1.051178738    -0.741130052
   3    C        0.348642354    -0.210318613    -1.327118917
   4    C       -0.191809501    -1.245943734    -0.571870882
   5    C       -0.531768822    -1.011411123     0.766993893
   6    C       -0.370168062     0.248047625     1.353813837
   7    H        0.290626605     2.271085919     1.023824980
   8    H        0.956935252     1.874682165    -1.323638354
   9    H       -0.350666052    -2.243846222    -0.999804474
  10    H       -0.649824418     0.421194986     2.399779371
  11    N       -1.051471146    -2.098606864     1.558978849
  12    O       -1.361781992    -1.893908839     2.725765069
  13    O       -1.167028405    -3.207503841     1.051103724
  14    C        0.803366697    -0.424911472    -2.746624214
  15    H        1.909435014    -0.130974620    -2.819777599
  16    C        0.649777136    -1.851163450    -3.255847790
  17    H        1.021107358    -1.963969527    -4.287206748
  18    H       -0.393090830    -2.196137309    -3.257697410
  19    H        1.231197755    -2.558855058    -2.640622555
  20    N        0.080726166     0.496526114    -3.688341709
  21    O        0.185044048     0.299265392    -4.888594238
  22    O       -0.562256913     1.431638389    -3.242079043
  23    O        6.775699281     1.354169610    -3.178628999
  24    H        6.178489038     0.729744942    -2.951801928
  25    H        4.065798321     0.441008565    -2.020641789
  26    H        4.104264660     0.674063803    -3.528673841
  27    O        3.890181499     0.005930098    -2.865101720


           Empirical Formula: C8 H11 N2 O6  =    27 atoms



      MOLECULAR POINT GROUP   :   C1  


                  EIGENVALUES  
 -37.50167 -37.40540 -31.62641 -30.87609 -30.83253 -29.50995 -29.21231 -27.68614
 -26.26267 -25.21097 -24.65391 -24.60332 -22.63021 -21.42200 -20.61034 -19.42826
 -18.53105 -18.34246 -18.02724 -17.73405 -17.63749 -17.36658 -16.98497 -16.11701
 -15.40713 -15.22188 -14.54758 -14.29417 -14.00098 -13.64139 -13.47224 -13.18967
 -12.94248 -12.64790 -12.18118 -11.96634 -11.95776 -11.87559 -11.86093 -11.70489
 -11.55331 -10.68851 -10.50134 -10.31977 -10.31507  -1.48089  -0.68554  -0.43684
   0.15421   0.44498   0.52364   1.78954   2.52693   3.05669   3.31558   3.61142
   3.79479   3.97630   4.03388   4.08287   4.24692   4.30317   4.52879   4.65413
   4.82760   4.88608   5.34039   5.40110   5.44294   5.48464   5.57848   5.81358
   6.47536   6.61027   8.18324


              NET ATOMIC CHARGES AND DIPOLE CONTRIBUTIONS

  ATOM NO.   TYPE          CHARGE      No. of ELECS.   s-Pop       p-Pop       
    1          C          -0.174198        4.1742     1.08652     3.08768
    2          C          -0.052033        4.0520     1.10042     2.95162
    3          C          -0.079511        4.0795     1.06532     3.01419
    4          C          -0.061533        4.0615     1.09553     2.96600
    5          C          -0.097835        4.0978     1.06884     3.02899
    6          C          -0.053726        4.0537     1.09823     2.95549
    7          H           0.186284        0.8137     0.81372
    8          H           0.189472        0.8105     0.81053
    9          H           0.198577        0.8014     0.80142
   10          H           0.191557        0.8084     0.80844
   11          N           0.674397        4.3256     1.44743     2.87817
   12          O          -0.461675        6.4617     1.94087     4.52080
   13          O          -0.462898        6.4629     1.94097     4.52193
   14          C          -0.041064        4.0411     1.09529     2.94578
   15          H           0.240987        0.7590     0.75901
   16          C          -0.475406        4.4754     1.05779     3.41762
   17          H           0.185088        0.8149     0.81491
   18          H           0.173112        0.8269     0.82689
   19          H           0.191207        0.8088     0.80879
   20          N           0.625734        4.3743     1.47869     2.89558
   21          O          -0.449079        6.4491     1.93971     4.50936
   22          O          -0.455277        6.4553     1.93932     4.51596
   23          O          -1.330521        7.3305     1.87307     5.45745
   24          H           0.330307        0.6697     0.66969
   25          H           0.372475        0.6275     0.62752
   26          H           0.370381        0.6296     0.62962
   27          O          -0.734824        6.7348     1.81568     4.91914
 DIPOLE           X         Y         Z       TOTAL
 POINT-CHG.   -23.861    -5.261     9.480    26.208
 HYBRID        -0.846    -0.150     0.229     0.890
 SUM          -24.707    -5.411     9.709    27.092


          ATOMIC ORBITAL ELECTRON POPULATIONS

     Atom    s        px        py        pz   
    1  C   1.08652   1.00619   1.07991   1.00157
    2  C   1.10042   0.92459   1.02606   1.00097
    3  C   1.06532   1.04730   0.99371   0.97318
    4  C   1.09553   0.91722   1.08327   0.96551
    5  C   1.06884   1.12625   0.92565   0.97709
    6  C   1.09823   0.91536   0.95405   1.08609
    7  H   0.81372
    8  H   0.81053
    9  H   0.80142
   10  H   0.80844
   11  N   1.44743   0.92225   0.98751   0.96842
   12  O   1.94087   1.56715   1.88155   1.07210
   13  O   1.94097   1.61832   1.17346   1.73015
   14  C   1.09529   1.08590   0.95483   0.90504
   15  H   0.75901
   16  C   1.05779   1.21320   1.01089   1.19353
   17  H   0.81491
   18  H   0.82689
   19  H   0.80879
   20  N   1.47869   0.93896   0.96823   0.98839
   21  O   1.93971   1.67876   1.77554   1.05506
   22  O   1.93932   1.43938   1.28579   1.79079
   23  O   1.87307   1.75665   1.73570   1.96510
   24  H   0.66969
   25  H   0.62752
   26  H   0.62962
   27  O   1.81568   1.93861   1.57484   1.40569

          BONDING CONTRIBUTION OF EACH M.O.

  1.3473  1.3150  1.8640  1.0144  1.0043  1.3520  1.4865  1.4901  1.5099  1.5312
  1.0852  1.0834  1.6294  1.4971  1.6189  1.5568  1.5298  1.1850  1.2973  1.6572
  1.5408  1.7445  1.7808  1.8867  1.8709  1.9462  0.7177  1.8214  1.9014  1.7806
  1.8719  0.6965  1.4118  1.9673  0.5999  0.8482  0.8748  0.3519  0.2937  0.6843
  0.7978  1.8936  1.9404  0.0007  0.0004 -2.1382 -1.9651 -2.3767 -2.1610 -2.1118
 -2.0827 -1.9816 -1.9630 -1.9727 -1.9546 -1.9576 -1.9416 -1.9449 -1.9120 -2.0260
 -1.9783 -1.9702 -1.9656 -1.9601 -1.9370 -1.9065 -1.9478 -1.9413 -1.9578 -1.9501
 -1.9500 -1.9431 -1.7200 -1.8856 -1.7758





            (VALENCIES)   BOND ORDERS

     1  C     (3.965)     6  C 1.447     2  C 1.444     7  H 0.952     4  C 0.101

     2  C     (3.949)     1  C 1.444     3  C 1.394     8  H 0.950     5  C 0.104     6  C 0.011

     3  C     (3.989)     4  C 1.456     2  C 1.394    14  C 0.998     6  C 0.101

     4  C     (3.949)     3  C 1.456     5  C 1.373     9  H 0.943     1  C 0.101    12  O 0.018    13  O 0.011

     5  C     (3.927)     6  C 1.383     4  C 1.373    11  N 0.908     2  C 0.104    13  O 0.068    12  O 0.068

     6  C     (3.949)     1  C 1.447     5  C 1.383    10  H 0.949     3  C 0.101    13  O 0.019    12  O 0.012
                          2  C 0.011

     7  H     (0.965)     1  C 0.952

     8  H     (0.964)     2  C 0.950

     9  H     (0.961)     4  C 0.943

    10  H     (0.963)     6  C 0.949

    11  N     (3.782)    12  O 1.422    13  O 1.420     5  C 0.908

    12  O     (1.814)    11  N 1.422    13  O 0.285     5  C 0.068     4  C 0.018     6  C 0.012

    13  O     (1.812)    11  N 1.420    12  O 0.285     5  C 0.068     6  C 0.019     4  C 0.011

    14  C     (3.895)    16  C 0.999     3  C 0.998    15  H 0.897    20  N 0.821    22  O 0.072    21  O 0.070

    15  H     (0.942)    14  C 0.897    27  O 0.012

    16  C     (3.893)    14  C 0.999    18  H 0.960    17  H 0.954    19  H 0.948

    17  H     (0.966)    16  C 0.954

    18  H     (0.970)    16  C 0.960

    19  H     (0.963)    16  C 0.948

    20  N     (3.742)    21  O 1.443    22  O 1.443    14  C 0.821

    21  O     (1.834)    20  N 1.443    22  O 0.297    14  C 0.070

    22  O     (1.835)    20  N 1.443    21  O 0.297    14  C 0.072

    23  O     (0.891)    24  H 0.887

    24  H     (0.891)    23  O 0.887

    25  H     (0.861)    27  O 0.858

    26  H     (0.863)    27  O 0.859

    27  O     (1.741)    26  H 0.859    25  H 0.858    15  H 0.012


 **********************
 *                    *
 * JOB ENDED NORMALLY *
 *                    *
 **********************



 TOTAL JOB TIME:           154.53 SECONDS

 == MOPAC DONE ==
