
                                 *****************
                                 * O   R   C   A *
                                 *****************

                                            #,                                       
                                            ###                                      
                                            ####                                     
                                            #####                                    
                                            ######                                   
                                           ########,                                 
                                     ,,################,,,,,                         
                               ,,#################################,,                 
                          ,,##########################################,,             
                       ,#########################################, ''#####,          
                    ,#############################################,,   '####,        
                  ,##################################################,,,,####,       
                ,###########''''           ''''###############################       
              ,#####''   ,,,,##########,,,,          '''####'''          '####       
            ,##' ,,,,###########################,,,                        '##       
           ' ,,###''''                  '''############,,,                           
         ,,##''                                '''############,,,,        ,,,,,,###''
      ,#''                                            '''#######################'''  
     '                                                          ''''####''''         
             ,#######,   #######,   ,#######,      ##                                
            ,#'     '#,  ##    ##  ,#'     '#,    #''#        ######   ,####,        
            ##       ##  ##   ,#'  ##            #'  '#       #        #'  '#        
            ##       ##  #######   ##           ,######,      #####,   #    #        
            '#,     ,#'  ##    ##  '#,     ,#' ,#      #,         ##   #,  ,#        
             '#######'   ##     ##  '#######'  #'      '#     #####' # '####'        



                  #######################################################
                  #                        -***-                        #
                  #          Department of theory and spectroscopy      #
                  #    Directorship and core code : Frank Neese         #
                  #        Max Planck Institute fuer Kohlenforschung    #
                  #                Kaiser Wilhelm Platz 1               #
                  #                 D-45470 Muelheim/Ruhr               #
                  #                      Germany                        #
                  #                                                     #
                  #                  All rights reserved                #
                  #                        -***-                        #
                  #######################################################


                         Program Version 5.0.4 -  RELEASE  -


 With contributions from (in alphabetic order):
   Daniel Aravena         : Magnetic Suceptibility
   Michael Atanasov       : Ab Initio Ligand Field Theory (pilot matlab implementation)
   Alexander A. Auer      : GIAO ZORA, VPT2 properties, NMR spectrum
   Ute Becker             : Parallelization
   Giovanni Bistoni       : ED, misc. LED, open-shell LED, HFLD
   Martin Brehm           : Molecular dynamics
   Dmytro Bykov           : SCF Hessian
   Vijay G. Chilkuri      : MRCI spin determinant printing, contributions to CSF-ICE
   Dipayan Datta          : RHF DLPNO-CCSD density
   Achintya Kumar Dutta   : EOM-CC, STEOM-CC
   Dmitry Ganyushin       : Spin-Orbit,Spin-Spin,Magnetic field MRCI
   Miquel Garcia          : C-PCM and meta-GGA Hessian, CC/C-PCM, Gaussian charge scheme
   Yang Guo               : DLPNO-NEVPT2, F12-NEVPT2, CIM, IAO-localization
   Andreas Hansen         : Spin unrestricted coupled pair/coupled cluster methods
   Benjamin Helmich-Paris : MC-RPA, TRAH-SCF, COSX integrals
   Lee Huntington         : MR-EOM, pCC
   Robert Izsak           : Overlap fitted RIJCOSX, COSX-SCS-MP3, EOM
   Marcus Kettner         : VPT2
   Christian Kollmar      : KDIIS, OOCD, Brueckner-CCSD(T), CCSD density, CASPT2, CASPT2-K
   Simone Kossmann        : Meta GGA functionals, TD-DFT gradient, OOMP2, MP2 Hessian
   Martin Krupicka        : Initial AUTO-CI
   Lucas Lang             : DCDCAS
   Marvin Lechner         : AUTO-CI (C++ implementation), FIC-MRCC
   Dagmar Lenk            : GEPOL surface, SMD
   Dimitrios Liakos       : Extrapolation schemes; Compound Job, initial MDCI parallelization
   Dimitrios Manganas     : Further ROCIS development; embedding schemes
   Dimitrios Pantazis     : SARC Basis sets
   Anastasios Papadopoulos: AUTO-CI, single reference methods and gradients
   Taras Petrenko         : DFT Hessian,TD-DFT gradient, ASA, ECA, R-Raman, ABS, FL, XAS/XES, NRVS
   Peter Pinski           : DLPNO-MP2, DLPNO-MP2 Gradient
   Christoph Reimann      : Effective Core Potentials
   Marius Retegan         : Local ZFS, SOC
   Christoph Riplinger    : Optimizer, TS searches, QM/MM, DLPNO-CCSD(T), (RO)-DLPNO pert. Triples
   Tobias Risthaus        : Range-separated hybrids, TD-DFT gradient, RPA, STAB
   Michael Roemelt        : Original ROCIS implementation
   Masaaki Saitow         : Open-shell DLPNO-CCSD energy and density
   Barbara Sandhoefer     : DKH picture change effects
   Avijit Sen             : IP-ROCIS
   Kantharuban Sivalingam : CASSCF convergence, NEVPT2, FIC-MRCI
   Bernardo de Souza      : ESD, SOC TD-DFT
   Georgi Stoychev        : AutoAux, RI-MP2 NMR, DLPNO-MP2 response
   Willem Van den Heuvel  : Paramagnetic NMR
   Boris Wezisla          : Elementary symmetry handling
   Frank Wennmohs         : Technical directorship


 We gratefully acknowledge several colleagues who have allowed us to
 interface, adapt or use parts of their codes:
   Stefan Grimme, W. Hujo, H. Kruse, P. Pracht,  : VdW corrections, initial TS optimization,
                  C. Bannwarth, S. Ehlert          DFT functionals, gCP, sTDA/sTD-DF
   Ed Valeev, F. Pavosevic, A. Kumar             : LibInt (2-el integral package), F12 methods
   Garnet Chan, S. Sharma, J. Yang, R. Olivares  : DMRG
   Ulf Ekstrom                                   : XCFun DFT Library
   Mihaly Kallay                                 : mrcc  (arbitrary order and MRCC methods)
   Jiri Pittner, Ondrej Demel                    : Mk-CCSD
   Frank Weinhold                                : gennbo (NPA and NBO analysis)
   Christopher J. Cramer and Donald G. Truhlar   : smd solvation model
   Lars Goerigk                                  : TD-DFT with DH, B97 family of functionals
   V. Asgeirsson, H. Jonsson                     : NEB implementation
   FAccTs GmbH                                   : IRC, NEB, NEB-TS, DLPNO-Multilevel, CI-OPT
                                                   MM, QMMM, 2- and 3-layer-ONIOM, Crystal-QMMM,
                                                   LR-CPCM, SF, NACMEs, symmetry and pop. for TD-DFT,
                                                   nearIR, NL-DFT gradient (VV10), updates on ESD,
                                                   ML-optimized integration grids
   S Lehtola, MJT Oliveira, MAL Marques          : LibXC Library
   Liviu Ungur et al                             : ANISO software


 Your calculation uses the libint2 library for the computation of 2-el integrals
 For citations please refer to: http://libint.valeyev.net

 Your ORCA version has been built with support for libXC version: 5.1.0
 For citations please refer to: https://tddft.org/programs/libxc/

 This ORCA versions uses:
   CBLAS   interface :  Fast vector & matrix operations
   LAPACKE interface :  Fast linear algebra routines
   SCALAPACK package :  Parallel linear algebra routines
   Shared memory     :  Shared parallel matrices
   BLAS/LAPACK       :  OpenBLAS 0.3.15  USE64BITINT DYNAMIC_ARCH NO_AFFINITY Prescott SINGLE_THREADED
        Core in use  :  Prescott
   Copyright (c) 2011-2014, The OpenBLAS Project


Your calculation utilizes the atom-pairwise dispersion correction
with the Becke-Johnson damping scheme (D3BJ)
Cite in your paper:
S.Grimme, S.Ehrlich, L.Goerigk, J Comput Chem, (2011), 32, 1456–1465 
S.Grimme, J.Antony, S.Ehrlich and H.Krieg, J.Chem.Phys., 132, (2010), 154104 
   

================================================================================

----- Orbital basis set information -----
Your calculation utilizes the basis: def2-TZVP
   F. Weigend and R. Ahlrichs, Phys. Chem. Chem. Phys. 7, 3297 (2005).

----- AuxJ basis set information -----
Your calculation utilizes the auxiliary basis: def2/J
   F. Weigend, Phys. Chem. Chem. Phys. 8, 1057 (2006).

================================================================================
                                        WARNINGS
                       Please study these warnings very carefully!
================================================================================

WARNING: Gradients needed for Numerical Frequencies
  ===> : Setting RunTyp to EnGrad

INFO   : the flag for use of the SHARK integral package has been found!

================================================================================
                                       INPUT FILE
================================================================================
NAME = /home/rudenko/mop_saddle_orca_4_serv/for_orca/ch32chno2_ch3coo_new/orca/freq_D/f_D.inp
|  1> !  NUMFREQ B3LYP def2-TZVP CPCM D3 
|  2> %pal nprocs 102 end
|  3> %cpcm epsilon 78.4 end 
|  4> *xyz -1 1 
|  5> C   -1.60228834747957 0.47897999035439 -0.26152763630446
|  6> H   -0.37704026936519 1.08296697666949 -0.31464389176868 M = 2
|  7> N   -1.41269685395788 -0.40648923350226 0.82198910750347
|  8> O   -0.9967214394392 -1.56795543792309 0.61319899318336
|  9> O   -1.57721889199799 0.00244481555988 1.99350399171201
| 10> C   2.59052661320878 -0.94798206258323 0.13660846279247
| 11> O   2.24930315529348 0.11015784227105 0.83939835932633
| 12> O   2.2863092084579 -1.11883848750216 -1.03650415344902
| 13> C   3.3936898799412 -1.94983992655322 0.92787756415296
| 14> H   3.72280783108027 -2.7654752415294 0.28882622798312
| 15> H   2.77527263503175 -2.34647878948449 1.73600966677062
| 16> H   4.25563340713201 -1.46215154013856 1.38549724588675
| 17> C   -2.57045590339191 1.60682781863808 0.03287250703565
| 18> H   -2.26247054995737 2.19463390601801 0.89583284208799
| 19> H   -3.58615661658174 1.23797680233912 0.21801853821287
| 20> H   -2.60714052518496 2.26955778251664 -0.83284267311858
| 21> C   -1.78059767420839 -0.21274874657993 -1.59549382913941
| 22> H   -2.70247746954954 -0.80518012898346 -1.63366043222123
| 23> H   -0.94627093481215 -0.87301200700365 -1.82572389544181
| 24> H   -1.83788464316604 0.54622896421985 -2.37705314070787
| 25> H   1.62066048224758 0.78680287989155 0.2997646324627
| 26> O   0.73755149580137 1.65773124199943 -0.40181130602227
| 27> H   0.62766541089758 2.48184258130593 0.08986281906303
| 28> *
| 29> 
| 30>                          ****END OF INPUT****
================================================================================

                     *******************************
                     * Energy+Gradient Calculation *
                     *******************************

---------------------------------
CARTESIAN COORDINATES (ANGSTROEM)
---------------------------------
  C     -1.602288    0.478980   -0.261528
  H     -0.377040    1.082967   -0.314644
  N     -1.412697   -0.406489    0.821989
  O     -0.996721   -1.567955    0.613199
  O     -1.577219    0.002445    1.993504
  C      2.590527   -0.947982    0.136608
  O      2.249303    0.110158    0.839398
  O      2.286309   -1.118838   -1.036504
  C      3.393690   -1.949840    0.927878
  H      3.722808   -2.765475    0.288826
  H      2.775273   -2.346479    1.736010
  H      4.255633   -1.462152    1.385497
  C     -2.570456    1.606828    0.032873
  H     -2.262471    2.194634    0.895833
  H     -3.586157    1.237977    0.218019
  H     -2.607141    2.269558   -0.832843
  C     -1.780598   -0.212749   -1.595494
  H     -2.702477   -0.805180   -1.633660
  H     -0.946271   -0.873012   -1.825724
  H     -1.837885    0.546229   -2.377053
  H      1.620660    0.786803    0.299765
  O      0.737551    1.657731   -0.401811
  H      0.627665    2.481843    0.089863

----------------------------
CARTESIAN COORDINATES (A.U.)
----------------------------
  NO LB      ZA    FRAG     MASS         X           Y           Z
   0 C     6.0000    0    12.011   -3.027886    0.905141   -0.494216
   1 H     1.0000    0     2.000   -0.712503    2.046511   -0.594591
   2 N     7.0000    0    14.007   -2.669610   -0.768153    1.553334
   3 O     8.0000    0    15.999   -1.883531   -2.963006    1.158778
   4 O     8.0000    0    15.999   -2.980512    0.004620    3.767177
   5 C     6.0000    0    12.011    4.895386   -1.791426    0.258153
   6 O     8.0000    0    15.999    4.250567    0.208168    1.586233
   7 O     8.0000    0    15.999    4.320498   -2.114298   -1.958709
   8 C     6.0000    0    12.011    6.413144   -3.684663    1.753434
   9 H     1.0000    0     1.008    7.035087   -5.225991    0.545802
  10 H     1.0000    0     1.008    5.244505   -4.434202    3.280583
  11 H     1.0000    0     1.008    8.041982   -2.763066    2.618210
  12 C     6.0000    0    12.011   -4.857458    3.036465    0.062120
  13 H     1.0000    0     1.008   -4.275450    4.147257    1.692879
  14 H     1.0000    0     1.008   -6.776854    2.339437    0.411995
  15 H     1.0000    0     1.008   -4.926782    4.288843   -1.573845
  16 C     6.0000    0    12.011   -3.364842   -0.402037   -3.015046
  17 H     1.0000    0     1.008   -5.106942   -1.521570   -3.087171
  18 H     1.0000    0     1.008   -1.788193   -1.649754   -3.450118
  19 H     1.0000    0     1.008   -3.473099    1.032223   -4.491979
  20 H     1.0000    0     1.008    3.062604    1.486842    0.566473
  21 O     8.0000    0    15.999    1.393770    3.132658   -0.759313
  22 H     1.0000    0     1.008    1.186116    4.690003    0.169816

--------------------------------
INTERNAL COORDINATES (ANGSTROEM)
--------------------------------
 C      0   0   0     0.000000000000     0.00000000     0.00000000
 H      1   0   0     1.367060521395     0.00000000     0.00000000
 N      1   2   0     1.412093911511   100.74994866     0.00000000
 O      3   1   2     1.251252413118   119.91157528   269.14853994
 O      3   1   2     1.251695522643   119.71256004    84.44337481
 C      2   1   3     3.624201414117   118.78047235    41.32334198
 O      6   2   1     1.315297359971    53.36480587   236.37682416
 O      6   2   1     1.223900877389    75.83925409    81.23981568
 C      6   2   1     1.508276235772   150.87687540   307.07782908
 H      9   6   2     1.087182690746   110.55836649   129.25337164
 H      9   6   2     1.092172043073   109.14088416     8.74666696
 H      9   6   2     1.090963967975   110.11126497   251.06795203
 C      1   2   3     1.515275745363   104.55777147   118.26635352
 H     13   1   2     1.088609899902   112.03371672   308.26410099
 H     13   1   2     1.096347601749   111.98309027   186.66980560
 H     13   1   2     1.090880167410   108.63196790    67.60642957
 C      1   2   3     1.513191549384   105.86240002   241.10953791
 H     17   1   2     1.096491673250   112.13214982   175.20234238
 H     17   1   2     1.088602114901   111.92492356    53.62524984
 H     17   1   2     1.090946341395   108.64542779   294.33185025
 H      7   6   2     1.069693730224   113.06630772   334.20056903
 O      2   1   3     1.257086680299   177.96670756   171.35182588
 H     22   2   1     0.965907809528   104.71040055    92.40610651

---------------------------
INTERNAL COORDINATES (A.U.)
---------------------------
 C      0   0   0     0.000000000000     0.00000000     0.00000000
 H      1   0   0     2.583369993931     0.00000000     0.00000000
 N      1   2   0     2.668470768133   100.74994866     0.00000000
 O      3   1   2     2.364524385201   119.91157528   269.14853994
 O      3   1   2     2.365361740851   119.71256004    84.44337481
 C      2   1   3     6.848748126851   118.78047235    41.32334198
 O      6   2   1     2.485551795015    53.36480587   236.37682416
 O      6   2   1     2.312837473332    75.83925409    81.23981568
 C      6   2   1     2.850229019911   150.87687540   307.07782908
 H      9   6   2     2.054477543050   110.55836649   129.25337164
 H      9   6   2     2.063906052533   109.14088416     8.74666696
 H      9   6   2     2.061623121449   110.11126497   251.06795203
 C      1   2   3     2.863456176109   104.55777147   118.26635352
 H     13   1   2     2.057174577490   112.03371672   308.26410099
 H     13   1   2     2.071796714886   111.98309027   186.66980560
 H     13   1   2     2.061464761331   108.63196790    67.60642957
 C      1   2   3     2.859517616499   105.86240002   241.10953791
 H     17   1   2     2.072068970567   112.13214982   175.20234238
 H     17   1   2     2.057159865970   111.92492356    53.62524984
 H     17   1   2     2.061589812039   108.64542779   294.33185025
 H      7   6   2     2.021428197295   113.06630772   334.20056903
 O      2   1   3     2.375549552365   177.96670756   171.35182588
 H     22   2   1     1.825301230624   104.71040055    92.40610651

---------------------
BASIS SET INFORMATION
---------------------
There are 4 groups of distinct atoms

 Group   1 Type C   : 11s6p2d1f contracted to 5s3p2d1f pattern {62111/411/11/1}
 Group   2 Type H   : 5s1p contracted to 3s1p pattern {311/1}
 Group   3 Type N   : 11s6p2d1f contracted to 5s3p2d1f pattern {62111/411/11/1}
 Group   4 Type O   : 11s6p2d1f contracted to 5s3p2d1f pattern {62111/411/11/1}

Atom   0C    basis set group =>   1
Atom   1H    basis set group =>   2
Atom   2N    basis set group =>   3
Atom   3O    basis set group =>   4
Atom   4O    basis set group =>   4
Atom   5C    basis set group =>   1
Atom   6O    basis set group =>   4
Atom   7O    basis set group =>   4
Atom   8C    basis set group =>   1
Atom   9H    basis set group =>   2
Atom  10H    basis set group =>   2
Atom  11H    basis set group =>   2
Atom  12C    basis set group =>   1
Atom  13H    basis set group =>   2
Atom  14H    basis set group =>   2
Atom  15H    basis set group =>   2
Atom  16C    basis set group =>   1
Atom  17H    basis set group =>   2
Atom  18H    basis set group =>   2
Atom  19H    basis set group =>   2
Atom  20H    basis set group =>   2
Atom  21O    basis set group =>   4
Atom  22H    basis set group =>   2
---------------------------------
AUXILIARY/J BASIS SET INFORMATION
---------------------------------
There are 4 groups of distinct atoms

 Group   1 Type C   : 12s5p4d2f1g contracted to 6s4p3d1f1g pattern {711111/2111/211/2/1}
 Group   2 Type H   : 5s2p1d contracted to 3s1p1d pattern {311/2/1}
 Group   3 Type N   : 12s5p4d2f1g contracted to 6s4p3d1f1g pattern {711111/2111/211/2/1}
 Group   4 Type O   : 12s5p4d2f1g contracted to 6s4p3d1f1g pattern {711111/2111/211/2/1}

Atom   0C    basis set group =>   1
Atom   1H    basis set group =>   2
Atom   2N    basis set group =>   3
Atom   3O    basis set group =>   4
Atom   4O    basis set group =>   4
Atom   5C    basis set group =>   1
Atom   6O    basis set group =>   4
Atom   7O    basis set group =>   4
Atom   8C    basis set group =>   1
Atom   9H    basis set group =>   2
Atom  10H    basis set group =>   2
Atom  11H    basis set group =>   2
Atom  12C    basis set group =>   1
Atom  13H    basis set group =>   2
Atom  14H    basis set group =>   2
Atom  15H    basis set group =>   2
Atom  16C    basis set group =>   1
Atom  17H    basis set group =>   2
Atom  18H    basis set group =>   2
Atom  19H    basis set group =>   2
Atom  20H    basis set group =>   2
Atom  21O    basis set group =>   4
Atom  22H    basis set group =>   2


           ************************************************************
           *        Program running with 102 parallel MPI-processes   *
           *              working on a common directory               *
           ************************************************************
------------------------------------------------------------------------------
                           ORCA GTO INTEGRAL CALCULATION
                           -- RI-GTO INTEGRALS CHOSEN --
------------------------------------------------------------------------------
------------------------------------------------------------------------------
                   ___                                                        
                  /   \      - P O W E R E D   B Y -                         
                 /     \                                                     
                 |  |  |   _    _      __       _____    __    __             
                 |  |  |  | |  | |    /  \     |  _  \  |  |  /  |          
                  \  \/   | |  | |   /    \    | | | |  |  | /  /          
                 / \  \   | |__| |  /  /\  \   | |_| |  |  |/  /          
                |  |  |   |  __  | /  /__\  \  |    /   |      \           
                |  |  |   | |  | | |   __   |  |    \   |  |\   \          
                \     /   | |  | | |  |  |  |  | |\  \  |  | \   \       
                 \___/    |_|  |_| |__|  |__|  |_| \__\ |__|  \__/        
                                                                              
                      - O R C A' S   B I G   F R I E N D -                    
                                      &                                       
                       - I N T E G R A L  F E E D E R -                       
                                                                              
 v1 FN, 2020, v2 2021                                                         
------------------------------------------------------------------------------


Reading SHARK input file /home/rudenko/mop_saddle_orca_4_serv/for_orca/ch32chno2_ch3coo_new/orca/freq_D/f_D.SHARKINP.tmp ... ok
----------------------
SHARK INTEGRAL PACKAGE
----------------------

Number of atoms                             ...     23
Number of basis functions                   ...    413
Number of shells                            ...    169
Maximum angular momentum                    ...      3
Integral batch strategy                     ... SHARK/LIBINT Hybrid
RI-J (if used) integral strategy            ... SPLIT-RIJ (Revised 2003 algorithm where possible)
Printlevel                                  ...      1
Contraction scheme used                     ... SEGMENTED contraction
Coulomb Range Separation                    ... NOT USED
Exchange Range Separation                   ... NOT USED
Finite Nucleus Model                        ... NOT USED
Auxiliary Coulomb fitting basis             ... AVAILABLE
   # of basis functions in Aux-J            ...    671
   # of shells in Aux-J                     ...    225
   Maximum angular momentum in Aux-J        ...      4
Auxiliary J/K fitting basis                 ... NOT available
Auxiliary Correlation fitting basis         ... NOT available
Auxiliary 'external' fitting basis          ... NOT available
Integral threshold                          ...     2.500000e-11
Primitive cut-off                           ...     2.500000e-12
Primitive pair pre-selection threshold      ...     2.500000e-12

Calculating pre-screening integrals         ... done (  0.0 sec) Dimension = 169
Organizing shell pair data                  ... done (  0.3 sec)
Shell pair information
Total number of shell pairs                 ...     14365
Shell pairs after pre-screening             ...     11610
Total number of primitive shell pairs       ...     43056
Primitive shell pairs kept                  ...     24406
          la=0 lb=0:   3291 shell pairs
          la=1 lb=0:   3399 shell pairs
          la=1 lb=1:    903 shell pairs
          la=2 lb=0:   1577 shell pairs
          la=2 lb=1:    839 shell pairs
          la=2 lb=2:    214 shell pairs
          la=3 lb=0:    748 shell pairs
          la=3 lb=1:    399 shell pairs
          la=3 lb=2:    189 shell pairs
          la=3 lb=3:     51 shell pairs

Calculating one electron integrals          ... done (  0.1 sec)
Calculating RI/J V-Matrix + Cholesky decomp.... done (  0.0 sec)
Calculating Nuclear repulsion               ... done (  0.0 sec) ENN=    670.597468393374 Eh

SHARK setup successfully completed in   0.8 seconds

Maximum memory used throughout the entire GTOINT-calculation: 24.3 MB


           ************************************************************
           *        Program running with 102 parallel MPI-processes   *
           *              working on a common directory               *
           ************************************************************
-------------------------------------------------------------------------------
                                 ORCA SCF
-------------------------------------------------------------------------------

------------
SCF SETTINGS
------------
Hamiltonian:
 Density Functional     Method          .... DFT(GTOs)
 Exchange Functional    Exchange        .... B88
   X-Alpha parameter    XAlpha          ....  0.666667
   Becke's b parameter  XBeta           ....  0.004200
 Correlation Functional Correlation     .... LYP
 LDA part of GGA corr.  LDAOpt          .... VWN-5
 Gradients option       PostSCFGGA      .... off
 Hybrid DFT is turned on
   Fraction HF Exchange ScalHFX         ....  0.200000
   Scaling of DF-GGA-X  ScalDFX         ....  0.720000
   Scaling of DF-GGA-C  ScalDFC         ....  0.810000
   Scaling of DF-LDA-C  ScalLDAC        ....  1.000000
   Perturbative correction              ....  0.000000
   Density functional embedding theory  .... OFF
   NL short-range parameter             ....  4.800000
 RI-approximation to the Coulomb term is turned on
   Number of AuxJ basis functions       .... 671
   RIJ-COSX (HFX calculated with COS-X)).... on


General Settings:
 Integral files         IntName         .... /home/rudenko/mop_saddle_orca_4_serv/for_orca/ch32chno2_ch3coo_new/orca/freq_D/f_D
 Hartree-Fock type      HFTyp           .... RHF
 Total Charge           Charge          ....   -1
 Multiplicity           Mult            ....    1
 Number of Electrons    NEL             ....   90
 Basis Dimension        Dim             ....  413
 Nuclear Repulsion      ENuc            ....    670.5974683934 Eh

Convergence Acceleration:
 DIIS                   CNVDIIS         .... on
   Start iteration      DIISMaxIt       ....    12
   Startup error        DIISStart       ....  0.200000
   # of expansion vecs  DIISMaxEq       ....     5
   Bias factor          DIISBfac        ....   1.050
   Max. coefficient     DIISMaxC        ....  10.000
 Trust-Rad. Augm. Hess. CNVTRAH         .... auto
   Auto Start mean grad. ratio tolernc. ....  1.125000
   Auto Start start iteration           ....    20
   Auto Start num. interpolation iter.  ....    10
   Max. Number of Micro iterations      ....    16
   Max. Number of Macro iterations      .... Maxiter - #DIIS iter
   Number of Davidson start vectors     ....     2
   Converg. threshold I  (grad. norm)   ....   1.000e-05
   Converg. threshold II (energy diff.) ....   1.000e-08
   Grad. Scal. Fac. for Micro threshold ....   0.100
   Minimum threshold for Micro iter.    ....   0.010
   NR start threshold (gradient norm)   ....   0.001
   Initial trust radius                 ....   0.400
   Minimum AH scaling param. (alpha)    ....   1.000
   Maximum AH scaling param. (alpha)    .... 1000.000
   Orbital update algorithm             .... Taylor
   White noise on init. David. guess    .... on
   Maximum white noise                  ....   0.010
   Quad. conv. algorithm                .... NR
 SOSCF                  CNVSOSCF        .... on
   Start iteration      SOSCFMaxIt      ....   150
   Startup grad/error   SOSCFStart      ....  0.003300
 Level Shifting         CNVShift        .... on
   Level shift para.    LevelShift      ....    0.2500
   Turn off err/grad.   ShiftErr        ....    0.0010
 Zerner damping         CNVZerner       .... off
 Static damping         CNVDamp         .... on
   Fraction old density DampFac         ....    0.7000
   Max. Damping (<1)    DampMax         ....    0.9800
   Min. Damping (>=0)   DampMin         ....    0.0000
   Turn off err/grad.   DampErr         ....    0.1000
 Fernandez-Rico         CNVRico         .... off

SCF Procedure:
 Maximum # iterations   MaxIter         ....   125
 SCF integral mode      SCFMode         .... Direct
   Integral package                     .... SHARK and LIBINT hybrid scheme
 Reset frequency        DirectResetFreq ....    20
 Integral Threshold     Thresh          ....  2.500e-11 Eh
 Primitive CutOff       TCut            ....  2.500e-12 Eh

Convergence Tolerance:
 Convergence Check Mode ConvCheckMode   .... Total+1el-Energy
 Convergence forced     ConvForced      .... 0
 Energy Change          TolE            ....  1.000e-08 Eh
 1-El. energy change                    ....  1.000e-05 Eh
 Orbital Gradient       TolG            ....  1.000e-05
 Orbital Rotation angle TolX            ....  1.000e-05
 DIIS Error             TolErr          ....  5.000e-07


Diagonalization of the overlap matrix:
Smallest eigenvalue                        ... 1.971e-04
Time for diagonalization                   ...    0.076 sec
Threshold for overlap eigenvalues          ... 1.000e-08
Number of eigenvalues below threshold      ... 0
Time for construction of square roots      ...    0.096 sec
Total time needed                          ...    0.174 sec

Time for model grid setup =    0.153 sec

------------------------------
INITIAL GUESS: MODEL POTENTIAL
------------------------------
Loading Hartree-Fock densities                     ... done
Calculating cut-offs                               ... done
Initializing the effective Hamiltonian             ... done
Setting up the integral package (SHARK)            ... done
Starting the Coulomb interaction                   ... done (   0.0 sec)
Reading the grid                                   ... done
Mapping shells                                     ... done
Starting the XC term evaluation                    ... done (   0.0 sec)
  promolecular density results
     # of electrons  =     88.999416402
     EX              =    -76.774730006
     EC              =     -3.060080227
     EX+EC           =    -79.834810234
Transforming the Hamiltonian                       ... done (   0.1 sec)
Diagonalizing the Hamiltonian                      ... done (   0.1 sec)
Back transforming the eigenvectors                 ... done (   0.0 sec)
Now organizing SCF variables                       ... done
                      ------------------
                      INITIAL GUESS DONE (   0.5 sec)
                      ------------------
-------------------
DFT GRID GENERATION
-------------------

General Integration Accuracy     IntAcc      ... 4.388
Radial Grid Type                 RadialGrid  ... OptM3 with GC (2021)
Angular Grid (max. ang.)         AngularGrid ... 4 (Lebedev-302)
Angular grid pruning method      GridPruning ... 4 (adaptive)
Weight generation scheme         WeightScheme... Becke
Basis function cutoff            BFCut       ... 1.0000e-11
Integration weight cutoff        WCut        ... 1.0000e-14
Angular grids for H and He will be reduced by one unit
Partially contracted basis set               ... off
Rotationally invariant grid construction     ... off

Total number of grid points                  ...   105150
Total number of batches                      ...     1657
Average number of points per batch           ...       63
Average number of grid points per atom       ...     4572
Time for grid setup =    0.841 sec

--------------------
COSX GRID GENERATION
--------------------

GRIDX 1
-------
General Integration Accuracy     IntAcc      ... 3.816
Radial Grid Type                 RadialGrid  ... OptM3 with GC (2021)
Angular Grid (max. ang.)         AngularGrid ... 1 (Lebedev-50)
Angular grid pruning method      GridPruning ... 4 (adaptive)
Weight generation scheme         WeightScheme... Becke
Basis function cutoff            BFCut       ... 1.0000e-11
Integration weight cutoff        WCut        ... 1.0000e-14
Angular grids for H and He will be reduced by one unit
Partially contracted basis set               ... on
Rotationally invariant grid construction     ... off

Total number of grid points                  ...    13416
Total number of batches                      ...      223
Average number of points per batch           ...       60
Average number of grid points per atom       ...      583
UseSFitting                                  ... on

GRIDX 2
-------
General Integration Accuracy     IntAcc      ... 4.020
Radial Grid Type                 RadialGrid  ... OptM3 with GC (2021)
Angular Grid (max. ang.)         AngularGrid ... 2 (Lebedev-110)
Angular grid pruning method      GridPruning ... 4 (adaptive)
Weight generation scheme         WeightScheme... Becke
Basis function cutoff            BFCut       ... 1.0000e-11
Integration weight cutoff        WCut        ... 1.0000e-14
Angular grids for H and He will be reduced by one unit
Partially contracted basis set               ... on
Rotationally invariant grid construction     ... off

Total number of grid points                  ...    28904
Total number of batches                      ...      465
Average number of points per batch           ...       62
Average number of grid points per atom       ...     1257
UseSFitting                                  ... on

GRIDX 3
-------
General Integration Accuracy     IntAcc      ... 4.338
Radial Grid Type                 RadialGrid  ... OptM3 with GC (2021)
Angular Grid (max. ang.)         AngularGrid ... 3 (Lebedev-194)
Angular grid pruning method      GridPruning ... 4 (adaptive)
Weight generation scheme         WeightScheme... Becke
Basis function cutoff            BFCut       ... 1.0000e-11
Integration weight cutoff        WCut        ... 1.0000e-14
Angular grids for H and He will be reduced by one unit
Partially contracted basis set               ... on
Rotationally invariant grid construction     ... off

Total number of grid points                  ...    63337
Total number of batches                      ...     1002
Average number of points per batch           ...       63
Average number of grid points per atom       ...     2754
UseSFitting                                  ... on

Time for X-Grid setup             =    0.980 sec


--------------------
CPCM SOLVATION MODEL
--------------------
CPCM parameters:
  Epsilon                                         ...      78.4000
  Refrac                                          ...       1.3300
  Rsolv                                           ...       1.3000
  Surface type                                    ... GAUSSIAN VDW
  Epsilon function type                           ...         CPCM
Radii:
 Radius for C  used is    3.8550 Bohr (=   2.0400 Ang.)
 Radius for H  used is    2.4944 Bohr (=   1.3200 Ang.)
 Radius for N  used is    3.5149 Bohr (=   1.8600 Ang.)
 Radius for O  used is    3.4469 Bohr (=   1.8240 Ang.)
Calculating surface                               ...        done! (  0.0s)
GEPOL surface points                              ...         1361
GEPOL Volume                                      ...    1404.7810
GEPOL Surface-area                                ...     842.2868
Calculating surface distance matrix               ...        done! (  0.1s)
Performing Cholesky decomposition & store         ...        done! (  0.3s)
Overall time for CPCM initialization              ...                 0.4s
--------------
SCF ITERATIONS
--------------
ITER       Energy         Delta-E        Max-DP      RMS-DP      [F,P]     Damp
               ***  Starting incremental Fock matrix formation  ***
  0   -628.0769642131   0.000000000000 0.18957882  0.00143192  0.3569191 0.7000
  1   -628.3535682741  -0.276604061030 0.16665899  0.00110590  0.1344891 0.7000
                               ***Turning on DIIS***
  2   -628.4478576994  -0.094289425299 0.17471767  0.00151424  0.0403373 0.0000
  3   -628.6098428315  -0.161985132046 0.15872293  0.00087947  0.0739080 0.0000
  4   -628.6408207706  -0.030977939175 0.05087846  0.00029257  0.0172386 0.0000
  5   -628.6433972926  -0.002576521963 0.01544113  0.00010825  0.0044526 0.0000
                      *** Initiating the SOSCF procedure ***
                           *** Shutting down DIIS ***
                      *** Re-Reading the Fockian *** 
                      *** Removing any level shift *** 
ITER      Energy       Delta-E        Grad      Rot      Max-DP    RMS-DP
  6   -628.64350781  -0.0001105146  0.000431  0.000431  0.005011  0.000039
               *** Restarting incremental Fock matrix formation ***
  7   -628.64351941  -0.0000115989  0.000107  0.000357  0.001604  0.000022
  8   -628.64351963  -0.0000002241  0.000224  0.000690  0.000610  0.000008
  9   -628.64352149  -0.0000018618  0.000058  0.000256  0.000746  0.000006
 10   -628.64352149   0.0000000041  0.000054  0.000077  0.000132  0.000001
 11   -628.64352160  -0.0000001168  0.000018  0.000036  0.000178  0.000002
 12   -628.64352161  -0.0000000009  0.000013  0.000013  0.000076  0.000001
 13   -628.64352161  -0.0000000010  0.000003  0.000011  0.000031  0.000000
 14   -628.64352160   0.0000000020  0.000006  0.000009  0.000008  0.000000
                 **** Energy Check signals convergence ****
              ***Rediagonalizing the Fockian in SOSCF/NRSCF***

               *****************************************************
               *                     SUCCESS                       *
               *           SCF CONVERGED AFTER  15 CYCLES          *
               *****************************************************

Old exchange energy                            =    -15.602780211 Eh
New exchange energy                            =    -15.602792718 Eh
Exchange energy change after final integration =     -0.000012507 Eh
Total energy after final integration           =   -628.643534115 Eh
Final COS-X integration done in                =     0.963 sec

----------------
TOTAL SCF ENERGY
----------------

Total Energy       :         -628.64353411 Eh          -17106.26023 eV

Components:
Nuclear Repulsion  :          670.59746839 Eh           18247.88482 eV
Electronic Energy  :        -1299.24100251 Eh          -35354.14505 eV
One Electron Energy:        -2206.96891966 Eh          -60054.67742 eV
Two Electron Energy:          907.72791715 Eh           24700.53238 eV
Max COSX asymmetry :            0.00000262 Eh               0.00007 eV
CPCM Dielectric    :           -0.10304712 Eh              -2.80405 eV

Virial components:
Potential Energy   :        -1254.74523059 Eh          -34143.35354 eV
Kinetic Energy     :          626.10169647 Eh           17037.09331 eV
Virial Ratio       :            2.00405978


DFT components:
N(Alpha)           :       44.999956852856 electrons
N(Beta)            :       44.999956852856 electrons
N(Total)           :       89.999913705712 electrons
E(X)               :      -62.170764735549 Eh       
E(C)               :       -3.647952441961 Eh       
E(XC)              :      -65.818717177510 Eh       
DFET-embed. en.    :        0.000000000000 Eh       
CPCM Solvation Model Properties:
Surface-charge          :            0.97072596
Charge-correction       :           -0.00405211 Eh              -0.11026 eV
Free-energy (cav+disp)  :  This term is not implemented in the current solvation scheme

---------------
SCF CONVERGENCE
---------------

  Last Energy change         ...   -3.1972e-09  Tolerance :   1.0000e-08
  Last MAX-Density change    ...    2.8866e-15  Tolerance :   1.0000e-07
  Last RMS-Density change    ...    2.0985e-17  Tolerance :   5.0000e-09
  Last Orbital Gradient      ...    1.0540e-06  Tolerance :   1.0000e-05
  Last Orbital Rotation      ...    2.6385e-06  Tolerance :   1.0000e-05

             **** THE GBW FILE WAS UPDATED (/home/rudenko/mop_saddle_orca_4_serv/for_orca/ch32chno2_ch3coo_new/orca/freq_D/f_D.gbw) ****
             **** DENSITY /home/rudenko/mop_saddle_orca_4_serv/for_orca/ch32chno2_ch3coo_new/orca/freq_D/f_D.scfp WAS UPDATED ****
             **** ENERGY FILE WAS UPDATED (/home/rudenko/mop_saddle_orca_4_serv/for_orca/ch32chno2_ch3coo_new/orca/freq_D/f_D.en.tmp) ****
             **** THE GBW FILE WAS UPDATED (/home/rudenko/mop_saddle_orca_4_serv/for_orca/ch32chno2_ch3coo_new/orca/freq_D/f_D.gbw) ****
             **** DENSITY /home/rudenko/mop_saddle_orca_4_serv/for_orca/ch32chno2_ch3coo_new/orca/freq_D/f_D.scfp WAS UPDATED ****
----------------
ORBITAL ENERGIES
----------------

  NO   OCC          E(Eh)            E(eV) 
   0   2.0000     -19.125557      -520.4329 
   1   2.0000     -19.117250      -520.2068 
   2   2.0000     -19.116415      -520.1841 
   3   2.0000     -19.094296      -519.5822 
   4   2.0000     -19.084104      -519.3049 
   5   2.0000     -14.504497      -394.6874 
   6   2.0000     -10.286349      -279.9058 
   7   2.0000     -10.178242      -276.9640 
   8   2.0000     -10.161625      -276.5119 
   9   2.0000     -10.153104      -276.2800 
  10   2.0000     -10.152122      -276.2533 
  11   2.0000      -1.178300       -32.0632 
  12   2.0000      -1.074142       -29.2289 
  13   2.0000      -1.001063       -27.2403 
  14   2.0000      -0.987594       -26.8738 
  15   2.0000      -0.944648       -25.7052 
  16   2.0000      -0.816055       -22.2060 
  17   2.0000      -0.734523       -19.9874 
  18   2.0000      -0.687440       -18.7062 
  19   2.0000      -0.681189       -18.5361 
  20   2.0000      -0.581519       -15.8239 
  21   2.0000      -0.545777       -14.8513 
  22   2.0000      -0.516468       -14.0538 
  23   2.0000      -0.487382       -13.2623 
  24   2.0000      -0.483658       -13.1610 
  25   2.0000      -0.479328       -13.0432 
  26   2.0000      -0.460404       -12.5282 
  27   2.0000      -0.451980       -12.2990 
  28   2.0000      -0.445822       -12.1314 
  29   2.0000      -0.417174       -11.3519 
  30   2.0000      -0.397348       -10.8124 
  31   2.0000      -0.396201       -10.7812 
  32   2.0000      -0.385966       -10.5027 
  33   2.0000      -0.379905       -10.3377 
  34   2.0000      -0.377087       -10.2611 
  35   2.0000      -0.374010       -10.1773 
  36   2.0000      -0.343173        -9.3382 
  37   2.0000      -0.339209        -9.2304 
  38   2.0000      -0.301051        -8.1920 
  39   2.0000      -0.291203        -7.9240 
  40   2.0000      -0.286884        -7.8065 
  41   2.0000      -0.281392        -7.6571 
  42   2.0000      -0.264417        -7.1952 
  43   2.0000      -0.260338        -7.0841 
  44   2.0000      -0.209424        -5.6987 
  45   0.0000      -0.039246        -1.0679 
  46   0.0000       0.020539         0.5589 
  47   0.0000       0.043938         1.1956 
  48   0.0000       0.059907         1.6302 
  49   0.0000       0.076812         2.0902 
  50   0.0000       0.094840         2.5807 
  51   0.0000       0.103570         2.8183 
  52   0.0000       0.119274         3.2456 
  53   0.0000       0.122519         3.3339 
  54   0.0000       0.131321         3.5734 
  55   0.0000       0.134772         3.6673 
  56   0.0000       0.149129         4.0580 
  57   0.0000       0.154925         4.2157 
  58   0.0000       0.158343         4.3087 
  59   0.0000       0.168682         4.5901 
  60   0.0000       0.175720         4.7816 
  61   0.0000       0.184013         5.0073 
  62   0.0000       0.198486         5.4011 
  63   0.0000       0.204818         5.5734 
  64   0.0000       0.208986         5.6868 
  65   0.0000       0.222513         6.0549 
  66   0.0000       0.230848         6.2817 
  67   0.0000       0.239135         6.5072 
  68   0.0000       0.246378         6.7043 
  69   0.0000       0.258559         7.0357 
  70   0.0000       0.264326         7.1927 
  71   0.0000       0.280948         7.6450 
  72   0.0000       0.296283         8.0623 
  73   0.0000       0.300525         8.1777 
  74   0.0000       0.317940         8.6516 
  75   0.0000       0.337344         9.1796 
  76   0.0000       0.349783         9.5181 
  77   0.0000       0.355226         9.6662 
  78   0.0000       0.374089        10.1795 
  79   0.0000       0.378420        10.2973 
  80   0.0000       0.386821        10.5259 
  81   0.0000       0.392788        10.6883 
  82   0.0000       0.403995        10.9933 
  83   0.0000       0.405658        11.0385 
  84   0.0000       0.412864        11.2346 
  85   0.0000       0.419632        11.4188 
  86   0.0000       0.432791        11.7768 
  87   0.0000       0.438751        11.9390 
  88   0.0000       0.440615        11.9898 
  89   0.0000       0.460648        12.5349 
  90   0.0000       0.461364        12.5544 
  91   0.0000       0.468201        12.7404 
  92   0.0000       0.469433        12.7739 
  93   0.0000       0.474936        12.9237 
  94   0.0000       0.475956        12.9514 
  95   0.0000       0.480288        13.0693 
  96   0.0000       0.496829        13.5194 
  97   0.0000       0.509774        13.8716 
  98   0.0000       0.516460        14.0536 
  99   0.0000       0.519287        14.1305 
 100   0.0000       0.528956        14.3936 
 101   0.0000       0.537577        14.6282 
 102   0.0000       0.546834        14.8801 
 103   0.0000       0.564030        15.3480 
 104   0.0000       0.573631        15.6093 
 105   0.0000       0.584401        15.9024 
 106   0.0000       0.585606        15.9351 
 107   0.0000       0.602002        16.3813 
 108   0.0000       0.608131        16.5481 
 109   0.0000       0.626702        17.0534 
 110   0.0000       0.638538        17.3755 
 111   0.0000       0.648149        17.6370 
 112   0.0000       0.666227        18.1290 
 113   0.0000       0.682145        18.5621 
 114   0.0000       0.697144        18.9703 
 115   0.0000       0.711088        19.3497 
 116   0.0000       0.739527        20.1235 
 117   0.0000       0.760037        20.6817 
 118   0.0000       0.779845        21.2207 
 119   0.0000       0.796999        21.6874 
 120   0.0000       0.812208        22.1013 
 121   0.0000       0.818627        22.2760 
 122   0.0000       0.825501        22.4630 
 123   0.0000       0.844939        22.9920 
 124   0.0000       0.864316        23.5192 
 125   0.0000       0.877717        23.8839 
 126   0.0000       0.878124        23.8950 
 127   0.0000       0.910943        24.7880 
 128   0.0000       0.928472        25.2650 
 129   0.0000       0.948340        25.8056 
 130   0.0000       0.962761        26.1980 
 131   0.0000       0.975682        26.5497 
 132   0.0000       0.996979        27.1292 
 133   0.0000       1.009589        27.4723 
 134   0.0000       1.021517        27.7969 
 135   0.0000       1.041450        28.3393 
 136   0.0000       1.043827        28.4040 
 137   0.0000       1.051635        28.6165 
 138   0.0000       1.063135        28.9294 
 139   0.0000       1.098792        29.8997 
 140   0.0000       1.125474        30.6257 
 141   0.0000       1.126235        30.6464 
 142   0.0000       1.184054        32.2197 
 143   0.0000       1.195400        32.5285 
 144   0.0000       1.212170        32.9848 
 145   0.0000       1.226870        33.3848 
 146   0.0000       1.238194        33.6930 
 147   0.0000       1.290101        35.1054 
 148   0.0000       1.320623        35.9360 
 149   0.0000       1.325066        36.0569 
 150   0.0000       1.352731        36.8097 
 151   0.0000       1.360547        37.0224 
 152   0.0000       1.406568        38.2747 
 153   0.0000       1.419986        38.6398 
 154   0.0000       1.424840        38.7719 
 155   0.0000       1.450092        39.4590 
 156   0.0000       1.475386        40.1473 
 157   0.0000       1.497742        40.7556 
 158   0.0000       1.507381        41.0179 
 159   0.0000       1.514615        41.2148 
 160   0.0000       1.520468        41.3740 
 161   0.0000       1.534197        41.7476 
 162   0.0000       1.541785        41.9541 
 163   0.0000       1.554128        42.2900 
 164   0.0000       1.556450        42.3532 
 165   0.0000       1.564705        42.5778 
 166   0.0000       1.571143        42.7530 
 167   0.0000       1.584871        43.1265 
 168   0.0000       1.587189        43.1896 
 169   0.0000       1.597052        43.4580 
 170   0.0000       1.609012        43.7835 
 171   0.0000       1.619612        44.0719 
 172   0.0000       1.625268        44.2258 
 173   0.0000       1.641427        44.6655 
 174   0.0000       1.649637        44.8889 
 175   0.0000       1.664110        45.2827 
 176   0.0000       1.694414        46.1073 
 177   0.0000       1.713010        46.6134 
 178   0.0000       1.729209        47.0542 
 179   0.0000       1.733338        47.1665 
 180   0.0000       1.775178        48.3051 
 181   0.0000       1.781248        48.4702 
 182   0.0000       1.786795        48.6212 
 183   0.0000       1.794756        48.8378 
 184   0.0000       1.813213        49.3400 
 185   0.0000       1.838490        50.0279 
 186   0.0000       1.848673        50.3049 
 187   0.0000       1.903970        51.8097 
 188   0.0000       1.909305        51.9548 
 189   0.0000       1.940316        52.7987 
 190   0.0000       1.948888        53.0319 
 191   0.0000       1.962828        53.4113 
 192   0.0000       1.976937        53.7952 
 193   0.0000       1.990134        54.1543 
 194   0.0000       2.005548        54.5737 
 195   0.0000       2.010984        54.7216 
 196   0.0000       2.047986        55.7285 
 197   0.0000       2.071331        56.3638 
 198   0.0000       2.087076        56.7922 
 199   0.0000       2.108793        57.3832 
 200   0.0000       2.123008        57.7700 
 201   0.0000       2.129393        57.9437 
 202   0.0000       2.138106        58.1808 
 203   0.0000       2.147534        58.4374 
 204   0.0000       2.165182        58.9176 
 205   0.0000       2.172447        59.1153 
 206   0.0000       2.173956        59.1564 
 207   0.0000       2.185057        59.4584 
 208   0.0000       2.219316        60.3907 
 209   0.0000       2.232715        60.7553 
 210   0.0000       2.243210        61.0408 
 211   0.0000       2.260248        61.5045 
 212   0.0000       2.280198        62.0473 
 213   0.0000       2.311118        62.8887 
 214   0.0000       2.326175        63.2984 
 215   0.0000       2.332815        63.4791 
 216   0.0000       2.337844        63.6160 
 217   0.0000       2.365371        64.3650 
 218   0.0000       2.371631        64.5354 
 219   0.0000       2.377790        64.7030 
 220   0.0000       2.391816        65.0846 
 221   0.0000       2.394051        65.1454 
 222   0.0000       2.403388        65.3995 
 223   0.0000       2.407938        65.5233 
 224   0.0000       2.432505        66.1918 
 225   0.0000       2.465208        67.0817 
 226   0.0000       2.470152        67.2163 
 227   0.0000       2.503840        68.1330 
 228   0.0000       2.531699        68.8910 
 229   0.0000       2.540802        69.1387 
 230   0.0000       2.545656        69.2708 
 231   0.0000       2.572109        69.9906 
 232   0.0000       2.583598        70.3033 
 233   0.0000       2.587104        70.3987 
 234   0.0000       2.595511        70.6274 
 235   0.0000       2.613752        71.1238 
 236   0.0000       2.629185        71.5438 
 237   0.0000       2.662744        72.4569 
 238   0.0000       2.668068        72.6018 
 239   0.0000       2.676701        72.8367 
 240   0.0000       2.699190        73.4487 
 241   0.0000       2.711863        73.7935 
 242   0.0000       2.725646        74.1686 
 243   0.0000       2.740129        74.5627 
 244   0.0000       2.746888        74.7466 
 245   0.0000       2.758678        75.0675 
 246   0.0000       2.762331        75.1669 
 247   0.0000       2.801720        76.2387 
 248   0.0000       2.819123        76.7122 
 249   0.0000       2.821042        76.7644 
 250   0.0000       2.838351        77.2355 
 251   0.0000       2.896516        78.8182 
 252   0.0000       2.904629        79.0390 
 253   0.0000       2.917476        79.3886 
 254   0.0000       2.939950        80.0001 
 255   0.0000       2.946646        80.1823 
 256   0.0000       2.960674        80.5640 
 257   0.0000       2.991651        81.4070 
 258   0.0000       3.003309        81.7242 
 259   0.0000       3.014201        82.0206 
 260   0.0000       3.048515        82.9543 
 261   0.0000       3.056024        83.1586 
 262   0.0000       3.095700        84.2383 
 263   0.0000       3.104063        84.4659 
 264   0.0000       3.105281        84.4990 
 265   0.0000       3.120817        84.9217 
 266   0.0000       3.133099        85.2560 
 267   0.0000       3.171224        86.2934 
 268   0.0000       3.179975        86.5315 
 269   0.0000       3.183842        86.6367 
 270   0.0000       3.193406        86.8970 
 271   0.0000       3.202233        87.1372 
 272   0.0000       3.217529        87.5534 
 273   0.0000       3.224191        87.7347 
 274   0.0000       3.246787        88.3496 
 275   0.0000       3.254304        88.5541 
 276   0.0000       3.268773        88.9478 
 277   0.0000       3.279036        89.2271 
 278   0.0000       3.315849        90.2288 
 279   0.0000       3.327797        90.5540 
 280   0.0000       3.340548        90.9009 
 281   0.0000       3.357513        91.3626 
 282   0.0000       3.363596        91.5281 
 283   0.0000       3.375382        91.8488 
 284   0.0000       3.394858        92.3788 
 285   0.0000       3.413077        92.8746 
 286   0.0000       3.438383        93.5632 
 287   0.0000       3.447853        93.8208 
 288   0.0000       3.511788        95.5606 
 289   0.0000       3.518672        95.7479 
 290   0.0000       3.542378        96.3930 
 291   0.0000       3.561842        96.9226 
 292   0.0000       3.568439        97.1022 
 293   0.0000       3.574462        97.2661 
 294   0.0000       3.631056        98.8060 
 295   0.0000       3.649540        99.3090 
 296   0.0000       3.671582        99.9088 
 297   0.0000       3.696608       100.5898 
 298   0.0000       3.763857       102.4197 
 299   0.0000       3.769593       102.5758 
 300   0.0000       3.782643       102.9310 
 301   0.0000       3.829810       104.2144 
 302   0.0000       3.836917       104.4078 
 303   0.0000       3.877352       105.5081 
 304   0.0000       3.893522       105.9481 
 305   0.0000       3.902619       106.1957 
 306   0.0000       3.938991       107.1854 
 307   0.0000       3.950937       107.5105 
 308   0.0000       3.988371       108.5291 
 309   0.0000       4.015778       109.2749 
 310   0.0000       4.025438       109.5377 
 311   0.0000       4.071780       110.7988 
 312   0.0000       4.104398       111.6864 
 313   0.0000       4.130879       112.4069 
 314   0.0000       4.172000       113.5259 
 315   0.0000       4.181183       113.7758 
 316   0.0000       4.208787       114.5269 
 317   0.0000       4.273635       116.2915 
 318   0.0000       4.336039       117.9896 
 319   0.0000       4.339911       118.0950 
 320   0.0000       4.384114       119.2978 
 321   0.0000       4.394307       119.5752 
 322   0.0000       4.400619       119.7469 
 323   0.0000       4.422295       120.3368 
 324   0.0000       4.487199       122.1029 
 325   0.0000       4.490317       122.1877 
 326   0.0000       4.533878       123.3731 
 327   0.0000       4.549617       123.8014 
 328   0.0000       4.560751       124.1043 
 329   0.0000       4.644967       126.3960 
 330   0.0000       4.720507       128.4515 
 331   0.0000       4.733645       128.8090 
 332   0.0000       4.752789       129.3300 
 333   0.0000       4.795527       130.4929 
 334   0.0000       4.842653       131.7753 
 335   0.0000       4.895451       133.2120 
 336   0.0000       4.932790       134.2280 
 337   0.0000       4.998106       136.0054 
 338   0.0000       5.049503       137.4040 
 339   0.0000       5.146058       140.0314 
 340   0.0000       5.157868       140.3527 
 341   0.0000       5.161909       140.4627 
 342   0.0000       5.162766       140.4860 
 343   0.0000       5.170449       140.6951 
 344   0.0000       5.183871       141.0603 
 345   0.0000       5.184681       141.0823 
 346   0.0000       5.223518       142.1391 
 347   0.0000       5.259691       143.1235 
 348   0.0000       5.290359       143.9580 
 349   0.0000       5.299349       144.2026 
 350   0.0000       5.316673       144.6740 
 351   0.0000       5.391763       146.7173 
 352   0.0000       5.400871       146.9652 
 353   0.0000       5.438731       147.9954 
 354   0.0000       5.461843       148.6243 
 355   0.0000       5.491316       149.4263 
 356   0.0000       5.510176       149.9395 
 357   0.0000       5.523950       150.3143 
 358   0.0000       5.620541       152.9427 
 359   0.0000       5.653537       153.8406 
 360   0.0000       5.655545       153.8952 
 361   0.0000       5.740657       156.2112 
 362   0.0000       5.787129       157.4758 
 363   0.0000       5.919567       161.0796 
 364   0.0000       5.953786       162.0108 
 365   0.0000       5.958567       162.1409 
 366   0.0000       5.966664       162.3612 
 367   0.0000       6.157688       167.5592 
 368   0.0000       6.186110       168.3326 
 369   0.0000       6.262938       170.4232 
 370   0.0000       6.281946       170.9404 
 371   0.0000       6.303691       171.5321 
 372   0.0000       6.325575       172.1277 
 373   0.0000       6.347873       172.7344 
 374   0.0000       6.367234       173.2613 
 375   0.0000       6.396052       174.0454 
 376   0.0000       6.410221       174.4310 
 377   0.0000       6.423321       174.7874 
 378   0.0000       6.431756       175.0170 
 379   0.0000       6.451017       175.5411 
 380   0.0000       6.478179       176.2802 
 381   0.0000       6.533108       177.7749 
 382   0.0000       6.636847       180.5978 
 383   0.0000       6.697121       182.2379 
 384   0.0000       6.719678       182.8517 
 385   0.0000       6.754340       183.7949 
 386   0.0000       6.843564       186.2228 
 387   0.0000       6.861165       186.7018 
 388   0.0000       6.867416       186.8719 
 389   0.0000       6.877776       187.1538 
 390   0.0000       6.907703       187.9682 
 391   0.0000       6.950397       189.1299 
 392   0.0000       7.063659       192.2119 
 393   0.0000       7.093220       193.0163 
 394   0.0000       7.110383       193.4834 
 395   0.0000       7.138783       194.2562 
 396   0.0000       7.163399       194.9260 
 397   0.0000       7.243747       197.1124 
 398   0.0000       7.250057       197.2841 
 399   0.0000       7.433030       202.2630 
 400   0.0000       7.464022       203.1064 
 401   0.0000       7.574593       206.1151 
 402   0.0000      22.311397       607.1240 
 403   0.0000      22.369061       608.6931 
 404   0.0000      22.410147       609.8111 
 405   0.0000      22.791380       620.1850 
 406   0.0000      23.306373       634.1987 
 407   0.0000      32.379272       881.0848 
 408   0.0000      43.718371      1189.6374 
 409   0.0000      43.802892      1191.9373 
 410   0.0000      43.900531      1194.5942 
 411   0.0000      43.965841      1196.3713 
 412   0.0000      44.081667      1199.5231 

                    ********************************
                    * MULLIKEN POPULATION ANALYSIS *
                    ********************************

-----------------------
MULLIKEN ATOMIC CHARGES
-----------------------
   0 C :   -0.129365
   1 H :    0.285069
   2 N :    0.436488
   3 O :   -0.477273
   4 O :   -0.480920
   5 C :    0.351344
   6 O :   -0.456078
   7 O :   -0.468063
   8 C :   -0.349383
   9 H :    0.122040
  10 H :    0.137323
  11 H :    0.136218
  12 C :   -0.346744
  13 H :    0.118270
  14 H :    0.109025
  15 H :    0.117850
  16 C :   -0.340233
  17 H :    0.105855
  18 H :    0.116180
  19 H :    0.115836
  20 H :    0.350601
  21 O :   -0.781674
  22 H :    0.327634
Sum of atomic charges:   -1.0000000

--------------------------------
MULLIKEN REDUCED ORBITAL CHARGES
--------------------------------
  0 C s       :     3.188732  s :     3.188732
      pz      :     0.805118  p :     2.773454
      px      :     1.091292
      py      :     0.877044
      dz2     :     0.033345  d :     0.155745
      dxz     :     0.025198
      dyz     :     0.046426
      dx2y2   :     0.026481
      dxy     :     0.024294
      f0      :     0.002035  f :     0.011434
      f+1     :     0.001255
      f-1     :     0.002506
      f+2     :     0.001446
      f-2     :     0.001841
      f+3     :     0.000928
      f-3     :     0.001423
  1 H s       :     0.652755  s :     0.652755
      pz      :     0.005728  p :     0.062176
      px      :     0.041521
      py      :     0.014927
  2 N s       :     3.310136  s :     3.310136
      pz      :     0.967528  p :     3.008240
      px      :     1.117034
      py      :     0.923678
      dz2     :     0.046753  d :     0.231376
      dxz     :     0.043896
      dyz     :     0.074966
      dx2y2   :     0.028586
      dxy     :     0.037175
      f0      :     0.003374  f :     0.013761
      f+1     :     0.001806
      f-1     :     0.002445
      f+2     :     0.001605
      f-2     :     0.001591
      f+3     :     0.001329
      f-3     :     0.001611
  3 O s       :     3.885391  s :     3.885391
      pz      :     1.857389  p :     4.551187
      px      :     1.493486
      py      :     1.200312
      dz2     :     0.005241  d :     0.037664
      dxz     :     0.001301
      dyz     :     0.007312
      dx2y2   :     0.012293
      dxy     :     0.011516
      f0      :     0.000303  f :     0.003030
      f+1     :     0.000122
      f-1     :     0.000566
      f+2     :     0.000313
      f-2     :     0.000227
      f+3     :     0.000765
      f-3     :     0.000734
  4 O s       :     3.877136  s :     3.877136
      pz      :     1.233394  p :     4.563152
      px      :     1.571554
      py      :     1.758203
      dz2     :     0.015045  d :     0.037604
      dxz     :     0.009668
      dyz     :     0.010190
      dx2y2   :     0.001310
      dxy     :     0.001391
      f0      :     0.000945  f :     0.003029
      f+1     :     0.000648
      f-1     :     0.000959
      f+2     :     0.000221
      f-2     :     0.000232
      f+3     :     0.000013
      f-3     :     0.000011
  5 C s       :     3.089151  s :     3.089151
      pz      :     0.779503  p :     2.291526
      px      :     0.749118
      py      :     0.762905
      dz2     :     0.053468  d :     0.242650
      dxz     :     0.056540
      dyz     :     0.075009
      dx2y2   :     0.028432
      dxy     :     0.029201
      f0      :     0.004037  f :     0.025329
      f+1     :     0.003896
      f-1     :     0.008016
      f+2     :     0.003135
      f-2     :     0.002732
      f+3     :     0.001742
      f-3     :     0.001770
  6 O s       :     3.763957  s :     3.763957
      pz      :     1.660273  p :     4.662815
      px      :     1.627978
      py      :     1.374564
      dz2     :     0.004407  d :     0.027696
      dxz     :     0.005474
      dyz     :     0.009682
      dx2y2   :     0.003038
      dxy     :     0.005096
      f0      :     0.000158  f :     0.001610
      f+1     :     0.000022
      f-1     :     0.000234
      f+2     :     0.000215
      f-2     :     0.000397
      f+3     :     0.000298
      f-3     :     0.000287
  7 O s       :     3.799079  s :     3.799079
      pz      :     1.360189  p :     4.640091
      px      :     1.542504
      py      :     1.737398
      dz2     :     0.010102  d :     0.027155
      dxz     :     0.008210
      dyz     :     0.007222
      dx2y2   :     0.000791
      dxy     :     0.000830
      f0      :     0.000589  f :     0.001739
      f+1     :     0.000447
      f-1     :     0.000455
      f+2     :     0.000109
      f-2     :     0.000109
      f+3     :     0.000013
      f-3     :     0.000015
  8 C s       :     3.267716  s :     3.267716
      pz      :     1.037013  p :     3.040705
      px      :     1.015940
      py      :     0.987752
      dz2     :     0.005266  d :     0.037331
      dxz     :     0.008645
      dyz     :     0.008792
      dx2y2   :     0.006875
      dxy     :     0.007754
      f0      :     0.000166  f :     0.003631
      f+1     :     0.000390
      f-1     :     0.000468
      f+2     :     0.000666
      f-2     :     0.001439
      f+3     :     0.000151
      f-3     :     0.000352
  9 H s       :     0.856433  s :     0.856433
      pz      :     0.006872  p :     0.021528
      px      :     0.005160
      py      :     0.009496
 10 H s       :     0.841016  s :     0.841016
      pz      :     0.009256  p :     0.021660
      px      :     0.006804
      py      :     0.005600
 11 H s       :     0.842233  s :     0.842233
      pz      :     0.006103  p :     0.021549
      px      :     0.009802
      py      :     0.005644
 12 C s       :     3.285488  s :     3.285488
      pz      :     1.049616  p :     3.005609
      px      :     0.975096
      py      :     0.980898
      dz2     :     0.005649  d :     0.051692
      dxz     :     0.004131
      dyz     :     0.013999
      dx2y2   :     0.023345
      dxy     :     0.004568
      f0      :     0.000203  f :     0.003956
      f+1     :     0.000138
      f-1     :     0.001164
      f+2     :     0.000090
      f-2     :     0.000612
      f+3     :     0.000634
      f-3     :     0.001114
 13 H s       :     0.860033  s :     0.860033
      pz      :     0.009903  p :     0.021697
      px      :     0.004887
      py      :     0.006907
 14 H s       :     0.869810  s :     0.869810
      pz      :     0.004586  p :     0.021165
      px      :     0.011650
      py      :     0.004929
 15 H s       :     0.860612  s :     0.860612
      pz      :     0.009355  p :     0.021538
      px      :     0.004324
      py      :     0.007859
 16 C s       :     3.277350  s :     3.277350
      pz      :     0.936053  p :     3.007749
      px      :     1.050383
      py      :     1.021313
      dz2     :     0.012317  d :     0.051177
      dxz     :     0.011694
      dyz     :     0.012014
      dx2y2   :     0.001877
      dxy     :     0.013275
      f0      :     0.000925  f :     0.003955
      f+1     :     0.000583
      f-1     :     0.001099
      f+2     :     0.000233
      f-2     :     0.000408
      f+3     :     0.000041
      f-3     :     0.000666
 17 H s       :     0.872975  s :     0.872975
      pz      :     0.004277  p :     0.021170
      px      :     0.010008
      py      :     0.006885
 18 H s       :     0.862048  s :     0.862048
      pz      :     0.004867  p :     0.021772
      px      :     0.009185
      py      :     0.007720
 19 H s       :     0.862638  s :     0.862638
      pz      :     0.009102  p :     0.021527
      px      :     0.004416
      py      :     0.008009
 20 H s       :     0.578209  s :     0.578209
      pz      :     0.018254  p :     0.071189
      px      :     0.026161
      py      :     0.026774
 21 O s       :     3.818011  s :     3.818011
      pz      :     1.798244  p :     4.945272
      px      :     1.673084
      py      :     1.473944
      dz2     :     0.001999  d :     0.017477
      dxz     :     0.001936
      dyz     :     0.006080
      dx2y2   :     0.003804
      dxy     :     0.003659
      f0      :     0.000172  f :     0.000913
      f+1     :     0.000068
      f-1     :     0.000069
      f+2     :     0.000289
      f-2     :     0.000069
      f+3     :     0.000040
      f-3     :     0.000207
 22 H s       :     0.626465  s :     0.626465
      pz      :     0.015293  p :     0.045902
      px      :     0.012636
      py      :     0.017973


                     *******************************
                     * LOEWDIN POPULATION ANALYSIS *
                     *******************************

----------------------
LOEWDIN ATOMIC CHARGES
----------------------
   0 C :   -0.372341
   1 H :    0.178874
   2 N :   -0.045828
   3 O :   -0.169392
   4 O :   -0.177097
   5 C :   -0.574223
   6 O :    0.053171
   7 O :   -0.014887
   8 C :   -0.270190
   9 H :    0.127139
  10 H :    0.138623
  11 H :    0.136059
  12 C :   -0.303471
  13 H :    0.119191
  14 H :    0.119735
  15 H :    0.127715
  16 C :   -0.304328
  17 H :    0.119108
  18 H :    0.118235
  19 H :    0.127384
  20 H :    0.150124
  21 O :   -0.421364
  22 H :    0.137761

-------------------------------
LOEWDIN REDUCED ORBITAL CHARGES
-------------------------------
  0 C s       :     2.774395  s :     2.774395
      pz      :     0.940178  p :     2.976859
      px      :     1.061320
      py      :     0.975361
      dz2     :     0.128811  d :     0.553025
      dxz     :     0.082301
      dyz     :     0.163886
      dx2y2   :     0.085477
      dxy     :     0.092552
      f0      :     0.011587  f :     0.068062
      f+1     :     0.008143
      f-1     :     0.014012
      f+2     :     0.011105
      f-2     :     0.010528
      f+3     :     0.005225
      f-3     :     0.007462
  1 H s       :     0.625852  s :     0.625852
      pz      :     0.014536  p :     0.195274
      px      :     0.135625
      py      :     0.045114
  2 N s       :     2.935505  s :     2.935505
      pz      :     1.139991  p :     3.301322
      px      :     1.052182
      py      :     1.109148
      dz2     :     0.168517  d :     0.739534
      dxz     :     0.122452
      dyz     :     0.236496
      dx2y2   :     0.101056
      dxy     :     0.111013
      f0      :     0.018468  f :     0.069467
      f+1     :     0.008420
      f-1     :     0.012768
      f+2     :     0.008697
      f-2     :     0.008329
      f+3     :     0.006190
      f-3     :     0.006597
  3 O s       :     3.515901  s :     3.515901
      pz      :     1.759775  p :     4.550763
      px      :     1.470128
      py      :     1.320860
      dz2     :     0.013240  d :     0.092745
      dxz     :     0.003219
      dyz     :     0.019481
      dx2y2   :     0.029233
      dxy     :     0.027572
      f0      :     0.000963  f :     0.009983
      f+1     :     0.000337
      f-1     :     0.001772
      f+2     :     0.001148
      f-2     :     0.000805
      f+3     :     0.002698
      f-3     :     0.002260
  4 O s       :     3.516214  s :     3.516214
      pz      :     1.346216  p :     4.558340
      px      :     1.520477
      py      :     1.691647
      dz2     :     0.039941  d :     0.092576
      dxz     :     0.020383
      dyz     :     0.025942
      dx2y2   :     0.003104
      dxy     :     0.003206
      f0      :     0.003364  f :     0.009966
      f+1     :     0.001926
      f-1     :     0.003162
      f+2     :     0.000695
      f-2     :     0.000726
      f+3     :     0.000050
      f-3     :     0.000042
  5 C s       :     2.770920  s :     2.770920
      pz      :     0.982954  p :     2.680555
      px      :     0.801315
      py      :     0.896285
      dz2     :     0.231978  d :     0.965761
      dxz     :     0.198708
      dyz     :     0.311669
      dx2y2   :     0.112811
      dxy     :     0.110595
      f0      :     0.023414  f :     0.156988
      f+1     :     0.024370
      f-1     :     0.050665
      f+2     :     0.019975
      f-2     :     0.014778
      f+3     :     0.012379
      f-3     :     0.011407
  6 O s       :     3.344530  s :     3.344530
      pz      :     1.607722  p :     4.530236
      px      :     1.524302
      py      :     1.398212
      dz2     :     0.010223  d :     0.067134
      dxz     :     0.008448
      dyz     :     0.023134
      dx2y2   :     0.009805
      dxy     :     0.015524
      f0      :     0.000579  f :     0.004929
      f+1     :     0.000141
      f-1     :     0.001138
      f+2     :     0.000851
      f-2     :     0.001059
      f+3     :     0.000709
      f-3     :     0.000452
  7 O s       :     3.411942  s :     3.411942
      pz      :     1.486701  p :     4.533907
      px      :     1.450205
      py      :     1.597000
      dz2     :     0.026980  d :     0.063237
      dxz     :     0.016146
      dyz     :     0.017165
      dx2y2   :     0.001563
      dxy     :     0.001382
      f0      :     0.002049  f :     0.005801
      f+1     :     0.001477
      f-1     :     0.001585
      f+2     :     0.000343
      f-2     :     0.000310
      f+3     :     0.000020
      f-3     :     0.000017
  8 C s       :     2.837631  s :     2.837631
      pz      :     1.068702  p :     3.187980
      px      :     1.063544
      py      :     1.055733
      dz2     :     0.023331  d :     0.220562
      dxz     :     0.053391
      dyz     :     0.060092
      dx2y2   :     0.033132
      dxy     :     0.050615
      f0      :     0.003778  f :     0.024018
      f+1     :     0.003451
      f-1     :     0.003269
      f+2     :     0.002706
      f-2     :     0.004284
      f+3     :     0.002776
      f-3     :     0.003754
  9 H s       :     0.811542  s :     0.811542
      pz      :     0.020925  p :     0.061320
      px      :     0.014819
      py      :     0.025576
 10 H s       :     0.799440  s :     0.799440
      pz      :     0.025615  p :     0.061937
      px      :     0.020685
      py      :     0.015637
 11 H s       :     0.802001  s :     0.802001
      pz      :     0.017456  p :     0.061940
      px      :     0.026950
      py      :     0.017534
 12 C s       :     2.830938  s :     2.830938
      pz      :     1.072801  p :     3.171443
      px      :     1.052627
      py      :     1.046014
      dz2     :     0.037819  d :     0.274579
      dxz     :     0.021181
      dyz     :     0.079843
      dx2y2   :     0.088503
      dxy     :     0.047234
      f0      :     0.001972  f :     0.026511
      f+1     :     0.003275
      f-1     :     0.004442
      f+2     :     0.002341
      f-2     :     0.003435
      f+3     :     0.003761
      f-3     :     0.007286
 13 H s       :     0.819018  s :     0.819018
      pz      :     0.028060  p :     0.061790
      px      :     0.014895
      py      :     0.018836
 14 H s       :     0.819544  s :     0.819544
      pz      :     0.013822  p :     0.060721
      px      :     0.031586
      py      :     0.015313
 15 H s       :     0.811769  s :     0.811769
      pz      :     0.027311  p :     0.060516
      px      :     0.012853
      py      :     0.020352
 16 C s       :     2.830384  s :     2.830384
      pz      :     1.035713  p :     3.172264
      px      :     1.072274
      py      :     1.064277
      dz2     :     0.062049  d :     0.275113
      dxz     :     0.048055
      dyz     :     0.078401
      dx2y2   :     0.015945
      dxy     :     0.070663
      f0      :     0.004634  f :     0.026567
      f+1     :     0.006147
      f-1     :     0.004463
      f+2     :     0.004642
      f-2     :     0.002691
      f+3     :     0.000658
      f-3     :     0.003330
 17 H s       :     0.820186  s :     0.820186
      pz      :     0.012669  p :     0.060706
      px      :     0.028656
      py      :     0.019381
 18 H s       :     0.819955  s :     0.819955
      pz      :     0.013402  p :     0.061809
      px      :     0.026903
      py      :     0.021504
 19 H s       :     0.812176  s :     0.812176
      pz      :     0.022933  p :     0.060440
      px      :     0.013500
      py      :     0.024008
 20 H s       :     0.616270  s :     0.616270
      pz      :     0.063535  p :     0.233606
      px      :     0.084995
      py      :     0.085076
 21 O s       :     3.544209  s :     3.544209
      pz      :     1.777162  p :     4.841701
      px      :     1.608222
      py      :     1.456317
      dz2     :     0.003739  d :     0.033138
      dxz     :     0.002603
      dyz     :     0.009749
      dx2y2   :     0.007431
      dxy     :     0.009616
      f0      :     0.000365  f :     0.002317
      f+1     :     0.000190
      f-1     :     0.000077
      f+2     :     0.000598
      f-2     :     0.000248
      f+3     :     0.000102
      f-3     :     0.000737
 22 H s       :     0.692128  s :     0.692128
      pz      :     0.055934  p :     0.170111
      px      :     0.040310
      py      :     0.073868


                      *****************************
                      * MAYER POPULATION ANALYSIS *
                      *****************************

  NA   - Mulliken gross atomic population
  ZA   - Total nuclear charge
  QA   - Mulliken gross atomic charge
  VA   - Mayer's total valence
  BVA  - Mayer's bonded valence
  FA   - Mayer's free valence

  ATOM       NA         ZA         QA         VA         BVA        FA
  0 C      6.1294     6.0000    -0.1294     3.4773     3.4773    -0.0000
  1 H      0.7149     1.0000     0.2851     1.0072     1.0072    -0.0000
  2 N      6.5635     7.0000     0.4365     4.0306     4.0306    -0.0000
  3 O      8.4773     8.0000    -0.4773     1.7625     1.7625     0.0000
  4 O      8.4809     8.0000    -0.4809     1.7565     1.7565    -0.0000
  5 C      5.6487     6.0000     0.3513     4.2328     4.2328     0.0000
  6 O      8.4561     8.0000    -0.4561     1.9403     1.9403     0.0000
  7 O      8.4681     8.0000    -0.4681     1.9896     1.9896    -0.0000
  8 C      6.3494     6.0000    -0.3494     3.7909     3.7909     0.0000
  9 H      0.8780     1.0000     0.1220     0.9869     0.9869     0.0000
 10 H      0.8627     1.0000     0.1373     0.9749     0.9749    -0.0000
 11 H      0.8638     1.0000     0.1362     0.9734     0.9734     0.0000
 12 C      6.3467     6.0000    -0.3467     3.8678     3.8678    -0.0000
 13 H      0.8817     1.0000     0.1183     0.9866     0.9866     0.0000
 14 H      0.8910     1.0000     0.1090     0.9735     0.9735    -0.0000
 15 H      0.8822     1.0000     0.1178     0.9696     0.9696    -0.0000
 16 C      6.3402     6.0000    -0.3402     3.8644     3.8644    -0.0000
 17 H      0.8941     1.0000     0.1059     0.9737     0.9737    -0.0000
 18 H      0.8838     1.0000     0.1162     0.9922     0.9922    -0.0000
 19 H      0.8842     1.0000     0.1158     0.9717     0.9717    -0.0000
 20 H      0.6494     1.0000     0.3506     0.9742     0.9742    -0.0000
 21 O      8.7817     8.0000    -0.7817     1.6774     1.6774    -0.0000
 22 H      0.6724     1.0000     0.3276     0.9121     0.9121     0.0000

  Mayer bond orders larger than 0.100000
B(  0-C ,  1-H ) :   0.4481 B(  0-C ,  2-N ) :   1.0783 B(  0-C , 12-C ) :   0.9415 
B(  0-C , 16-C ) :   0.9493 B(  1-H , 21-O ) :   0.4799 B(  2-N ,  3-O ) :   1.4487 
B(  2-N ,  4-O ) :   1.4473 B(  3-O ,  4-O ) :   0.1210 B(  5-C ,  6-O ) :   1.3151 
B(  5-C ,  7-O ) :   1.9194 B(  5-C ,  8-C ) :   0.9714 B(  6-O , 20-H ) :   0.6291 
B(  8-C ,  9-H ) :   0.9766 B(  8-C , 10-H ) :   0.9479 B(  8-C , 11-H ) :   0.9507 
B( 12-C , 13-H ) :   0.9701 B( 12-C , 14-H ) :   0.9662 B( 12-C , 15-H ) :   0.9718 
B( 16-C , 17-H ) :   0.9619 B( 16-C , 18-H ) :   0.9718 B( 16-C , 19-H ) :   0.9715 
B( 20-H , 21-O ) :   0.3135 B( 21-O , 22-H ) :   0.8913 

-------
TIMINGS
-------

Total SCF time: 0 days 0 hours 0 min 27 sec 

Total time                  ....      27.225 sec
Sum of individual times     ....      25.427 sec  ( 93.4%)

Fock matrix formation       ....      19.413 sec  ( 71.3%)
[...]
     29      -0.000109   0.256396  -0.000157  -0.000058   0.061180   0.000138
     30      -0.000179   0.398829   0.000016   0.000173  -0.371275   0.000393
     31      -0.000130   0.249835   0.000018   0.000111  -0.239470   0.000258
     32       0.000251  -0.507575  -0.000027  -0.000229   0.503777  -0.000522
     33       0.000186  -0.460479   0.000350   0.000194  -0.569560   0.000478
     34       0.000110  -0.267173   0.000204   0.000118  -0.325917   0.000281
     35       0.000092  -0.235155   0.000192   0.000102  -0.315996   0.000270
     36      -0.055715  -0.000031  -0.019267   0.029541   0.000012   0.022204
     37      -0.001325  -0.000019  -0.037957   0.059831   0.000017   0.011404
     38       0.008807   0.000011   0.016606  -0.018011   0.000006   0.074684
     39      -0.076933   0.000002   0.063270  -0.118769  -0.000065  -0.211615
     40      -0.120786   0.000001   0.115482  -0.220605  -0.000118  -0.391968
     41      -0.170500   0.000021   0.191324  -0.352479  -0.000188  -0.577501
     42       0.751188   0.000404   0.188682  -0.271417  -0.000090  -0.044126
     43       0.287239   0.000143   0.066499  -0.093667  -0.000026  -0.016717
     44      -0.137352  -0.000062  -0.031742   0.047393   0.000015   0.025628
     45      -0.004513   0.000027  -0.018080   0.027434   0.000008  -0.008690
     46      -0.155366   0.000028   0.265803  -0.388879  -0.000031   0.272870
     47       0.201198  -0.000048  -0.357875   0.524594   0.000040  -0.347004
     48      -0.023199   0.000026   0.039596   0.027685  -0.000067  -0.032565
     49      -0.017023  -0.000025   0.034015   0.017854   0.000122   0.033242
     50      -0.009488  -0.000012  -0.046270  -0.029893  -0.000051  -0.005551
     51       0.366201   0.000090  -0.248076  -0.149481  -0.000114   0.030459
     52       0.233906   0.000035  -0.155853  -0.095428  -0.000032   0.031144
     53       0.009752  -0.000022  -0.014733  -0.009909  -0.000019  -0.000930
     54      -0.088547  -0.000379  -0.272106  -0.211348   0.000815   0.353173
     55       0.060480   0.000293   0.230509   0.175804  -0.000646  -0.276080
     56       0.022080   0.000093   0.063831   0.052462  -0.000235  -0.095053
     57       0.000541   0.000007   0.045923   0.029086   0.000054   0.006499
     58      -0.087862  -0.000067  -0.486550  -0.301050  -0.000833  -0.155503
     59       0.085542   0.000064   0.492827   0.304972   0.000849   0.160419
     60       0.001185  -0.000995   0.000125   0.000264  -0.001033  -0.000039
     61      -0.000999  -0.000021  -0.000100  -0.000442  -0.000353   0.000016
     62       0.000817  -0.001401   0.000093   0.000294  -0.000174  -0.000007
     63      -0.000462   0.000040  -0.000016  -0.000158   0.000011  -0.000017
     64      -0.000262  -0.000038  -0.000013  -0.000103  -0.000001  -0.000023
     65       0.000071   0.000023  -0.000010   0.000011  -0.000001  -0.000010
     66      -0.000173  -0.000030  -0.000179  -0.000322  -0.000000  -0.000055
     67      -0.000887   0.000092  -0.000477   0.000128   0.000044   0.000377
     68      -0.000281   0.000050  -0.000068   0.000132  -0.000009   0.000235
                 66         67         68    
      0      -0.000775   0.000005   0.000260
      1       0.000641   0.000002   0.000356
      2      -0.000846  -0.000002  -0.000153
      3       0.000486  -0.000037  -0.001560
      4      -0.000364  -0.000027  -0.003977
      5       0.000432   0.000008  -0.002150
      6       0.000234  -0.000001   0.000118
      7       0.000516  -0.000000  -0.000262
      8       0.000048   0.000004   0.000344
      9       0.000094   0.000002  -0.000090
     10      -0.000280   0.000002   0.000186
     11      -0.000368   0.000004   0.000003
     12      -0.000155  -0.000003   0.000002
     13       0.000132   0.000003  -0.000045
     14       0.000083  -0.000001  -0.000191
     15       0.000000  -0.000696  -0.000032
     16       0.000006  -0.000452  -0.000067
     17       0.000028  -0.002860  -0.000151
     18       0.000001   0.000159  -0.000320
     19       0.000003   0.000054   0.000390
     20      -0.000008   0.000416  -0.000151
     21      -0.000038   0.000124   0.000033
     22      -0.000008   0.000274   0.000008
     23      -0.000016   0.000952   0.000042
     24      -0.000082   0.011006   0.000009
     25      -0.000078  -0.061459   0.000005
     26       0.000016  -0.069006   0.000009
     27      -0.000109  -0.272118  -0.000048
     28       0.000227   0.673997   0.000047
     29       0.000208   0.531835  -0.000042
     30       0.000555  -0.137597  -0.000016
     31       0.000354  -0.098290  -0.000044
     32      -0.000724   0.167034   0.000084
     33       0.000654   0.284893   0.000119
     34       0.000380   0.153379   0.000036
     35       0.000361   0.137627   0.000080
     36      -0.011431   0.000003  -0.000079
     37      -0.003740   0.000001  -0.000045
     38      -0.045722  -0.000005  -0.000015
     39       0.119006   0.000006   0.000207
     40       0.221113   0.000012   0.000348
     41       0.325757   0.000010   0.000450
     42       0.012399  -0.000000   0.000584
     43       0.004962   0.000000   0.000437
     44      -0.012862  -0.000004  -0.000024
     45       0.007286   0.000012   0.000064
     46      -0.187265   0.000002  -0.000202
     47       0.237892  -0.000009   0.000070
     48      -0.050482   0.000035   0.000004
     49       0.058948  -0.000027  -0.000000
     50      -0.013517  -0.000001  -0.000020
     51       0.030103  -0.000036   0.000329
     52       0.039204  -0.000032   0.000294
     53      -0.002530  -0.000005   0.000007
     54       0.559691  -0.000320   0.000083
     55      -0.438027   0.000250   0.000070
     56      -0.150836   0.000089   0.000005
     57       0.015190   0.000007  -0.000126
     58      -0.310147   0.000074  -0.000276
     59       0.321840  -0.000080   0.000329
     60       0.000008  -0.003541   0.004587
     61      -0.000105   0.004301  -0.007434
     62       0.000153  -0.002501  -0.001160
     63       0.000017   0.000055   0.006938
     64       0.000063  -0.000051  -0.053484
     65      -0.000004   0.000034  -0.031083
     66       0.000244   0.000077  -0.110435
     67      -0.000339  -0.000108   0.855654
     68      -0.000385   0.000049   0.501680


-----------
IR SPECTRUM
-----------

 Mode   freq       eps      Int      T**2         TX        TY        TZ
       cm**-1   L/(mol*cm) km/mol    a.u.
----------------------------------------------------------------------------
  8:     16.99   0.001471    7.43  0.027018  ( 0.073800 -0.122968 -0.080316)
  9:     34.06   0.000028    0.14  0.000257  ( 0.012866  0.004888  0.008210)
 10:     60.99   0.000625    3.16  0.003197  (-0.045782 -0.030284  0.013556)
 11:     73.49   0.000580    2.93  0.002463  ( 0.014163  0.041845  0.022611)
 12:     83.94   0.000284    1.43  0.001056  ( 0.025997  0.019306 -0.002653)
 13:    107.78   0.001797    9.08  0.005202  ( 0.062867  0.034855 -0.005915)
 14:    124.75   0.000499    2.52  0.001249  (-0.015519 -0.022610 -0.022300)
 15:    155.33   0.000666    3.36  0.001338  (-0.013958 -0.005461  0.033361)
 16:    175.66   0.000193    0.98  0.000344  (-0.013322  0.005924  0.011453)
 17:    194.12   0.000096    0.49  0.000155  ( 0.006572 -0.007365 -0.007573)
 18:    242.90   0.013215   66.78  0.016978  ( 0.073387 -0.095118  0.050446)
 19:    306.97   0.037266  188.33  0.037885  (-0.047453  0.185114 -0.036958)
 20:    312.53   0.000163    0.83  0.000163  ( 0.002105 -0.006716  0.010656)
 21:    367.50   0.001058    5.34  0.000898  (-0.009564  0.013858 -0.024790)
 22:    437.49   0.014834   74.96  0.010581  (-0.002237 -0.061344  0.082540)
 23:    461.89   0.033511  169.35  0.022641  (-0.036737  0.131086 -0.064089)
 24:    500.09   0.003407   17.22  0.002126  ( 0.037094 -0.023929  0.013319)
 25:    560.15   0.003749   18.95  0.002089  ( 0.020430  0.016300  0.037492)
 26:    609.65   0.001330    6.72  0.000681  ( 0.020364  0.014956 -0.006525)
 27:    615.97   0.010877   54.97  0.005510  ( 0.074201  0.001019  0.001850)
 28:    640.72   0.002736   13.83  0.001333  ( 0.014794  0.025390 -0.021663)
 29:    664.15   0.010964   55.41  0.005152  (-0.062166  0.021783 -0.028507)
 30:    783.15   0.000678    3.43  0.000270  (-0.014995  0.006727  0.000007)
 31:    840.99   0.001463    7.39  0.000543  (-0.014254  0.013168 -0.012896)
 32:    903.70   0.005016   25.35  0.001732  ( 0.021486 -0.029569  0.019903)
 33:    934.63   0.000340    1.72  0.000114  (-0.008255 -0.000322 -0.006730)
 34:    964.10   0.001048    5.29  0.000339  (-0.005636  0.013772  0.010850)
 35:    992.33   0.000228    1.15  0.000072  ( 0.008037 -0.000702 -0.002561)
 36:   1012.12   0.001010    5.10  0.000311  (-0.015075 -0.007963 -0.004541)
 37:   1028.30   0.004267   21.56  0.001295  (-0.000267  0.024018  0.026792)
 38:   1063.63   0.002772   14.01  0.000813  ( 0.022024  0.014489 -0.010879)
 39:   1114.12   0.029396  148.56  0.008234  ( 0.050879 -0.045662  0.059667)
 40:   1155.11   0.018414   93.06  0.004975  ( 0.060425 -0.022513 -0.028577)
 41:   1202.94   0.019249   97.28  0.004994  ( 0.054527  0.029327 -0.034064)
 42:   1231.51   0.013884   70.16  0.003518  ( 0.037745 -0.021510  0.040382)
 43:   1262.70   0.010630   53.72  0.002627  (-0.013650  0.035679  0.034173)
 44:   1311.16   0.128335  648.55  0.030545  (-0.062741  0.157515  0.042391)
 45:   1361.21   0.047605  240.58  0.010914  ( 0.023780 -0.060063  0.082102)
 46:   1386.63   0.055492  280.44  0.012489  ( 0.031780 -0.081324 -0.069750)
 47:   1389.44   0.036594  184.93  0.008219  ( 0.041372 -0.079631  0.012890)
 48:   1409.23   0.063193  319.35  0.013994  (-0.034522  0.086287  0.073187)
 49:   1429.84   0.022077  111.57  0.004818  (-0.026546  0.035775 -0.053233)
 50:   1450.63   0.008376   42.33  0.001802  ( 0.006825  0.013661  0.039606)
 51:   1461.76   0.003043   15.38  0.000650  ( 0.022225  0.005321 -0.011285)
 52:   1467.66   0.000439    2.22  0.000093  ( 0.002164 -0.006264 -0.007035)
 53:   1475.95   0.002404   12.15  0.000508  (-0.003399 -0.018578 -0.012310)
 54:   1476.38   0.004242   21.44  0.000897  ( 0.029695  0.001520  0.003536)
 55:   1489.66   0.009514   48.08  0.001993  ( 0.004089 -0.025510  0.036408)
 56:   1546.25   0.000715    3.62  0.000144  (-0.009286 -0.001136  0.007540)
 57:   1653.41   0.170156  859.90  0.032115  (-0.051928  0.137309  0.102785)
 58:   1954.08   0.687490  3474.29  0.109791  (-0.213542  0.212989 -0.137209)
 59:   2998.07   0.008403   42.46  0.000875  ( 0.005462  0.019411  0.021633)
 60:   3001.24   0.019597   99.03  0.002038  (-0.043691  0.002493 -0.011070)
 61:   3045.63   0.000577    2.92  0.000059  ( 0.003443 -0.004244  0.005413)
 62:   3075.31   0.001514    7.65  0.000154  ( 0.006692 -0.001275 -0.010353)
 63:   3079.66   0.012855   64.96  0.001303  ( 0.017220  0.026520 -0.017401)
 64:   3103.36   0.001525    7.71  0.000153  ( 0.011437  0.004331 -0.001945)
 65:   3113.14   0.005437   27.47  0.000545  (-0.003696  0.013976  0.018330)
 66:   3114.84   0.005397   27.27  0.000541  (-0.015744  0.012101 -0.012099)
 67:   3144.53   0.003416   17.26  0.000339  ( 0.003574 -0.013561 -0.011930)
 68:   3783.41   0.009057   45.77  0.000747  ( 0.004996  0.025952  0.006971)

* The epsilon (eps) is given for a Dirac delta lineshape.
** The dipole moment derivative (T) already includes vibrational overlap.

The first frequency considered to be a vibration is 8
The total number of vibrations considered is 61


--------------------------
THERMOCHEMISTRY AT 298.15K
--------------------------

Temperature         ... 298.15 K
Pressure            ... 1.00 atm
Total Mass          ... 167.15 AMU

Throughout the following assumptions are being made:
  (1) The electronic state is orbitally nondegenerate
  (2) There are no thermally accessible electronically excited states
  (3) Hindered rotations indicated by low frequency modes are not
      treated as such but are treated as vibrations and this may
      cause some error
  (4) All equations used are the standard statistical mechanics
      equations for an ideal gas
  (5) All vibrations are strictly harmonic

freq.      16.99  E(vib)   ...       0.57 
freq.      34.06  E(vib)   ...       0.55 
freq.      60.99  E(vib)   ...       0.51 
freq.      73.49  E(vib)   ...       0.49 
freq.      83.94  E(vib)   ...       0.48 
freq.     107.78  E(vib)   ...       0.45 
freq.     124.75  E(vib)   ...       0.43 
freq.     155.33  E(vib)   ...       0.40 
freq.     175.66  E(vib)   ...       0.38 
freq.     194.12  E(vib)   ...       0.36 
freq.     242.90  E(vib)   ...       0.31 
freq.     306.97  E(vib)   ...       0.26 
freq.     312.53  E(vib)   ...       0.25 
freq.     367.50  E(vib)   ...       0.21 
freq.     437.49  E(vib)   ...       0.17 
freq.     461.89  E(vib)   ...       0.16 
freq.     500.09  E(vib)   ...       0.14 
freq.     560.15  E(vib)   ...       0.12 
freq.     609.65  E(vib)   ...       0.10 
freq.     615.97  E(vib)   ...       0.09 
freq.     640.72  E(vib)   ...       0.09 
freq.     664.15  E(vib)   ...       0.08 
freq.     783.15  E(vib)   ...       0.05 
freq.     840.99  E(vib)   ...       0.04 
freq.     903.70  E(vib)   ...       0.03 
freq.     934.63  E(vib)   ...       0.03 
freq.     964.10  E(vib)   ...       0.03 
freq.     992.33  E(vib)   ...       0.02 
freq.    1012.12  E(vib)   ...       0.02 
freq.    1028.30  E(vib)   ...       0.02 
freq.    1063.63  E(vib)   ...       0.02 
freq.    1114.12  E(vib)   ...       0.01 
freq.    1155.11  E(vib)   ...       0.01 
freq.    1202.94  E(vib)   ...       0.01 
freq.    1231.51  E(vib)   ...       0.01 
freq.    1262.70  E(vib)   ...       0.01 
freq.    1311.16  E(vib)   ...       0.01 
freq.    1361.21  E(vib)   ...       0.01 
freq.    1386.63  E(vib)   ...       0.00 
freq.    1389.44  E(vib)   ...       0.00 
freq.    1409.23  E(vib)   ...       0.00 
freq.    1429.84  E(vib)   ...       0.00 
freq.    1450.63  E(vib)   ...       0.00 
freq.    1461.76  E(vib)   ...       0.00 
freq.    1467.66  E(vib)   ...       0.00 
freq.    1475.95  E(vib)   ...       0.00 
freq.    1476.38  E(vib)   ...       0.00 
freq.    1489.66  E(vib)   ...       0.00 
freq.    1546.25  E(vib)   ...       0.00 
freq.    1653.41  E(vib)   ...       0.00 
freq.    1954.08  E(vib)   ...       0.00 
freq.    2998.07  E(vib)   ...       0.00 
freq.    3001.24  E(vib)   ...       0.00 
freq.    3045.63  E(vib)   ...       0.00 
freq.    3075.31  E(vib)   ...       0.00 
freq.    3079.66  E(vib)   ...       0.00 
freq.    3103.36  E(vib)   ...       0.00 
freq.    3113.14  E(vib)   ...       0.00 
freq.    3114.84  E(vib)   ...       0.00 
freq.    3144.53  E(vib)   ...       0.00 
freq.    3783.41  E(vib)   ...       0.00 

------------
INNER ENERGY
------------

The inner energy is: U= E(el) + E(ZPE) + E(vib) + E(rot) + E(trans)
    E(el)   - is the total energy from the electronic structure calculation
              = E(kin-el) + E(nuc-el) + E(el-el) + E(nuc-nuc)
    E(ZPE)  - the the zero temperature vibrational energy from the frequency calculation
    E(vib)  - the the finite temperature correction to E(ZPE) due to population
              of excited vibrational states
    E(rot)  - is the rotational thermal energy
    E(trans)- is the translational thermal energy

Summary of contributions to the inner energy U:
Electronic energy                ...   -628.67418176 Eh
Zero point energy                ...      0.17076897 Eh     107.16 kcal/mol
Thermal vibrational correction   ...      0.01112183 Eh       6.98 kcal/mol
Thermal rotational correction    ...      0.00141627 Eh       0.89 kcal/mol
Thermal translational correction ...      0.00141627 Eh       0.89 kcal/mol
-----------------------------------------------------------------------
Total thermal energy                   -628.48945842 Eh


Summary of corrections to the electronic energy:
(perhaps to be used in another calculation)
Total thermal correction                  0.01395437 Eh       8.76 kcal/mol
Non-thermal (ZPE) correction              0.17076897 Eh     107.16 kcal/mol
-----------------------------------------------------------------------
Total correction                          0.18472334 Eh     115.92 kcal/mol


--------
ENTHALPY
--------

The enthalpy is H = U + kB*T
                kB is Boltzmann's constant
Total free energy                 ...   -628.48945842 Eh 
Thermal Enthalpy correction       ...      0.00094421 Eh       0.59 kcal/mol
-----------------------------------------------------------------------
Total Enthalpy                    ...   -628.48851421 Eh


Note: Only C1 symmetry has been detected, increase convergence thresholds 
      if your molecule has a higher symmetry. Symmetry factor of 1.0 is   
      used for the rotational entropy correction. 
 

Note: Rotational entropy computed according to Herzberg 
Infrared and Raman Spectra, Chapter V,1, Van Nostrand Reinhold, 1945 
Point Group:  C1, Symmetry Number:   1  
Rotational constants in cm-1:     0.050548     0.018675     0.017668 

Vibrational entropy computed according to the QRRHO of S. Grimme
Chem.Eur.J. 2012 18 9955


-------
ENTROPY
-------

The entropy contributions are T*S = T*(S(el)+S(vib)+S(rot)+S(trans))
     S(el)   - electronic entropy
     S(vib)  - vibrational entropy
     S(rot)  - rotational entropy
     S(trans)- translational entropy
The entropies will be listed as multiplied by the temperature to get
units of energy

Electronic entropy                ...      0.00000000 Eh      0.00 kcal/mol
Vibrational entropy               ...      0.02059761 Eh     12.93 kcal/mol
Rotational entropy                ...      0.01470446 Eh      9.23 kcal/mol
Translational entropy             ...      0.01959877 Eh     12.30 kcal/mol
-----------------------------------------------------------------------
Final entropy term                ...      0.05490084 Eh     34.45 kcal/mol

In case the symmetry of your molecule has not been determined correctly
or in case you have a reason to use a different symmetry number we print 
out the resulting rotational entropy values for sn=1,12 :
 --------------------------------------------------------
|  sn= 1 | S(rot)=       0.01470446 Eh      9.23 kcal/mol|
|  sn= 2 | S(rot)=       0.01405000 Eh      8.82 kcal/mol|
|  sn= 3 | S(rot)=       0.01366717 Eh      8.58 kcal/mol|
|  sn= 4 | S(rot)=       0.01339555 Eh      8.41 kcal/mol|
|  sn= 5 | S(rot)=       0.01318486 Eh      8.27 kcal/mol|
|  sn= 6 | S(rot)=       0.01301272 Eh      8.17 kcal/mol|
|  sn= 7 | S(rot)=       0.01286717 Eh      8.07 kcal/mol|
|  sn= 8 | S(rot)=       0.01274109 Eh      8.00 kcal/mol|
|  sn= 9 | S(rot)=       0.01262988 Eh      7.93 kcal/mol|
|  sn=10 | S(rot)=       0.01253040 Eh      7.86 kcal/mol|
|  sn=11 | S(rot)=       0.01244041 Eh      7.81 kcal/mol|
|  sn=12 | S(rot)=       0.01235826 Eh      7.75 kcal/mol|
 --------------------------------------------------------


-------------------
GIBBS FREE ENERGY
-------------------

The Gibbs free energy is G = H - T*S

Total enthalpy                    ...   -628.48851421 Eh 
Total entropy correction          ...     -0.05490084 Eh    -34.45 kcal/mol
-----------------------------------------------------------------------
Final Gibbs free energy         ...   -628.54341505 Eh

For completeness - the Gibbs free energy minus the electronic energy
G-E(el)                           ...      0.13076671 Eh     82.06 kcal/mol



Timings for individual modules:

Sum of individual times         ...      866.628 sec (=  14.444 min)
GTO integral calculation        ...        8.774 sec (=   0.146 min)   1.0 %
SCF iterations                  ...       62.595 sec (=   1.043 min)   7.2 %
SCF Gradient evaluation         ...       16.568 sec (=   0.276 min)   1.9 %
Numerical frequency calculation ...      778.692 sec (=  12.978 min)  89.9 %
                             ****ORCA TERMINATED NORMALLY****
TOTAL RUN TIME: 0 days 0 hours 13 minutes 46 seconds 706 msec
