
                                 *****************
                                 * O   R   C   A *
                                 *****************

                                            #,                                       
                                            ###                                      
                                            ####                                     
                                            #####                                    
                                            ######                                   
                                           ########,                                 
                                     ,,################,,,,,                         
                               ,,#################################,,                 
                          ,,##########################################,,             
                       ,#########################################, ''#####,          
                    ,#############################################,,   '####,        
                  ,##################################################,,,,####,       
                ,###########''''           ''''###############################       
              ,#####''   ,,,,##########,,,,          '''####'''          '####       
            ,##' ,,,,###########################,,,                        '##       
           ' ,,###''''                  '''############,,,                           
         ,,##''                                '''############,,,,        ,,,,,,###''
      ,#''                                            '''#######################'''  
     '                                                          ''''####''''         
             ,#######,   #######,   ,#######,      ##                                
            ,#'     '#,  ##    ##  ,#'     '#,    #''#        ######   ,####,        
            ##       ##  ##   ,#'  ##            #'  '#       #        #'  '#        
            ##       ##  #######   ##           ,######,      #####,   #    #        
            '#,     ,#'  ##    ##  '#,     ,#' ,#      #,         ##   #,  ,#        
             '#######'   ##     ##  '#######'  #'      '#     #####' # '####'        



                  #######################################################
                  #                        -***-                        #
                  #          Department of theory and spectroscopy      #
                  #    Directorship and core code : Frank Neese         #
                  #        Max Planck Institute fuer Kohlenforschung    #
                  #                Kaiser Wilhelm Platz 1               #
                  #                 D-45470 Muelheim/Ruhr               #
                  #                      Germany                        #
                  #                                                     #
                  #                  All rights reserved                #
                  #                        -***-                        #
                  #######################################################


                         Program Version 5.0.4 -  RELEASE  -


 With contributions from (in alphabetic order):
   Daniel Aravena         : Magnetic Suceptibility
   Michael Atanasov       : Ab Initio Ligand Field Theory (pilot matlab implementation)
   Alexander A. Auer      : GIAO ZORA, VPT2 properties, NMR spectrum
   Ute Becker             : Parallelization
   Giovanni Bistoni       : ED, misc. LED, open-shell LED, HFLD
   Martin Brehm           : Molecular dynamics
   Dmytro Bykov           : SCF Hessian
   Vijay G. Chilkuri      : MRCI spin determinant printing, contributions to CSF-ICE
   Dipayan Datta          : RHF DLPNO-CCSD density
   Achintya Kumar Dutta   : EOM-CC, STEOM-CC
   Dmitry Ganyushin       : Spin-Orbit,Spin-Spin,Magnetic field MRCI
   Miquel Garcia          : C-PCM and meta-GGA Hessian, CC/C-PCM, Gaussian charge scheme
   Yang Guo               : DLPNO-NEVPT2, F12-NEVPT2, CIM, IAO-localization
   Andreas Hansen         : Spin unrestricted coupled pair/coupled cluster methods
   Benjamin Helmich-Paris : MC-RPA, TRAH-SCF, COSX integrals
   Lee Huntington         : MR-EOM, pCC
   Robert Izsak           : Overlap fitted RIJCOSX, COSX-SCS-MP3, EOM
   Marcus Kettner         : VPT2
   Christian Kollmar      : KDIIS, OOCD, Brueckner-CCSD(T), CCSD density, CASPT2, CASPT2-K
   Simone Kossmann        : Meta GGA functionals, TD-DFT gradient, OOMP2, MP2 Hessian
   Martin Krupicka        : Initial AUTO-CI
   Lucas Lang             : DCDCAS
   Marvin Lechner         : AUTO-CI (C++ implementation), FIC-MRCC
   Dagmar Lenk            : GEPOL surface, SMD
   Dimitrios Liakos       : Extrapolation schemes; Compound Job, initial MDCI parallelization
   Dimitrios Manganas     : Further ROCIS development; embedding schemes
   Dimitrios Pantazis     : SARC Basis sets
   Anastasios Papadopoulos: AUTO-CI, single reference methods and gradients
   Taras Petrenko         : DFT Hessian,TD-DFT gradient, ASA, ECA, R-Raman, ABS, FL, XAS/XES, NRVS
   Peter Pinski           : DLPNO-MP2, DLPNO-MP2 Gradient
   Christoph Reimann      : Effective Core Potentials
   Marius Retegan         : Local ZFS, SOC
   Christoph Riplinger    : Optimizer, TS searches, QM/MM, DLPNO-CCSD(T), (RO)-DLPNO pert. Triples
   Tobias Risthaus        : Range-separated hybrids, TD-DFT gradient, RPA, STAB
   Michael Roemelt        : Original ROCIS implementation
   Masaaki Saitow         : Open-shell DLPNO-CCSD energy and density
   Barbara Sandhoefer     : DKH picture change effects
   Avijit Sen             : IP-ROCIS
   Kantharuban Sivalingam : CASSCF convergence, NEVPT2, FIC-MRCI
   Bernardo de Souza      : ESD, SOC TD-DFT
   Georgi Stoychev        : AutoAux, RI-MP2 NMR, DLPNO-MP2 response
   Willem Van den Heuvel  : Paramagnetic NMR
   Boris Wezisla          : Elementary symmetry handling
   Frank Wennmohs         : Technical directorship


 We gratefully acknowledge several colleagues who have allowed us to
 interface, adapt or use parts of their codes:
   Stefan Grimme, W. Hujo, H. Kruse, P. Pracht,  : VdW corrections, initial TS optimization,
                  C. Bannwarth, S. Ehlert          DFT functionals, gCP, sTDA/sTD-DF
   Ed Valeev, F. Pavosevic, A. Kumar             : LibInt (2-el integral package), F12 methods
   Garnet Chan, S. Sharma, J. Yang, R. Olivares  : DMRG
   Ulf Ekstrom                                   : XCFun DFT Library
   Mihaly Kallay                                 : mrcc  (arbitrary order and MRCC methods)
   Jiri Pittner, Ondrej Demel                    : Mk-CCSD
   Frank Weinhold                                : gennbo (NPA and NBO analysis)
   Christopher J. Cramer and Donald G. Truhlar   : smd solvation model
   Lars Goerigk                                  : TD-DFT with DH, B97 family of functionals
   V. Asgeirsson, H. Jonsson                     : NEB implementation
   FAccTs GmbH                                   : IRC, NEB, NEB-TS, DLPNO-Multilevel, CI-OPT
                                                   MM, QMMM, 2- and 3-layer-ONIOM, Crystal-QMMM,
                                                   LR-CPCM, SF, NACMEs, symmetry and pop. for TD-DFT,
                                                   nearIR, NL-DFT gradient (VV10), updates on ESD,
                                                   ML-optimized integration grids
   S Lehtola, MJT Oliveira, MAL Marques          : LibXC Library
   Liviu Ungur et al                             : ANISO software


 Your calculation uses the libint2 library for the computation of 2-el integrals
 For citations please refer to: http://libint.valeyev.net

 Your ORCA version has been built with support for libXC version: 5.1.0
 For citations please refer to: https://tddft.org/programs/libxc/

 This ORCA versions uses:
   CBLAS   interface :  Fast vector & matrix operations
   LAPACKE interface :  Fast linear algebra routines
   SCALAPACK package :  Parallel linear algebra routines
   Shared memory     :  Shared parallel matrices
   BLAS/LAPACK       :  OpenBLAS 0.3.15  USE64BITINT DYNAMIC_ARCH NO_AFFINITY Prescott SINGLE_THREADED
        Core in use  :  Prescott
   Copyright (c) 2011-2014, The OpenBLAS Project


Your calculation utilizes the atom-pairwise dispersion correction
with the Becke-Johnson damping scheme (D3BJ)
Cite in your paper:
S.Grimme, S.Ehrlich, L.Goerigk, J Comput Chem, (2011), 32, 1456–1465 
S.Grimme, J.Antony, S.Ehrlich and H.Krieg, J.Chem.Phys., 132, (2010), 154104 
   

================================================================================

----- Orbital basis set information -----
Your calculation utilizes the basis: def2-TZVP
   F. Weigend and R. Ahlrichs, Phys. Chem. Chem. Phys. 7, 3297 (2005).

----- AuxJ basis set information -----
Your calculation utilizes the auxiliary basis: def2/J
   F. Weigend, Phys. Chem. Chem. Phys. 8, 1057 (2006).

================================================================================
                                        WARNINGS
                       Please study these warnings very carefully!
================================================================================


WARNING: Geometry Optimization
  ===> : Switching off AutoStart
         For restart on a previous wavefunction, please use MOREAD

INFO   : the flag for use of the SHARK integral package has been found!

================================================================================
                                       INPUT FILE
================================================================================
NAME = /home/rudenko/mop_saddle_orca_4_serv/for_orca/m-clc6h4chno2ch3_oh/orca/orca_start/start.inp
|  1> !  opt B3LYP def2-TZVP CPCM D3 
|  2> %pal nprocs 102 end
|  3> %cpcm epsilon 78.4 end 
|  4> *xyz -1 1 
|  5> C   0.88896399 3.27562149 1.95684653
|  6> C   1.38127259 1.97359172 1.87903971
|  7> C   0.50241992 0.89328412 1.7722359
|  8> C   -0.87694434 1.10897581 1.73760168
|  9> C   -1.33250299 2.4157431 1.81740849
| 10> C   -0.48502268 3.5097543 1.9274707
| 11> H   1.57890772 4.1192199 2.03998041
| 12> H   2.46430321 1.79968541 1.90239478
| 13> H   -1.56966546 0.2678311 1.64574444
| 14> Cl   -3.02909011 2.69004765 1.77700879
| 15> H   -0.87420179 4.52771779 1.98906783
| 16> C   1.06703892 -0.49940604 1.71138984
| 17> C   0.44624914 -1.42798674 2.74618955
| 18> H   0.92680897 -2.41733659 2.76317606
| 19> H   -0.62830048 -1.59213476 2.5845787
| 20> H   0.5467835 -1.00558991 3.75905726
| 21> N   0.81634451 -1.06874468 0.34376088
| 22> O   1.7729899 -1.47287178 -0.29871304
| 23> O   -0.32410303 -1.11560849 -0.08583272
| 24> H   2.19886469 -0.46790252 1.8622171
| 25> O   6.54596097 0.07100014 2.5736777
| 26> H   6.86811431 0.68490917 1.96909017
| 27> H   5.28182888 -0.05549475 2.22059855
| 28> H   4.1957937 -0.74635654 1.18318232
| 29> O   4.18898874 -0.15533578 1.9091176
| 30> *
| 31> 
| 32>                          ****END OF INPUT****
================================================================================

                       *****************************
                       * Geometry Optimization Run *
                       *****************************

Geometry optimization settings:
Update method            Update   .... BFGS
Choice of coordinates    CoordSys .... Z-matrix Internals
Initial Hessian          InHess   .... Almoef's Model

Convergence Tolerances:
Energy Change            TolE     ....  5.0000e-06 Eh
Max. Gradient            TolMAXG  ....  3.0000e-04 Eh/bohr
RMS Gradient             TolRMSG  ....  1.0000e-04 Eh/bohr
Max. Displacement        TolMAXD  ....  4.0000e-03 bohr
RMS Displacement         TolRMSD  ....  2.0000e-03 bohr
Strict Convergence                ....  False
------------------------------------------------------------------------------
                        ORCA OPTIMIZATION COORDINATE SETUP
------------------------------------------------------------------------------

The optimization will be done in new redundant internal coordinates
Making redundant internal coordinates   ...  (new redundants) done
Evaluating the initial hessian          ...  (Almloef) done
Evaluating the coordinates              ...  done
Calculating the B-matrix                .... done
Calculating the G-matrix                .... done
Diagonalizing the G-matrix              .... done
The first mode is                       ....   72
The number of degrees of freedom        ....   69

    -----------------------------------------------------------------
                    Redundant Internal Coordinates


    -----------------------------------------------------------------
         Definition                    Initial Value    Approx d2E/dq
    -----------------------------------------------------------------
      1. B(C   1,C   0)                  1.3942         0.615304   
      2. B(C   2,C   1)                  1.3967         0.609540   
      3. B(C   3,C   2)                  1.3966         0.609929   
      4. B(C   4,C   3)                  1.3862         0.633585   
      5. B(C   5,C   4)                  1.3882         0.628860   
      6. B(C   5,C   0)                  1.3941         0.615452   
      7. B(H   6,C   0)                  1.0930         0.356187   
      8. B(H   7,C   1)                  1.0972         0.350761   
      9. B(H   8,C   3)                  1.0935         0.355450   
     10. B(Cl  9,C   4)                  1.7191         0.418491   
     11. B(H  10,C   5)                  1.0916         0.358042   
     12. B(C  11,C   2)                  1.5040         0.410983   
     13. B(C  12,C  11)                  1.5226         0.383804   
     14. B(H  13,C  12)                  1.1000         0.347088   
     15. B(H  14,C  12)                  1.0990         0.348436   
     16. B(H  15,C  12)                  1.1020         0.344557   
     17. B(N  16,C  11)                  1.5025         0.370206   
     18. B(O  17,N  16)                  1.2212         0.931893   
     19. B(O  18,N  16)                  1.2196         0.937372   
     20. B(H  19,C  11)                  1.1423         0.297192   
     21. B(H  21,O  20)                  0.9199         0.602509   
     22. B(H  22,O  20)                  1.3186         0.139267   
     23. B(H  23,H  19)                  2.1275         0.001525   
     24. B(O  24,H  19)                  2.0151         0.010781   
     25. B(O  24,H   7)                  2.6070         0.001225   
     26. B(O  24,H  23)                  0.9361         0.567616   
     27. B(O  24,H  22)                  1.1407         0.267675   
     28. A(C   1,C   0,C   5)          120.2448         0.432899   
     29. A(C   5,C   0,H   6)          119.6118         0.351819   
     30. A(C   1,C   0,H   6)          120.1433         0.351804   
     31. A(C   0,C   1,H   7)          119.6973         0.350893   
     32. A(C   2,C   1,H   7)          120.0101         0.350336   
     33. A(C   0,C   1,C   2)          120.2926         0.432149   
     34. A(C   1,C   2,C   3)          120.2594         0.431468   
     35. A(C   3,C   2,C  11)          120.8501         0.402239   
     36. A(C   1,C   2,C  11)          118.8869         0.402194   
     37. A(C   2,C   3,H   8)          120.5942         0.351160   
     38. A(C   2,C   3,C   4)          117.9539         0.434480   
     39. A(C   4,C   3,H   8)          121.4513         0.353428   
     40. A(C   5,C   4,Cl  9)          118.5939         0.423978   
     41. A(C   3,C   4,Cl  9)          118.2555         0.424546   
     42. A(C   3,C   4,C   5)          123.1506         0.436879   
     43. A(C   0,C   5,H  10)          120.4524         0.352128   
     44. A(C   0,C   5,C   4)          118.0982         0.434600   
     45. A(C   4,C   5,H  10)          121.4493         0.353415   
     46. A(C   1,H   7,O  24)          140.5294         0.143788   
     47. A(C   2,C  11,H  19)          109.9436         0.319231   
     48. A(C  12,C  11,N  16)          108.6324         0.362202   
     49. A(C   2,C  11,N  16)          108.9700         0.366466   
     50. A(C   2,C  11,C  12)          112.5913         0.371061   
     51. A(N  16,C  11,H  19)          107.2159         0.312000   
     52. A(C  12,C  11,H  19)          109.3332         0.315693   
     53. A(H  14,C  12,H  15)          106.3566         0.287350   
     54. A(H  13,C  12,H  15)          106.8991         0.287176   
     55. A(C  11,C  12,H  15)          110.7129         0.323409   
     56. A(H  13,C  12,H  14)          107.1631         0.287679   
     57. A(C  11,C  12,H  14)          112.9418         0.324004   
     58. A(C  11,C  12,H  13)          112.3879         0.323798   
     59. A(O  17,N  16,O  18)          122.3111         0.490877   
     60. A(C  11,N  16,O  18)          119.4212         0.417859   
     61. A(C  11,N  16,O  17)          118.2675         0.417423   
     62. A(H  23,H  19,O  24)           25.9379         0.109929   
     63. A(C  11,H  19,O  24)          170.3832         0.175330   
     64. A(C  11,H  19,H  23)          152.1637         0.133859   
     65. A(H  21,O  20,H  22)          102.9310         0.267665   
     66. L(O  20,H  22,O  24,H   7, 2) 179.3735         0.237692   
     67. L(O  20,H  22,O  24,H   7, 1) 179.5917         0.237692   
     68. A(H  19,H  23,O  24)           70.3083         0.140330   
     69. A(H   7,O  24,H  19)           57.5137         0.113620   
     70. A(H  19,O  24,H  23)           83.7538         0.187781   
     71. A(H  19,O  24,H  22)          165.0348         0.172327   
     72. A(H   7,O  24,H  23)          118.4411         0.149382   
     73. A(H   7,O  24,H  22)          124.6694         0.139935   
     74. A(H  22,O  24,H  23)          105.0722         0.293362   
     75. D(C   2,C   1,C   0,H   6)   -179.9766         0.026174   
     76. D(H   7,C   1,C   0,H   6)      0.0452         0.026174   
     77. D(H   7,C   1,C   0,C   5)    179.9657         0.026174   
     78. D(C   2,C   1,C   0,C   5)     -0.0560         0.026174   
     79. D(C   3,C   2,C   1,H   7)   -179.7883         0.025658   
     80. D(C  11,C   2,C   1,H   7)      0.8947         0.025658   
     81. D(C  11,C   2,C   1,C   0)   -179.0835         0.025658   
     82. D(C   3,C   2,C   1,C   0)      0.2336         0.025658   
     83. D(H   8,C   3,C   2,C  11)     -1.2059         0.025693   
     84. D(H   8,C   3,C   2,C   1)    179.4906         0.025693   
     85. D(C   4,C   3,C   2,C   1)     -0.2458         0.025693   
     86. D(C   4,C   3,C   2,C  11)    179.0576         0.025693   
     87. D(Cl  9,C   4,C   3,C   2)   -179.9421         0.027854   
     88. D(C   5,C   4,C   3,H   8)   -179.6457         0.027854   
     89. D(C   5,C   4,C   3,C   2)      0.0883         0.027854   
     90. D(Cl  9,C   4,C   3,H   8)      0.3238         0.027854   
     91. D(H  10,C   5,C   4,Cl  9)      0.0695         0.027413   
     92. D(C   0,C   5,C   4,Cl  9)   -179.8854         0.027413   
     93. D(C   0,C   5,C   4,C   3)      0.0840         0.027413   
     94. D(H  10,C   5,C   0,H   6)     -0.1343         0.026187   
     95. D(H  10,C   5,C   0,C   1)    179.9448         0.026187   
     96. D(H  10,C   5,C   4,C   3)   -179.9610         0.027413   
     97. D(C   4,C   5,C   0,H   6)    179.8211         0.026187   
     98. D(C   4,C   5,C   0,C   1)     -0.0998         0.026187   
     99. D(O  24,H   7,C   1,C   2)     -3.1112         0.102855   
    100. D(O  24,H   7,C   1,C   0)    176.8671         0.102855   
    101. D(N  16,C  11,C   2,C   3)     68.6524         0.012508   
    102. D(N  16,C  11,C   2,C   1)   -112.0347         0.012508   
    103. D(H  19,C  11,C   2,C   1)      5.2020         0.012508   
    104. D(C  12,C  11,C   2,C   3)    -51.9412         0.012508   
    105. D(C  12,C  11,C   2,C   1)    127.3717         0.012508   
    106. D(H  19,C  11,C   2,C   3)   -174.1109         0.012508   
    107. D(H  15,C  12,C  11,H  19)     67.3837         0.011728   
    108. D(H  15,C  12,C  11,N  16)   -175.9173         0.011728   
    109. D(H  15,C  12,C  11,C   2)    -55.1300         0.011728   
    110. D(H  14,C  12,C  11,H  19)   -173.4735         0.011728   
    111. D(H  14,C  12,C  11,N  16)    -56.7745         0.011728   
    112. D(H  14,C  12,C  11,C   2)     64.0128         0.011728   
    113. D(H  13,C  12,C  11,H  19)    -52.0797         0.011728   
    114. D(H  13,C  12,C  11,N  16)     64.6193         0.011728   
    115. D(H  13,C  12,C  11,C   2)   -174.5934         0.011728   
    116. D(O  18,N  16,C  11,C  12)     67.0197         0.011760   
    117. D(O  18,N  16,C  11,C   2)    -55.9765         0.011760   
    118. D(O  17,N  16,C  11,H  19)      5.2200         0.011760   
    119. D(O  17,N  16,C  11,C  12)   -112.8294         0.011760   
    120. D(O  18,N  16,C  11,H  19)   -174.9309         0.011760   
    121. D(O  17,N  16,C  11,C   2)    124.1743         0.011760   
    122. D(O  24,H  19,C  11,N  16)     72.8480         0.083463   
    123. D(O  24,H  19,C  11,C  12)   -169.5594         0.083463   
    124. D(O  24,H  19,C  11,C   2)    -45.4765         0.083463   
    125. D(H  23,H  19,C  11,N  16)      3.4199         0.083463   
    126. D(H  23,H  19,C  11,C  12)    121.0125         0.083463   
    127. D(H  23,H  19,C  11,C   2)   -114.9046         0.083463   
    128. D(O  24,H  23,H  19,C  11)    159.0482         0.001521   
    129. D(H   7,O  24,H  19,H  23)    129.6181         0.001573   
    130. D(H   7,O  24,H  19,C  11)     41.4581         0.001573   
    131. D(H  23,O  24,H  19,C  11)    -88.1601         0.001573   
    132. D(H  22,O  24,H  19,H  23)   -127.1230         0.001573   
    133. D(H  22,O  24,H  19,C  11)    144.7169         0.001573   
    134. D(H  19,O  24,H   7,C   1)     -0.2525         0.001501   
    135. D(H  23,O  24,H   7,C   1)     60.3043         0.001501   
    136. D(H  23,O  24,O  20,H  21)     80.9547         0.001507   
    137. D(H  22,O  24,H   7,C   1)   -162.4576         0.001501   
    138. D(H   7,O  24,H  23,H  19)    -47.6429         0.481961   
    139. D(H  22,O  24,H  23,H  19)    167.6880         0.481961   
    140. D(H  19,O  24,O  20,H  21)   -153.3538         0.001507   
    141. D(H   7,O  24,O  20,H  21)    -60.6255         0.001507   
    -----------------------------------------------------------------

Number of atoms                         .... 25
Number of degrees of freedom            .... 141

         *************************************************************
         *                GEOMETRY OPTIMIZATION CYCLE   1            *
         *************************************************************
---------------------------------
CARTESIAN COORDINATES (ANGSTROEM)
---------------------------------
  C      0.888964    3.275621    1.956847
  C      1.381273    1.973592    1.879040
  C      0.502420    0.893284    1.772236
  C     -0.876944    1.108976    1.737602
  C     -1.332503    2.415743    1.817408
  C     -0.485023    3.509754    1.927471
  H      1.578908    4.119220    2.039980
  H      2.464303    1.799685    1.902395
  H     -1.569665    0.267831    1.645744
  Cl    -3.029090    2.690048    1.777009
  H     -0.874202    4.527718    1.989068
  C      1.067039   -0.499406    1.711390
  C      0.446249   -1.427987    2.746190
  H      0.926809   -2.417337    2.763176
  H     -0.628300   -1.592135    2.584579
  H      0.546783   -1.005590    3.759057
  N      0.816345   -1.068745    0.343761
  O      1.772990   -1.472872   -0.298713
  O     -0.324103   -1.115608   -0.085833
  H      2.198865   -0.467903    1.862217
  O      6.545961    0.071000    2.573678
  H      6.868114    0.684909    1.969090
  H      5.281829   -0.055495    2.220599
  H      4.195794   -0.746357    1.183182
  O      4.188989   -0.155336    1.909118

----------------------------
CARTESIAN COORDINATES (A.U.)
----------------------------
  NO LB      ZA    FRAG     MASS         X           Y           Z
   0 C     6.0000    0    12.011    1.679898    6.190028    3.697904
   1 C     6.0000    0    12.011    2.610227    3.729548    3.550870
   2 C     6.0000    0    12.011    0.949436    1.688062    3.349040
   3 C     6.0000    0    12.011   -1.657185    2.095661    3.283591
   4 C     6.0000    0    12.011   -2.518066    4.565093    3.434404
   5 C     6.0000    0    12.011   -0.916560    6.632474    3.642392
   6 H     1.0000    0     1.008    2.983703    7.784197    3.855004
   7 H     1.0000    0     1.008    4.656858    3.400913    3.595005
   8 H     1.0000    0     1.008   -2.966238    0.506127    3.110006
   9 Cl   17.0000    0    35.453   -5.724151    5.083453    3.358060
  10 H     1.0000    0     1.008   -1.652002    8.556147    3.758793
  11 C     6.0000    0    12.011    2.016411   -0.943741    3.234058
  12 C     6.0000    0    12.011    0.843289   -2.698504    5.189546
  13 H     1.0000    0     1.008    1.751415   -4.568104    5.221646
  14 H     1.0000    0     1.008   -1.187316   -3.008699    4.884146
  15 H     1.0000    0     1.008    1.033271   -1.900290    7.103589
  16 N     7.0000    0    14.007    1.542668   -2.019635    0.649614
  17 O     8.0000    0    15.999    3.350465   -2.783324   -0.564486
  18 O     8.0000    0    15.999   -0.612466   -2.108195   -0.162200
  19 H     1.0000    0     1.008    4.155252   -0.884208    3.519080
  20 O     8.0000    0    15.999   12.370074    0.134171    4.863546
  21 H     1.0000    0     1.008   12.978855    1.294291    3.721041
  22 H     1.0000    0     1.008    9.981210   -0.104870    4.196323
  23 H     1.0000    0     1.008    7.928901   -1.410409    2.235891
  24 O     8.0000    0    15.999    7.916041   -0.293542    3.607709

--------------------------------
INTERNAL COORDINATES (ANGSTROEM)
--------------------------------
 C      0   0   0     0.000000000000     0.00000000     0.00000000
 C      1   0   0     1.394167558380     0.00000000     0.00000000
 C      2   1   0     1.396729601610   120.29256818     0.00000000
 C      3   2   1     1.396555833504   120.25940781     0.23356712
 C      4   3   2     1.386197518655   117.95392226   359.75415247
 C      5   4   3     1.388235236418   123.15060829     0.08832294
 H      1   2   3     1.092973865161   120.14334064   180.02344234
 H      2   1   3     1.097152764117   119.69734326   180.02175873
 H      4   3   2     1.093537711190   120.59420624   179.49059004
 Cl     5   4   3     1.719093650055   118.25547616   180.05785860
 H      6   5   4     1.091560466973   121.44932526   180.03896291
 C      3   2   1     1.504022187316   118.88685958   180.91651615
 C     12   3   2     1.522646547030   112.59131549   127.37166244
 H     13  12   3     1.100017916866   112.38789219   185.40660442
 H     13  12   3     1.098962931654   112.94184669    64.01276869
 H     13  12   3     1.102010543278   110.71291801   304.86997621
 N     12   3   2     1.502465688937   108.96997908   247.96532007
 O     17  12   3     1.221172327333   118.26747703   124.17431648
 O     17  12   3     1.219576758282   119.42122958   304.02345196
 H     12   3   2     1.142265690532   109.94358883     5.20195988
 O     20  12   3     4.437774028710   174.34426520    11.95566155
 H     21  20  12     0.919887576294   108.58601999   294.37081418
 H     21  20  12     1.318596141481     6.44286581   265.27394072
 H     23  21  22     1.653177201436   146.92175977    80.15149420
 O     24  23  21     0.936127062412    41.78146631   181.03653260

---------------------------
INTERNAL COORDINATES (A.U.)
---------------------------
 C      0   0   0     0.000000000000     0.00000000     0.00000000
 C      1   0   0     2.634594870136     0.00000000     0.00000000
 C      2   1   0     2.639436430184   120.29256818     0.00000000
 C      3   2   1     2.639108056054   120.25940781     0.23356712
 C      4   3   2     2.619533677780   117.95392226   359.75415247
 C      5   4   3     2.623384406290   123.15060829     0.08832294
 H      1   2   3     2.065421276687   120.14334064   180.02344234
 H      2   1   3     2.073318251256   119.69734326   180.02175873
 H      4   3   2     2.066486791265   120.59420624   179.49059004
 Cl     5   4   3     3.248616197168   118.25547616   180.05785860
 H      6   5   4     2.062750341194   121.44932526   180.03896291
 C      3   2   1     2.842190033369   118.88685958   180.91651615
 C     12   3   2     2.877384972647   112.59131549   127.37166244
 H     13  12   3     2.078732605284   112.38789219   185.40660442
 H     13  12   3     2.076738972157   112.94184669    64.01276869
 H     13  12   3     2.082498123489   110.71291801   304.86997621
 N     12   3   2     2.839248677704   108.96997908   247.96532007
 O     17  12   3     2.307681260982   118.26747703   124.17431648
 O     17  12   3     2.304666072448   119.42122958   304.02345196
 H     12   3   2     2.158569327281   109.94358883     5.20195988
 O     20  12   3     8.386177558491   174.34426520    11.95566155
 H     21  20  12     1.738335593192   108.58601999   294.37081418
 H     21  20  12     2.491785588644     6.44286581   265.27394072
 H     23  21  22     3.124052161556   146.92175977    80.15149420
 O     24  23  21     1.769023774511    41.78146631   181.03653260

---------------------
BASIS SET INFORMATION
---------------------
There are 5 groups of distinct atoms

 Group   1 Type C   : 11s6p2d1f contracted to 5s3p2d1f pattern {62111/411/11/1}
 Group   2 Type H   : 5s1p contracted to 3s1p pattern {311/1}
 Group   3 Type Cl  : 14s9p3d1f contracted to 5s5p2d1f pattern {73211/51111/21/1}
 Group   4 Type N   : 11s6p2d1f contracted to 5s3p2d1f pattern {62111/411/11/1}
 Group   5 Type O   : 11s6p2d1f contracted to 5s3p2d1f pattern {62111/411/11/1}

Atom   0C    basis set group =>   1
Atom   1C    basis set group =>   1
Atom   2C    basis set group =>   1
Atom   3C    basis set group =>   1
Atom   4C    basis set group =>   1
Atom   5C    basis set group =>   1
Atom   6H    basis set group =>   2
Atom   7H    basis set group =>   2
Atom   8H    basis set group =>   2
Atom   9Cl   basis set group =>   3
Atom  10H    basis set group =>   2
Atom  11C    basis set group =>   1
Atom  12C    basis set group =>   1
Atom  13H    basis set group =>   2
Atom  14H    basis set group =>   2
Atom  15H    basis set group =>   2
Atom  16N    basis set group =>   4
Atom  17O    basis set group =>   5
Atom  18O    basis set group =>   5
Atom  19H    basis set group =>   2
Atom  20O    basis set group =>   5
Atom  21H    basis set group =>   2
Atom  22H    basis set group =>   2
Atom  23H    basis set group =>   2
Atom  24O    basis set group =>   5
---------------------------------
AUXILIARY/J BASIS SET INFORMATION
---------------------------------
There are 5 groups of distinct atoms

 Group   1 Type C   : 12s5p4d2f1g contracted to 6s4p3d1f1g pattern {711111/2111/211/2/1}
 Group   2 Type H   : 5s2p1d contracted to 3s1p1d pattern {311/2/1}
 Group   3 Type Cl  : 14s5p5d2f1g contracted to 8s4p3d1f1g pattern {71111111/2111/311/2/1}
 Group   4 Type N   : 12s5p4d2f1g contracted to 6s4p3d1f1g pattern {711111/2111/211/2/1}
 Group   5 Type O   : 12s5p4d2f1g contracted to 6s4p3d1f1g pattern {711111/2111/211/2/1}

Atom   0C    basis set group =>   1
Atom   1C    basis set group =>   1
Atom   2C    basis set group =>   1
Atom   3C    basis set group =>   1
Atom   4C    basis set group =>   1
Atom   5C    basis set group =>   1
Atom   6H    basis set group =>   2
Atom   7H    basis set group =>   2
Atom   8H    basis set group =>   2
Atom   9Cl   basis set group =>   3
Atom  10H    basis set group =>   2
Atom  11C    basis set group =>   1
Atom  12C    basis set group =>   1
Atom  13H    basis set group =>   2
Atom  14H    basis set group =>   2
Atom  15H    basis set group =>   2
Atom  16N    basis set group =>   4
Atom  17O    basis set group =>   5
Atom  18O    basis set group =>   5
Atom  19H    basis set group =>   2
Atom  20O    basis set group =>   5
Atom  21H    basis set group =>   2
Atom  22H    basis set group =>   2
Atom  23H    basis set group =>   2
Atom  24O    basis set group =>   5


           ************************************************************
           *        Program running with 102 parallel MPI-processes   *
           *              working on a common directory               *
           ************************************************************
------------------------------------------------------------------------------
                           ORCA GTO INTEGRAL CALCULATION
                           -- RI-GTO INTEGRALS CHOSEN --
------------------------------------------------------------------------------
------------------------------------------------------------------------------
                   ___                                                        
                  /   \      - P O W E R E D   B Y -                         
                 /     \                                                     
                 |  |  |   _    _      __       _____    __    __             
                 |  |  |  | |  | |    /  \     |  _  \  |  |  /  |          
                  \  \/   | |  | |   /    \    | | | |  |  | /  /          
                 / \  \   | |__| |  /  /\  \   | |_| |  |  |/  /          
                |  |  |   |  __  | /  /__\  \  |    /   |      \           
                |  |  |   | |  | | |   __   |  |    \   |  |\   \          
                \     /   | |  | | |  |  |  |  | |\  \  |  | \   \       
                 \___/    |_|  |_| |__|  |__|  |_| \__\ |__|  \__/        
                                                                              
                      - O R C A' S   B I G   F R I E N D -                    
                                      &                                       
                       - I N T E G R A L  F E E D E R -                       
                                                                              
 v1 FN, 2020, v2 2021                                                         
------------------------------------------------------------------------------


Reading SHARK input file /home/rudenko/mop_saddle_orca_4_serv/for_orca/m-clc6h4chno2ch3_oh/orca/orca_start/start.SHARKINP.tmp ... ok
----------------------
SHARK INTEGRAL PACKAGE
----------------------

Number of atoms                             ...     25
Number of basis functions                   ...    506
Number of shells                            ...    200
Maximum angular momentum                    ...      3
Integral batch strategy                     ... SHARK/LIBINT Hybrid
RI-J (if used) integral strategy            ... SPLIT-RIJ (Revised 2003 algorithm where possible)
Printlevel                                  ...      1
Contraction scheme used                     ... SEGMENTED contraction
Coulomb Range Separation                    ... NOT USED
Exchange Range Separation                   ... NOT USED
Finite Nucleus Model                        ... NOT USED
Auxiliary Coulomb fitting basis             ... AVAILABLE
   # of basis functions in Aux-J            ...    809
   # of shells in Aux-J                     ...    267
   Maximum angular momentum in Aux-J        ...      4
Auxiliary J/K fitting basis                 ... NOT available
Auxiliary Correlation fitting basis         ... NOT available
Auxiliary 'external' fitting basis          ... NOT available
Integral threshold                          ...     2.500000e-11
Primitive cut-off                           ...     2.500000e-12
Primitive pair pre-selection threshold      ...     2.500000e-12

Calculating pre-screening integrals         ... done (  0.1 sec) Dimension = 200
Organizing shell pair data                  ... done (  0.5 sec)
Shell pair information
Total number of shell pairs                 ...     20100
Shell pairs after pre-screening             ...     15261
Total number of primitive shell pairs       ...     62836
Primitive shell pairs kept                  ...     32690
          la=0 lb=0:   3964 shell pairs
          la=1 lb=0:   4411 shell pairs
          la=1 lb=1:   1254 shell pairs
          la=2 lb=0:   2147 shell pairs
          la=2 lb=1:   1205 shell pairs
          la=2 lb=2:    312 shell pairs
          la=3 lb=0:   1026 shell pairs
          la=3 lb=1:    584 shell pairs
          la=3 lb=2:    281 shell pairs
          la=3 lb=3:     77 shell pairs

Calculating one electron integrals          ... done (  0.1 sec)
Calculating RI/J V-Matrix + Cholesky decomp.... done (  0.1 sec)
Calculating Nuclear repulsion               ... done (  0.0 sec) ENN=    974.050249459235 Eh

SHARK setup successfully completed in   1.1 seconds

Maximum memory used throughout the entire GTOINT-calculation: 29.2 MB


           ************************************************************
           *        Program running with 102 parallel MPI-processes   *
           *              working on a common directory               *
           ************************************************************
-------------------------------------------------------------------------------
                                 ORCA SCF
-------------------------------------------------------------------------------

------------
SCF SETTINGS
------------
Hamiltonian:
 Density Functional     Method          .... DFT(GTOs)
 Exchange Functional    Exchange        .... B88
   X-Alpha parameter    XAlpha          ....  0.666667
   Becke's b parameter  XBeta           ....  0.004200
 Correlation Functional Correlation     .... LYP
 LDA part of GGA corr.  LDAOpt          .... VWN-5
 Gradients option       PostSCFGGA      .... off
 Hybrid DFT is turned on
   Fraction HF Exchange ScalHFX         ....  0.200000
   Scaling of DF-GGA-X  ScalDFX         ....  0.720000
   Scaling of DF-GGA-C  ScalDFC         ....  0.810000
   Scaling of DF-LDA-C  ScalLDAC        ....  1.000000
   Perturbative correction              ....  0.000000
   Density functional embedding theory  .... OFF
   NL short-range parameter             ....  4.800000
 RI-approximation to the Coulomb term is turned on
   Number of AuxJ basis functions       .... 809
   RIJ-COSX (HFX calculated with COS-X)).... on


General Settings:
 Integral files         IntName         .... /home/rudenko/mop_saddle_orca_4_serv/for_orca/m-clc6h4chno2ch3_oh/orca/orca_start/start
 Hartree-Fock type      HFTyp           .... RHF
 Total Charge           Charge          ....   -1
 Multiplicity           Mult            ....    1
 Number of Electrons    NEL             ....  116
 Basis Dimension        Dim             ....  506
 Nuclear Repulsion      ENuc            ....    974.0502494592 Eh

Convergence Acceleration:
 DIIS                   CNVDIIS         .... on
   Start iteration      DIISMaxIt       ....    12
   Startup error        DIISStart       ....  0.200000
   # of expansion vecs  DIISMaxEq       ....     5
   Bias factor          DIISBfac        ....   1.050
   Max. coefficient     DIISMaxC        ....  10.000
 Trust-Rad. Augm. Hess. CNVTRAH         .... auto
   Auto Start mean grad. ratio tolernc. ....  1.125000
   Auto Start start iteration           ....    20
   Auto Start num. interpolation iter.  ....    10
   Max. Number of Micro iterations      ....    16
   Max. Number of Macro iterations      .... Maxiter - #DIIS iter
   Number of Davidson start vectors     ....     2
   Converg. threshold I  (grad. norm)   ....   1.000e-05
   Converg. threshold II (energy diff.) ....   1.000e-08
   Grad. Scal. Fac. for Micro threshold ....   0.100
   Minimum threshold for Micro iter.    ....   0.010
   NR start threshold (gradient norm)   ....   0.001
   Initial trust radius                 ....   0.400
   Minimum AH scaling param. (alpha)    ....   1.000
   Maximum AH scaling param. (alpha)    .... 1000.000
   Orbital update algorithm             .... Taylor
   White noise on init. David. guess    .... on
   Maximum white noise                  ....   0.010
   Quad. conv. algorithm                .... NR
 SOSCF                  CNVSOSCF        .... on
   Start iteration      SOSCFMaxIt      ....   150
   Startup grad/error   SOSCFStart      ....  0.003300
 Level Shifting         CNVShift        .... on
   Level shift para.    LevelShift      ....    0.2500
   Turn off err/grad.   ShiftErr        ....    0.0010
 Zerner damping         CNVZerner       .... off
 Static damping         CNVDamp         .... on
   Fraction old density DampFac         ....    0.7000
   Max. Damping (<1)    DampMax         ....    0.9800
   Min. Damping (>=0)   DampMin         ....    0.0000
   Turn off err/grad.   DampErr         ....    0.1000
 Fernandez-Rico         CNVRico         .... off

SCF Procedure:
 Maximum # iterations   MaxIter         ....   125
 SCF integral mode      SCFMode         .... Direct
   Integral package                     .... SHARK and LIBINT hybrid scheme
 Reset frequency        DirectResetFreq ....    20
 Integral Threshold     Thresh          ....  2.500e-11 Eh
 Primitive CutOff       TCut            ....  2.500e-12 Eh

Convergence Tolerance:
 Convergence Check Mode ConvCheckMode   .... Total+1el-Energy
 Convergence forced     ConvForced      .... 0
 Energy Change          TolE            ....  1.000e-08 Eh
 1-El. energy change                    ....  1.000e-05 Eh
 Orbital Gradient       TolG            ....  1.000e-05
 Orbital Rotation angle TolX            ....  1.000e-05
 DIIS Error             TolErr          ....  5.000e-07


Diagonalization of the overlap matrix:
Smallest eigenvalue                        ... 8.031e-06
Time for diagonalization                   ...    0.085 sec
Threshold for overlap eigenvalues          ... 1.000e-08
Number of eigenvalues below threshold      ... 0
Time for construction of square roots      ...    0.173 sec
Total time needed                          ...    0.261 sec

Time for model grid setup =    0.181 sec

------------------------------
INITIAL GUESS: MODEL POTENTIAL
------------------------------
Loading Hartree-Fock densities                     ... done
Calculating cut-offs                               ... done
Initializing the effective Hamiltonian             ... done
Setting up the integral package (SHARK)            ... done
Starting the Coulomb interaction                   ... done (   0.0 sec)
Reading the grid                                   ... done
Mapping shells                                     ... done
Starting the XC term evaluation                    ... done (   0.1 sec)
  promolecular density results
     # of electrons  =    114.990302849
     EX              =   -111.239838575
     EC              =     -4.075969883
     EX+EC           =   -115.315808458
Transforming the Hamiltonian                       ... done (   0.2 sec)
Diagonalizing the Hamiltonian                      ... done (   0.1 sec)
Back transforming the eigenvectors                 ... done (   0.0 sec)
Now organizing SCF variables                       ... done
                      ------------------
                      INITIAL GUESS DONE (   0.7 sec)
                      ------------------
-------------------
DFT GRID GENERATION
-------------------

General Integration Accuracy     IntAcc      ... 4.388
Radial Grid Type                 RadialGrid  ... OptM3 with GC (2021)
Angular Grid (max. ang.)         AngularGrid ... 4 (Lebedev-302)
Angular grid pruning method      GridPruning ... 4 (adaptive)
Weight generation scheme         WeightScheme... Becke
Basis function cutoff            BFCut       ... 1.0000e-11
Integration weight cutoff        WCut        ... 1.0000e-14
Angular grids for H and He will be reduced by one unit
Partially contracted basis set               ... off
Rotationally invariant grid construction     ... off

Total number of grid points                  ...   120826
Total number of batches                      ...     1902
Average number of points per batch           ...       63
Average number of grid points per atom       ...     4833
Time for grid setup =    1.008 sec

--------------------
COSX GRID GENERATION
--------------------

GRIDX 1
-------
General Integration Accuracy     IntAcc      ... 3.816
Radial Grid Type                 RadialGrid  ... OptM3 with GC (2021)
Angular Grid (max. ang.)         AngularGrid ... 1 (Lebedev-50)
Angular grid pruning method      GridPruning ... 4 (adaptive)
Weight generation scheme         WeightScheme... Becke
Basis function cutoff            BFCut       ... 1.0000e-11
Integration weight cutoff        WCut        ... 1.0000e-14
Angular grids for H and He will be reduced by one unit
Partially contracted basis set               ... on
Rotationally invariant grid construction     ... off

Total number of grid points                  ...    15310
Total number of batches                      ...      251
Average number of points per batch           ...       60
Average number of grid points per atom       ...      612
UseSFitting                                  ... on

GRIDX 2
-------
General Integration Accuracy     IntAcc      ... 4.020
Radial Grid Type                 RadialGrid  ... OptM3 with GC (2021)
Angular Grid (max. ang.)         AngularGrid ... 2 (Lebedev-110)
Angular grid pruning method      GridPruning ... 4 (adaptive)
Weight generation scheme         WeightScheme... Becke
Basis function cutoff            BFCut       ... 1.0000e-11
Integration weight cutoff        WCut        ... 1.0000e-14
Angular grids for H and He will be reduced by one unit
Partially contracted basis set               ... on
Rotationally invariant grid construction     ... off

Total number of grid points                  ...    33447
Total number of batches                      ...      537
Average number of points per batch           ...       62
Average number of grid points per atom       ...     1338
UseSFitting                                  ... on

GRIDX 3
-------
General Integration Accuracy     IntAcc      ... 4.338
Radial Grid Type                 RadialGrid  ... OptM3 with GC (2021)
Angular Grid (max. ang.)         AngularGrid ... 3 (Lebedev-194)
Angular grid pruning method      GridPruning ... 4 (adaptive)
Weight generation scheme         WeightScheme... Becke
Basis function cutoff            BFCut       ... 1.0000e-11
Integration weight cutoff        WCut        ... 1.0000e-14
Angular grids for H and He will be reduced by one unit
Partially contracted basis set               ... on
Rotationally invariant grid construction     ... off

Total number of grid points                  ...    73908
Total number of batches                      ...     1170
Average number of points per batch           ...       63
Average number of grid points per atom       ...     2956
UseSFitting                                  ... on

Time for X-Grid setup             =    1.352 sec


--------------------
CPCM SOLVATION MODEL
--------------------
CPCM parameters:
  Epsilon                                         ...      78.4000
  Refrac                                          ...       1.3300
  Rsolv                                           ...       1.3000
  Surface type                                    ... GAUSSIAN VDW
  Epsilon function type                           ...         CPCM
Radii:
 Radius for C  used is    3.8550 Bohr (=   2.0400 Ang.)
 Radius for H  used is    2.4944 Bohr (=   1.3200 Ang.)
 Radius for Cl used is    3.9684 Bohr (=   2.1000 Ang.)
 Radius for N  used is    3.5149 Bohr (=   1.8600 Ang.)
 Radius for O  used is    3.4469 Bohr (=   1.8240 Ang.)
Calculating surface                               ...        done! (  0.0s)
GEPOL surface points                              ...         1435
GEPOL Volume                                      ...    1708.4560
GEPOL Surface-area                                ...     962.0191
Calculating surface distance matrix               ...        done! (  0.1s)
Performing Cholesky decomposition & store         ...        done! (  0.4s)
Overall time for CPCM initialization              ...                 0.6s
--------------
SCF ITERATIONS
--------------
ITER       Energy         Delta-E        Max-DP      RMS-DP      [F,P]     Damp
               ***  Starting incremental Fock matrix formation  ***
  0  -1126.6243694617   0.000000000000 0.44895513  0.00334987  0.4398460 0.7000
  1  -1126.9223264535  -0.297956991807 0.42219961  0.00286095  0.1697342 0.7000
                               ***Turning on DIIS***
  2  -1127.0221800737  -0.099853620151 0.45415048  0.00310457  0.0341475 0.0000
  3  -1127.1997247909  -0.177544717236 0.38135835  0.00253916  0.0983330 0.0000
  4  -1127.2322479727  -0.032523181846 0.10302147  0.00062271  0.0150573 0.0000
  5  -1127.2343126758  -0.002064703034 0.03288671  0.00020932  0.0046260 0.0000
                      *** Initiating the SOSCF procedure ***
                           *** Shutting down DIIS ***
                      *** Re-Reading the Fockian *** 
                      *** Removing any level shift *** 
ITER      Energy       Delta-E        Grad      Rot      Max-DP    RMS-DP
  6  -1127.23443267  -0.0001199960  0.000267  0.000267  0.013508  0.000097
               *** Restarting incremental Fock matrix formation ***
  7  -1127.23443843  -0.0000057607  0.000203  0.000504  0.004630  0.000045
  8  -1127.23443702   0.0000014123  0.000360  0.000295  0.004680  0.000033
  9  -1127.23444175  -0.0000047273  0.000061  0.000145  0.000506  0.000007
 10  -1127.23444160   0.0000001487  0.000097  0.000128  0.000390  0.000003
 11  -1127.23444181  -0.0000002096  0.000023  0.000061  0.000256  0.000003
 12  -1127.23444179   0.0000000188  0.000037  0.000038  0.000148  0.000002
 13  -1127.23444182  -0.0000000302  0.000004  0.000006  0.000306  0.000003
 14  -1127.23444182   0.0000000041  0.000004  0.000004  0.000085  0.000001
                  ***Gradient check signals convergence***
              ***Rediagonalizing the Fockian in SOSCF/NRSCF***

               *****************************************************
               *                     SUCCESS                       *
               *           SCF CONVERGED AFTER  15 CYCLES          *
               *****************************************************

Old exchange energy                            =    -22.517721193 Eh
New exchange energy                            =    -22.517724000 Eh
Exchange energy change after final integration =     -0.000002807 Eh
Total energy after final integration           =  -1127.234444639 Eh
Final COS-X integration done in                =     1.552 sec

----------------
TOTAL SCF ENERGY
----------------

Total Energy       :        -1127.23444464 Eh          -30673.60865 eV

Components:
Nuclear Repulsion  :          974.05024946 Eh           26505.25479 eV
Electronic Energy  :        -2101.28469410 Eh          -57178.86344 eV
One Electron Energy:        -3495.27778046 Eh          -95111.34377 eV
Two Electron Energy:         1393.99308636 Eh           37932.48033 eV
Max COSX asymmetry :            0.00000171 Eh               0.00005 eV
CPCM Dielectric    :           -0.11187565 Eh              -3.04429 eV

Virial components:
Potential Energy   :        -2251.23665056 Eh          -61259.26362 eV
Kinetic Energy     :         1124.00220592 Eh           30585.65497 eV
Virial Ratio       :            2.00287565


DFT components:
N(Alpha)           :       57.999949419597 electrons
N(Beta)            :       57.999949419597 electrons
N(Total)           :      115.999898839195 electrons
E(X)               :      -89.587379072254 Eh       
E(C)               :       -4.836122479151 Eh       
E(XC)              :      -94.423501551406 Eh       
DFET-embed. en.    :        0.000000000000 Eh       
CPCM Solvation Model Properties:
Surface-charge          :            0.96966249
Charge-correction       :           -0.00392632 Eh              -0.10684 eV
Free-energy (cav+disp)  :  This term is not implemented in the current solvation scheme

---------------
SCF CONVERGENCE
---------------

  Last Energy change         ...   -1.6454e-08  Tolerance :   1.0000e-08
  Last MAX-Density change    ...    2.2204e-15  Tolerance :   1.0000e-07
  Last RMS-Density change    ...    1.6809e-17  Tolerance :   5.0000e-09
  Last Orbital Gradient      ...    4.6953e-07  Tolerance :   1.0000e-05
  Last Orbital Rotation      ...    1.8141e-06  Tolerance :   1.0000e-05

             **** THE GBW FILE WAS UPDATED (/home/rudenko/mop_saddle_orca_4_serv/for_orca/m-clc6h4chno2ch3_oh/orca/orca_start/start.gbw) ****
             **** DENSITY /home/rudenko/mop_saddle_orca_4_serv/for_orca/m-clc6h4chno2ch3_oh/orca/orca_start/start.scfp WAS UPDATED ****
             **** ENERGY FILE WAS UPDATED (/home/rudenko/mop_saddle_orca_4_serv/for_orca/m-clc6h4chno2ch3_oh/orca/orca_start/start.en.tmp) ****
             **** THE GBW FILE WAS UPDATED (/home/rudenko/mop_saddle_orca_4_serv/for_orca/m-clc6h4chno2ch3_oh/orca/orca_start/start.gbw) ****
             **** DENSITY /home/rudenko/mop_saddle_orca_4_serv/for_orca/m-clc6h4chno2ch3_oh/orca/orca_start/start.scfp WAS UPDATED ****
----------------
ORBITAL ENERGIES
----------------

  NO   OCC          E(Eh)            E(eV) 
   0   2.0000    -101.526806     -2762.6848 
   1   2.0000     -19.167906      -521.5852 
   2   2.0000     -19.167506      -521.5744 
   3   2.0000     -19.047893      -518.3195 
   4   2.0000     -19.011392      -517.3263 
   5   2.0000     -14.551623      -395.9698 
   6   2.0000     -10.235452      -278.5208 
   7   2.0000     -10.230463      -278.3850 
   8   2.0000     -10.196323      -277.4561 
   9   2.0000     -10.186266      -277.1824 
  10   2.0000     -10.186062      -277.1768 
  11   2.0000     -10.183486      -277.1067 
  12   2.0000     -10.179585      -277.0006 
  13   2.0000     -10.173247      -276.8281 
  14   2.0000      -9.459636      -257.4098 
  15   2.0000      -7.220797      -196.4879 
  16   2.0000      -7.212857      -196.2718 
  17   2.0000      -7.212474      -196.2614 
  18   2.0000      -1.241662       -33.7873 
  19   2.0000      -1.063894       -28.9500 
  20   2.0000      -0.931631       -25.3510 
  21   2.0000      -0.902015       -24.5451 
  22   2.0000      -0.877895       -23.8887 
  23   2.0000      -0.861073       -23.4310 
  24   2.0000      -0.822957       -22.3938 
  25   2.0000      -0.753281       -20.4978 
  26   2.0000      -0.734042       -19.9743 
  27   2.0000      -0.700144       -19.0519 
  28   2.0000      -0.634911       -17.2768 
  29   2.0000      -0.607336       -16.5265 
  30   2.0000      -0.583337       -15.8734 
  31   2.0000      -0.547825       -14.9071 
  32   2.0000      -0.535645       -14.5756 
  33   2.0000      -0.529461       -14.4074 
  34   2.0000      -0.510188       -13.8829 
  35   2.0000      -0.481829       -13.1112 
  36   2.0000      -0.461676       -12.5628 
  37   2.0000      -0.455417       -12.3925 
  38   2.0000      -0.440859       -11.9964 
  39   2.0000      -0.428631       -11.6636 
  40   2.0000      -0.410460       -11.1692 
  41   2.0000      -0.405267       -11.0279 
  42   2.0000      -0.396303       -10.7840 
  43   2.0000      -0.375268       -10.2115 
  44   2.0000      -0.373271       -10.1572 
  45   2.0000      -0.362493        -9.8639 
  46   2.0000      -0.358647        -9.7593 
  47   2.0000      -0.339672        -9.2430 
  48   2.0000      -0.328584        -8.9412 
  49   2.0000      -0.326868        -8.8945 
  50   2.0000      -0.319577        -8.6961 
  51   2.0000      -0.315358        -8.5813 
  52   2.0000      -0.302958        -8.2439 
  53   2.0000      -0.264734        -7.2038 
  54   2.0000      -0.257001        -6.9934 
  55   2.0000      -0.250251        -6.8097 
  56   2.0000      -0.225951        -6.1484 
  57   2.0000      -0.218624        -5.9491 
  58   0.0000      -0.080928        -2.2022 
  59   0.0000      -0.027108        -0.7377 
  60   0.0000      -0.021284        -0.5792 
  61   0.0000       0.032541         0.8855 
  62   0.0000       0.050507         1.3744 
  63   0.0000       0.064617         1.7583 
  64   0.0000       0.082807         2.2533 
  65   0.0000       0.093565         2.5460 
  66   0.0000       0.099913         2.7188 
  67   0.0000       0.102885         2.7996 
  68   0.0000       0.109427         2.9777 
  69   0.0000       0.111750         3.0409 
  70   0.0000       0.129102         3.5130 
  71   0.0000       0.131390         3.5753 
  72   0.0000       0.137600         3.7443 
  73   0.0000       0.148660         4.0452 
  74   0.0000       0.154183         4.1955 
  75   0.0000       0.171833         4.6758 
  76   0.0000       0.179502         4.8845 
  77   0.0000       0.184340         5.0161 
  78   0.0000       0.204935         5.5766 
  79   0.0000       0.206168         5.6101 
  80   0.0000       0.215937         5.8760 
  81   0.0000       0.217696         5.9238 
  82   0.0000       0.226881         6.1737 
  83   0.0000       0.237432         6.4609 
  84   0.0000       0.244758         6.6602 
  85   0.0000       0.247321         6.7299 
  86   0.0000       0.254252         6.9186 
  87   0.0000       0.261826         7.1247 
  88   0.0000       0.267593         7.2816 
  89   0.0000       0.288932         7.8622 
  90   0.0000       0.293400         7.9838 
  91   0.0000       0.295041         8.0285 
  92   0.0000       0.305846         8.3225 
  93   0.0000       0.317861         8.6494 
  94   0.0000       0.323496         8.8028 
  95   0.0000       0.332057         9.0357 
  96   0.0000       0.337054         9.1717 
  97   0.0000       0.346281         9.4228 
  98   0.0000       0.354142         9.6367 
  99   0.0000       0.358865         9.7652 
 100   0.0000       0.362392         9.8612 
 101   0.0000       0.369608        10.0575 
 102   0.0000       0.381251        10.3744 
 103   0.0000       0.396067        10.7775 
 104   0.0000       0.397126        10.8064 
 105   0.0000       0.403776        10.9873 
 106   0.0000       0.408013        11.1026 
 107   0.0000       0.409322        11.1382 
 108   0.0000       0.414775        11.2866 
 109   0.0000       0.420144        11.4327 
 110   0.0000       0.425395        11.5756 
 111   0.0000       0.428078        11.6486 
 112   0.0000       0.429328        11.6826 
 113   0.0000       0.443944        12.0803 
 114   0.0000       0.449791        12.2394 
 115   0.0000       0.451844        12.2953 
 116   0.0000       0.466135        12.6842 
 117   0.0000       0.471026        12.8173 
 118   0.0000       0.475165        12.9299 
 119   0.0000       0.480355        13.0711 
 120   0.0000       0.487905        13.2766 
 121   0.0000       0.501656        13.6508 
 122   0.0000       0.505782        13.7630 
 123   0.0000       0.511828        13.9275 
 124   0.0000       0.513219        13.9654 
 125   0.0000       0.528518        14.3817 
 126   0.0000       0.530800        14.4438 
 127   0.0000       0.537539        14.6272 
 128   0.0000       0.545090        14.8326 
 129   0.0000       0.559304        15.2194 
 130   0.0000       0.566989        15.4286 
 131   0.0000       0.580977        15.8092 
 132   0.0000       0.583531        15.8787 
 133   0.0000       0.589588        16.0435 
 134   0.0000       0.603227        16.4146 
 135   0.0000       0.607705        16.5365 
 136   0.0000       0.618584        16.8325 
 137   0.0000       0.631010        17.1706 
 138   0.0000       0.635776        17.3003 
 139   0.0000       0.644305        17.5324 
 140   0.0000       0.654784        17.8176 
 141   0.0000       0.668673        18.1955 
 142   0.0000       0.678938        18.4749 
 143   0.0000       0.686004        18.6671 
 144   0.0000       0.696672        18.9574 
 145   0.0000       0.699954        19.0467 
 146   0.0000       0.712975        19.4010 
 147   0.0000       0.725251        19.7351 
 148   0.0000       0.732415        19.9300 
 149   0.0000       0.753593        20.5063 
 150   0.0000       0.775204        21.0944 
 151   0.0000       0.780991        21.2519 
 152   0.0000       0.788068        21.4444 
 153   0.0000       0.805221        21.9112 
 154   0.0000       0.821678        22.3590 
 155   0.0000       0.829604        22.5747 
 156   0.0000       0.843805        22.9611 
 157   0.0000       0.852192        23.1893 
 158   0.0000       0.859249        23.3814 
 159   0.0000       0.876474        23.8501 
 160   0.0000       0.884875        24.0787 
 161   0.0000       0.889622        24.2079 
 162   0.0000       0.903921        24.5970 
 163   0.0000       0.926621        25.2146 
 164   0.0000       0.931161        25.3382 
 165   0.0000       0.969256        26.3748 
 166   0.0000       0.980443        26.6792 
 167   0.0000       0.988377        26.8951 
 168   0.0000       0.997625        27.1468 
 169   0.0000       1.016986        27.6736 
 170   0.0000       1.033231        28.1156 
 171   0.0000       1.044576        28.4244 
 172   0.0000       1.052688        28.6451 
 173   0.0000       1.076698        29.2984 
 174   0.0000       1.087280        29.5864 
 175   0.0000       1.106794        30.1174 
 176   0.0000       1.125280        30.6204 
 177   0.0000       1.140024        31.0216 
 178   0.0000       1.157513        31.4975 
 179   0.0000       1.177263        32.0349 
 180   0.0000       1.188779        32.3483 
 181   0.0000       1.205143        32.7936 
 182   0.0000       1.220023        33.1985 
 183   0.0000       1.228433        33.4274 
 184   0.0000       1.235229        33.6123 
 185   0.0000       1.245718        33.8977 
 186   0.0000       1.253699        34.1149 
 187   0.0000       1.264706        34.4144 
 188   0.0000       1.272740        34.6330 
 189   0.0000       1.280224        34.8367 
 190   0.0000       1.294112        35.2146 
 191   0.0000       1.322141        35.9773 
 192   0.0000       1.333307        36.2811 
 193   0.0000       1.342021        36.5182 
 194   0.0000       1.354585        36.8601 
 195   0.0000       1.367365        37.2079 
 196   0.0000       1.378473        37.5101 
 197   0.0000       1.394943        37.9583 
 198   0.0000       1.404907        38.2295 
 199   0.0000       1.413382        38.4601 
 200   0.0000       1.441248        39.2183 
 201   0.0000       1.449352        39.4389 
 202   0.0000       1.473259        40.0894 
 203   0.0000       1.479900        40.2701 
 204   0.0000       1.491454        40.5845 
 205   0.0000       1.497246        40.7421 
 206   0.0000       1.510244        41.0958 
 207   0.0000       1.515719        41.2448 
 208   0.0000       1.525113        41.5004 
 209   0.0000       1.551798        42.2266 
 210   0.0000       1.556930        42.3662 
 211   0.0000       1.564987        42.5855 
 212   0.0000       1.585264        43.1372 
 213   0.0000       1.588490        43.2250 
 214   0.0000       1.594844        43.3979 
 215   0.0000       1.605457        43.6867 
 216   0.0000       1.619328        44.0642 
 217   0.0000       1.632937        44.4345 
 218   0.0000       1.645308        44.7711 
 219   0.0000       1.655071        45.0368 
 220   0.0000       1.659194        45.1490 
 221   0.0000       1.672602        45.5138 
 222   0.0000       1.682807        45.7915 
 223   0.0000       1.684555        45.8391 
 224   0.0000       1.713515        46.6271 
 225   0.0000       1.722568        46.8735 
 226   0.0000       1.725830        46.9622 
 227   0.0000       1.737893        47.2905 
 228   0.0000       1.748903        47.5901 
 229   0.0000       1.765192        48.0333 
 230   0.0000       1.771886        48.2155 
 231   0.0000       1.785844        48.5953 
 232   0.0000       1.800560        48.9957 
 233   0.0000       1.803611        49.0787 
 234   0.0000       1.816311        49.4243 
 235   0.0000       1.845659        50.2229 
 236   0.0000       1.849330        50.3228 
 237   0.0000       1.861927        50.6656 
 238   0.0000       1.894606        51.5548 
 239   0.0000       1.911252        52.0078 
 240   0.0000       1.913042        52.0565 
 241   0.0000       1.924741        52.3749 
 242   0.0000       1.946661        52.9713 
 243   0.0000       1.959166        53.3116 
 244   0.0000       1.964074        53.4452 
 245   0.0000       1.982836        53.9557 
 246   0.0000       1.993167        54.2368 
 247   0.0000       1.998244        54.3750 
 248   0.0000       2.011869        54.7457 
 249   0.0000       2.026931        55.1556 
 250   0.0000       2.042625        55.5827 
 251   0.0000       2.063679        56.1555 
 252   0.0000       2.075980        56.4903 
 253   0.0000       2.082201        56.6596 
 254   0.0000       2.086415        56.7742 
 255   0.0000       2.089686        56.8633 
 256   0.0000       2.117326        57.6154 
 257   0.0000       2.131933        58.0128 
 258   0.0000       2.137819        58.1730 
 259   0.0000       2.149909        58.5020 
 260   0.0000       2.161790        58.8253 
 261   0.0000       2.165938        58.9382 
 262   0.0000       2.178957        59.2924 
 263   0.0000       2.182256        59.3822 
 264   0.0000       2.186453        59.4964 
 265   0.0000       2.190402        59.6039 
 266   0.0000       2.194577        59.7175 
 267   0.0000       2.200706        59.8843 
 268   0.0000       2.207062        60.0572 
 269   0.0000       2.217008        60.3279 
 270   0.0000       2.239553        60.9413 
 271   0.0000       2.254973        61.3609 
 272   0.0000       2.263301        61.5875 
 273   0.0000       2.271262        61.8042 
 274   0.0000       2.282564        62.1117 
 275   0.0000       2.300724        62.6059 
 276   0.0000       2.319508        63.1170 
 277   0.0000       2.325571        63.2820 
 278   0.0000       2.342261        63.7362 
 279   0.0000       2.363524        64.3148 
 280   0.0000       2.379529        64.7503 
 281   0.0000       2.400078        65.3095 
 282   0.0000       2.418084        65.7994 
 283   0.0000       2.436672        66.3052 
 284   0.0000       2.446294        66.5670 
 285   0.0000       2.449260        66.6478 
 286   0.0000       2.464586        67.0648 
 287   0.0000       2.483977        67.5924 
 288   0.0000       2.493239        67.8445 
 289   0.0000       2.518559        68.5335 
 290   0.0000       2.529033        68.8185 
 291   0.0000       2.541080        69.1463 
 292   0.0000       2.555224        69.5312 
 293   0.0000       2.575271        70.0767 
 294   0.0000       2.597667        70.6861 
 295   0.0000       2.608964        70.9935 
 296   0.0000       2.613302        71.1116 
 297   0.0000       2.625601        71.4462 
 298   0.0000       2.633467        71.6603 
 299   0.0000       2.634422        71.6863 
 300   0.0000       2.656682        72.2920 
 301   0.0000       2.661584        72.4254 
 302   0.0000       2.670031        72.6552 
 303   0.0000       2.675916        72.8154 
 304   0.0000       2.681526        72.9680 
 305   0.0000       2.706494        73.6475 
 306   0.0000       2.716612        73.9228 
 307   0.0000       2.728060        74.2343 
 308   0.0000       2.732818        74.3637 
 309   0.0000       2.753887        74.9371 
 310   0.0000       2.758914        75.0739 
 311   0.0000       2.767838        75.3167 
 312   0.0000       2.769237        75.3548 
 313   0.0000       2.781613        75.6915 
 314   0.0000       2.793107        76.0043 
 315   0.0000       2.797588        76.1262 
 316   0.0000       2.800200        76.1973 
 317   0.0000       2.806669        76.3733 
 318   0.0000       2.817878        76.6784 
 319   0.0000       2.828922        76.9789 
 320   0.0000       2.845249        77.4232 
 321   0.0000       2.858960        77.7963 
 322   0.0000       2.896611        78.8208 
 323   0.0000       2.909901        79.1824 
 324   0.0000       2.923919        79.5639 
 325   0.0000       2.941679        80.0472 
 326   0.0000       2.946832        80.1874 
 327   0.0000       2.964662        80.6725 
 328   0.0000       2.976484        80.9942 
 329   0.0000       2.990323        81.3708 
 330   0.0000       2.998913        81.6046 
 331   0.0000       3.021938        82.2311 
 332   0.0000       3.033000        82.5321 
 333   0.0000       3.052010        83.0494 
 334   0.0000       3.064935        83.4011 
 335   0.0000       3.102333        84.4188 
 336   0.0000       3.103675        84.4553 
 337   0.0000       3.123169        84.9858 
 338   0.0000       3.131658        85.2168 
 339   0.0000       3.143555        85.5405 
 340   0.0000       3.148810        85.6835 
 341   0.0000       3.159548        85.9757 
 342   0.0000       3.168214        86.2115 
 343   0.0000       3.174351        86.3785 
 344   0.0000       3.196792        86.9891 
 345   0.0000       3.201953        87.1296 
 346   0.0000       3.205707        87.2317 
 347   0.0000       3.242595        88.2355 
 348   0.0000       3.254989        88.5728 
 349   0.0000       3.259986        88.7087 
 350   0.0000       3.267154        88.9038 
 351   0.0000       3.280117        89.2565 
 352   0.0000       3.299563        89.7857 
 353   0.0000       3.312213        90.1299 
 354   0.0000       3.325659        90.4958 
 355   0.0000       3.336354        90.7868 
 356   0.0000       3.352172        91.2172 
 357   0.0000       3.376359        91.8754 
 358   0.0000       3.378774        91.9411 
 359   0.0000       3.404737        92.6476 
 360   0.0000       3.407845        92.7322 
 361   0.0000       3.424120        93.1750 
 362   0.0000       3.434043        93.4451 
 363   0.0000       3.437294        93.5335 
 364   0.0000       3.452764        93.9545 
 365   0.0000       3.467908        94.3666 
 366   0.0000       3.488542        94.9281 
 367   0.0000       3.494684        95.0952 
 368   0.0000       3.507408        95.4414 
 369   0.0000       3.538501        96.2875 
 370   0.0000       3.550307        96.6088 
 371   0.0000       3.557135        96.7946 
 372   0.0000       3.574987        97.2803 
 373   0.0000       3.619174        98.4827 
 374   0.0000       3.627014        98.6961 
 375   0.0000       3.654017        99.4308 
 376   0.0000       3.681716       100.1846 
 377   0.0000       3.713730       101.0557 
 378   0.0000       3.736590       101.6778 
 379   0.0000       3.751272       102.0773 
 380   0.0000       3.758297       102.2685 
 381   0.0000       3.769470       102.5725 
 382   0.0000       3.798554       103.3639 
 383   0.0000       3.813978       103.7836 
 384   0.0000       3.874805       105.4388 
 385   0.0000       3.888052       105.7993 
 386   0.0000       3.904974       106.2597 
 387   0.0000       3.916975       106.5863 
 388   0.0000       3.935773       107.0978 
 389   0.0000       3.964071       107.8678 
 390   0.0000       3.987823       108.5142 
 391   0.0000       4.003147       108.9312 
 392   0.0000       4.007195       109.0413 
 393   0.0000       4.036294       109.8331 
 394   0.0000       4.058682       110.4423 
 395   0.0000       4.095889       111.4548 
 396   0.0000       4.110649       111.8564 
 397   0.0000       4.116198       112.0075 
 398   0.0000       4.130709       112.4023 
 399   0.0000       4.162329       113.2627 
 400   0.0000       4.177343       113.6713 
 401   0.0000       4.188725       113.9810 
 402   0.0000       4.198994       114.2604 
 403   0.0000       4.227327       115.0314 
 404   0.0000       4.241737       115.4235 
 405   0.0000       4.264017       116.0298 
 406   0.0000       4.275564       116.3440 
 407   0.0000       4.288857       116.7057 
 408   0.0000       4.306337       117.1814 
 409   0.0000       4.339410       118.0813 
 410   0.0000       4.341609       118.1412 
 411   0.0000       4.383450       119.2797 
 412   0.0000       4.404831       119.8615 
 413   0.0000       4.495211       122.3209 
 414   0.0000       4.509246       122.7028 
 415   0.0000       4.567257       124.2814 
 416   0.0000       4.592386       124.9652 
 417   0.0000       4.633697       126.0893 
 418   0.0000       4.649519       126.5198 
 419   0.0000       4.666880       126.9923 
 420   0.0000       4.682043       127.4049 
 421   0.0000       4.712678       128.2385 
 422   0.0000       4.746733       129.1652 
 423   0.0000       4.758588       129.4878 
 424   0.0000       4.795693       130.4974 
 425   0.0000       4.808429       130.8440 
 426   0.0000       4.837217       131.6274 
 427   0.0000       4.882836       132.8687 
 428   0.0000       4.967350       135.1685 
 429   0.0000       4.992990       135.8662 
 430   0.0000       5.048987       137.3899 
 431   0.0000       5.087637       138.4416 
 432   0.0000       5.105324       138.9229 
 433   0.0000       5.127378       139.5230 
 434   0.0000       5.137475       139.7978 
 435   0.0000       5.148605       140.1007 
 436   0.0000       5.164583       140.5355 
 437   0.0000       5.180508       140.9688 
 438   0.0000       5.187681       141.1640 
 439   0.0000       5.198428       141.4564 
 440   0.0000       5.204094       141.6106 
 441   0.0000       5.209707       141.7633 
 442   0.0000       5.215445       141.9195 
 443   0.0000       5.282654       143.7483 
 444   0.0000       5.330215       145.0425 
 445   0.0000       5.336212       145.2057 
 446   0.0000       5.381438       146.4364 
 447   0.0000       5.395363       146.8153 
 448   0.0000       5.411704       147.2600 
 449   0.0000       5.414868       147.3460 
 450   0.0000       5.445442       148.1780 
 451   0.0000       5.454407       148.4220 
 452   0.0000       5.478599       149.0803 
 453   0.0000       5.518152       150.1566 
 454   0.0000       5.536332       150.6512 
 455   0.0000       5.583365       151.9311 
 456   0.0000       5.599873       152.3803 
 457   0.0000       5.620112       152.9310 
 458   0.0000       5.647256       153.6697 
 459   0.0000       5.714114       155.4890 
 460   0.0000       5.960791       162.2014 
 461   0.0000       6.231923       169.5793 
 462   0.0000       6.253030       170.1536 
 463   0.0000       6.317324       171.9031 
 464   0.0000       6.336008       172.4115 
 465   0.0000       6.359062       173.0389 
 466   0.0000       6.361942       173.1172 
 467   0.0000       6.365088       173.2029 
 468   0.0000       6.377433       173.5388 
 469   0.0000       6.403840       174.2573 
 470   0.0000       6.409456       174.4102 
 471   0.0000       6.423264       174.7859 
 472   0.0000       6.434085       175.0804 
 473   0.0000       6.446587       175.4206 
 474   0.0000       6.538402       177.9190 
 475   0.0000       6.575617       178.9316 
 476   0.0000       6.681309       181.8077 
 477   0.0000       6.844367       186.2447 
 478   0.0000       6.877866       187.1563 
 479   0.0000       6.907944       187.9747 
 480   0.0000       6.931507       188.6159 
 481   0.0000       7.090680       192.9472 
 482   0.0000       7.109279       193.4533 
 483   0.0000       7.183066       195.4612 
 484   0.0000       7.257085       197.4753 
 485   0.0000       7.276455       198.0024 
 486   0.0000       7.305392       198.7898 
 487   0.0000       7.362614       200.3469 
 488   0.0000       7.437824       202.3935 
 489   0.0000      10.711153       291.4653 
 490   0.0000      10.797281       293.8090 
 491   0.0000      11.348081       308.7970 
 492   0.0000      21.995468       598.5271 
 493   0.0000      22.358540       608.4068 
 494   0.0000      22.534166       613.1858 
 495   0.0000      22.595454       614.8535 
 496   0.0000      22.639760       616.0592 
 497   0.0000      22.757918       619.2744 
 498   0.0000      22.823740       621.0655 
 499   0.0000      23.153732       630.0451 
 500   0.0000      25.989995       707.2237 
 501   0.0000      32.497760       884.3090 
 502   0.0000      43.412896      1181.3250 
 503   0.0000      43.546406      1184.9579 
 504   0.0000      44.000423      1197.3124 
 505   0.0000      44.050619      1198.6783 

                    ********************************
                    * MULLIKEN POPULATION ANALYSIS *
                    ********************************

-----------------------
MULLIKEN ATOMIC CHARGES
-----------------------
   0 C :   -0.104038
   1 C :   -0.207261
   2 C :    0.103957
   3 C :   -0.290205
   4 C :    0.221648
   5 C :   -0.222988
   6 H :    0.149533
   7 H :    0.139725
   8 H :    0.152604
   9 Cl:   -0.134585
  10 H :    0.150497
  11 C :    0.076292
  12 C :   -0.404322
  13 H :    0.144681
  14 H :    0.144084
  15 H :    0.144156
  16 N :    0.443701
  17 O :   -0.347933
  18 O :   -0.350721
  19 H :    0.107839
  20 O :   -1.016237
  21 H :    0.275460
  22 H :    0.355948
  23 H :    0.298491
  24 O :   -0.830326
Sum of atomic charges:   -1.0000000

--------------------------------
MULLIKEN REDUCED ORBITAL CHARGES
--------------------------------
  0 C s       :     3.209275  s :     3.209275
      pz      :     0.951377  p :     2.806176
      px      :     0.915851
      py      :     0.938949
      dz2     :     0.004772  d :     0.081295
      dxz     :     0.015977
      dyz     :     0.012037
      dx2y2   :     0.019264
      dxy     :     0.029246
      f0      :     0.001457  f :     0.007292
      f+1     :     0.000517
      f-1     :     0.000570
      f+2     :     0.001121
      f-2     :     0.000244
      f+3     :     0.001443
      f-3     :     0.001940
  1 C s       :     3.271060  s :     3.271060
      pz      :     0.963537  p :     2.844483
      px      :     0.992670
      py      :     0.888276
      dz2     :     0.004811  d :     0.084409
      dxz     :     0.005474
      dyz     :     0.021311
      dx2y2   :     0.030693
      dxy     :     0.022120
      f0      :     0.001394  f :     0.007309
      f+1     :     0.000629
      f-1     :     0.000516
      f+2     :     0.000317
      f-2     :     0.000994
      f+3     :     0.001459
      f-3     :     0.002000
  2 C s       :     3.203036  s :     3.203036
      pz      :     0.955522  p :     2.562509
      px      :     0.828905
      py      :     0.778082
      dz2     :     0.006547  d :     0.120475
      dxz     :     0.024525
      dyz     :     0.018958
      dx2y2   :     0.038989
      dxy     :     0.031455
      f0      :     0.001587  f :     0.010024
      f+1     :     0.000533
      f-1     :     0.000792
      f+2     :     0.001101
      f-2     :     0.000935
      f+3     :     0.001890
      f-3     :     0.003186
  3 C s       :     3.329495  s :     3.329495
      pz      :     0.960810  p :     2.868466
      px      :     0.948143
      py      :     0.959513
      dz2     :     0.005749  d :     0.084680
      dxz     :     0.014759
      dyz     :     0.013729
      dx2y2   :     0.017828
      dxy     :     0.032614
      f0      :     0.001473  f :     0.007564
      f+1     :     0.000563
      f-1     :     0.000650
      f+2     :     0.001127
      f-2     :     0.000261
      f+3     :     0.001499
      f-3     :     0.001991
  4 C s       :     3.051954  s :     3.051954
      pz      :     0.999472  p :     2.565708
      px      :     0.758200
      py      :     0.808036
      dz2     :     0.007352  d :     0.149814
      dxz     :     0.027021
      dyz     :     0.026423
      dx2y2   :     0.047419
      dxy     :     0.041599
      f0      :     0.001884  f :     0.010876
      f+1     :     0.000969
      f-1     :     0.000610
      f+2     :     0.001063
      f-2     :     0.001064
      f+3     :     0.002096
      f-3     :     0.003190
  5 C s       :     3.286032  s :     3.286032
      pz      :     0.969240  p :     2.848089
      px      :     0.930930
      py      :     0.947919
      dz2     :     0.005504  d :     0.081469
      dxz     :     0.019206
      dyz     :     0.007813
[...]
           *        Program running with 102 parallel MPI-processes   *
           *              working on a common directory               *
           ************************************************************
------------------------------------------------------------------------------
                         ORCA SCF GRADIENT CALCULATION
------------------------------------------------------------------------------

 ... reading COSX grid (gridx3)
Gradient of the Kohn-Sham DFT energy:
Kohn-Sham wavefunction type      ... RKS
Hartree-Fock exchange scaling    ...    0.200
Number of operators              ...    1
Number of atoms                  ...   25
Basis set dimensions             ...  506
Integral neglect threshold       ... 2.5e-11
Integral primitive cutoff        ... 2.5e-12
SHARK Integral package           ... ON

Nuc. rep. gradient       (SHARK) ... done (  0.0 sec)
HCore & Overlap gradient (SHARK) ... done (  0.1 sec)
RI-J gradient            (SHARK) ... done (  0.5 sec)
COSX-gradient                    ... done (  2.1 sec)
Exchange-correlation gradient    ... done
Dispersion correction            ... done

------------------
CARTESIAN GRADIENT
------------------

   1   C   :   -0.000139070   -0.000351598   -0.000064860
   2   C   :   -0.000050507    0.000020100    0.000064306
   3   C   :    0.000449911    0.000123325    0.000078811
   4   C   :    0.000058981   -0.000219789    0.000026014
   5   C   :    0.000204715    0.000237974    0.000038638
   6   C   :    0.000103402    0.000070555   -0.000004800
   7   H   :    0.000044827   -0.000024210   -0.000034601
   8   H   :    0.000004575    0.000075563   -0.000028128
   9   H   :   -0.000058955    0.000083420   -0.000002631
  10   Cl  :   -0.000082548   -0.000040753   -0.000000102
  11   H   :   -0.000056390   -0.000055410   -0.000031254
  12   C   :   -0.000504413    0.000078010   -0.000492660
  13   C   :   -0.000031791    0.000059799   -0.000028440
  14   H   :    0.000079543    0.000032965    0.000080923
  15   H   :   -0.000084837    0.000057804   -0.000012576
  16   H   :    0.000034406   -0.000101150    0.000056965
  17   N   :    0.000267369   -0.000126033   -0.000017007
  18   O   :   -0.000072568    0.000062472   -0.000106855
  19   O   :   -0.000103375    0.000023937    0.000127143
  20   H   :    0.000116156   -0.000217858    0.000661503
  21   O   :    0.000278953   -0.000219830    0.000134883
  22   H   :   -0.000056897   -0.000048537   -0.000033883
  23   H   :   -0.000108340    0.000138267   -0.000189578
  24   H   :   -0.000194960   -0.000121735    0.000123757
  25   O   :    0.000118286    0.000131839   -0.000378621

Difference to translation invariance:
           :    0.0002164732   -0.0003308746   -0.0000330504

Difference to rotation invariance:
           :    0.0002558341    0.0020806601   -0.0035553809

Norm of the cartesian gradient     ...    0.0014918601
RMS gradient                       ...    0.0001722652
MAX gradient                       ...    0.0006615032

-------
TIMINGS
-------

Total SCF gradient time            ...        6.541 sec

One electron gradient       ....       0.098 sec  (  1.5%)
RI-J Coulomb gradient       ....       0.537 sec  (  8.2%)
COSX gradient               ....       2.110 sec  ( 32.3%)
XC gradient                 ....       0.887 sec  ( 13.6%)
CPCM gradient               ....       0.323 sec  (  4.9%)
   A-Matrix (El+Nuc)        ....       0.176 sec  (  2.7%)
   Potential                ....       0.147 sec  (  2.2%)

Maximum memory used throughout the entire SCFGRAD-calculation: 73.2 MB
------------------------------------------------------------------------------
                         ORCA GEOMETRY RELAXATION STEP
------------------------------------------------------------------------------

Reading the OPT-File                    .... done
Getting information on internals        .... done
Copying old internal coords+grads       .... done
Making the new internal coordinates     .... (new redundants).... done
Validating the new internal coordinates .... (new redundants).... done
Calculating the B-matrix                .... done
Calculating the G,G- and P matrices     .... done
Transforming gradient to internals      .... done
Projecting the internal gradient        .... done
Number of atoms                         ....  25
Number of internal coordinates          .... 127
Current Energy                          .... -1127.293300043 Eh
Current gradient norm                   ....     0.001491860 Eh/bohr
Maximum allowed component of the step   ....  0.300
Current trust radius                    ....  0.300
Resetting Hessian after 50 BFGS Update Steps....
Build internal Hessian                  .... (Almloef) done
Updating Hessian with the last 5 steps  .... done
Forming the augmented Hessian           .... done
Diagonalizing the augmented Hessian     .... done
Last element of RFO vector              ....  0.997842934
Lowest eigenvalues of augmented Hessian:
 -0.000018933  0.000411506  0.000938318  0.001458512  0.003114633
Length of the computed step             ....  0.065788526
The final length of the internal step   ....  0.065788526
Converting the step to cartesian space:
 Initial RMS(Int)=    0.0058377877
Transforming coordinates:
 Iter   0:  RMS(Cart)=    0.0129878103 RMS(Int)=    0.0058790081
 Iter   1:  RMS(Cart)=    0.0003172900 RMS(Int)=    0.0000935673
 Iter   2:  RMS(Cart)=    0.0000051751 RMS(Int)=    0.0000034859
 Iter   3:  RMS(Cart)=    0.0000025891 RMS(Int)=    0.0000015204
 Iter   4:  RMS(Cart)=    0.0000012840 RMS(Int)=    0.0000007563
 Iter   5:  RMS(Cart)=    0.0000006387 RMS(Int)=    0.0000003762
 Iter   6:  RMS(Cart)=    0.0000003178 RMS(Int)=    0.0000001872
 Iter   7:  RMS(Cart)=    0.0000001581 RMS(Int)=    0.0000000931
 Iter   8:  RMS(Cart)=    0.0000000787 RMS(Int)=    0.0000000463
done
Storing new coordinates                 .... done

                                .--------------------.
          ----------------------|Geometry convergence|-------------------------
          Item                value                   Tolerance       Converged
          ---------------------------------------------------------------------
          Energy change      -0.0000047066            0.0000050000      YES
          RMS gradient        0.0001181386            0.0001000000      NO
          MAX gradient        0.0008506203            0.0003000000      NO
          RMS step            0.0058377877            0.0020000000      NO
          MAX step            0.0316055698            0.0040000000      NO
          ........................................................
          Max(Bonds)      0.0028      Max(Angles)    0.61
          Max(Dihed)        1.81      Max(Improp)    0.00
          ---------------------------------------------------------------------

The optimization has not yet converged - more geometry cycles are needed


    ---------------------------------------------------------------------------
                         Redundant Internal Coordinates
                            (Angstroem and degrees)

        Definition                    Value    dE/dq     Step     New-Value
    ----------------------------------------------------------------------------
     1. B(C   1,C   0)                1.3911 -0.000134  0.0001    1.3912   
     2. B(C   2,C   1)                1.3921 -0.000108 -0.0001    1.3920   
     3. B(C   3,C   2)                1.3953  0.000020  0.0000    1.3954   
     4. B(C   4,C   3)                1.3856  0.000022  0.0000    1.3856   
     5. B(C   5,C   4)                1.3891 -0.000203  0.0001    1.3892   
     6. B(C   5,C   0)                1.3894 -0.000073 -0.0000    1.3894   
     7. B(H   6,C   0)                1.0825 -0.000003  0.0000    1.0825   
     8. B(H   7,C   1)                1.0824 -0.000026  0.0000    1.0825   
     9. B(H   8,C   3)                1.0822 -0.000024  0.0000    1.0822   
    10. B(Cl  9,C   4)                1.7539  0.000094 -0.0001    1.7538   
    11. B(H  10,C   5)                1.0811 -0.000016  0.0000    1.0811   
    12. B(C  11,C   2)                1.5097 -0.000134  0.0002    1.5099   
    13. B(C  12,C  11)                1.5163  0.000001 -0.0000    1.5162   
    14. B(H  13,C  12)                1.0888  0.000002  0.0000    1.0888   
    15. B(H  14,C  12)                1.0904  0.000080 -0.0001    1.0903   
    16. B(H  15,C  12)                1.0907 -0.000002 -0.0000    1.0907   
    17. B(N  16,C  11)                1.5214  0.000001 -0.0003    1.5211   
    18. B(O  17,N  16)                1.2238  0.000124 -0.0001    1.2237   
    19. B(O  18,N  16)                1.2210 -0.000011  0.0001    1.2211   
    20. B(H  19,C  11)                1.1113  0.000126 -0.0002    1.1111   
    21. B(H  21,O  20)                0.9630 -0.000037  0.0001    0.9631   
    22. B(H  22,O  20)                1.0424  0.000278 -0.0004    1.0421   
    23. B(H  23,H  19)                2.2060 -0.000030 -0.0009    2.2051   
    24. B(O  24,H  22)                1.5052  0.000096  0.0005    1.5057   
    25. B(O  24,H  19)                1.9198  0.000129 -0.0028    1.9170   
    26. B(O  24,H  23)                0.9637 -0.000291  0.0000    0.9637   
    27. A(C   5,C   0,H   6)          119.38 -0.000074    0.00    119.38   
    28. A(C   1,C   0,C   5)          120.66  0.000185    0.00    120.66   
    29. A(C   1,C   0,H   6)          119.96 -0.000111   -0.00    119.96   
    30. A(C   0,C   1,H   7)          120.67 -0.000055   -0.02    120.64   
    31. A(C   0,C   1,C   2)          120.19 -0.000073   -0.00    120.19   
    32. A(C   2,C   1,H   7)          119.14  0.000128    0.02    119.17   
    33. A(C   1,C   2,C   3)          119.61 -0.000050    0.00    119.61   
    34. A(C   1,C   2,C  11)          120.02  0.000363   -0.00    120.02   
    35. A(C   3,C   2,C  11)          120.34 -0.000314   -0.00    120.33   
    36. A(C   2,C   3,H   8)          120.80  0.000088    0.03    120.82   
    37. A(C   2,C   3,C   4)          119.32  0.000032    0.00    119.32   
    38. A(C   4,C   3,H   8)          119.89 -0.000120   -0.03    119.86   
    39. A(C   5,C   4,Cl  9)          119.21  0.000096    0.01    119.22   
    40. A(C   3,C   4,Cl  9)          119.06 -0.000108   -0.00    119.05   
    41. A(C   3,C   4,C   5)          121.73  0.000011   -0.00    121.72   
    42. A(C   0,C   5,H  10)          121.14  0.000159    0.00    121.14   
    43. A(C   0,C   5,C   4)          118.50 -0.000106   -0.00    118.49   
    44. A(C   4,C   5,H  10)          120.37 -0.000053   -0.00    120.36   
    45. A(C   2,C  11,H  19)          109.08 -0.000012   -0.03    109.04   
    46. A(C   2,C  11,N  16)          108.99  0.000115    0.02    109.01   
    47. A(C  12,C  11,N  16)          111.35 -0.000055    0.01    111.36   
    48. A(C   2,C  11,C  12)          113.95 -0.000071   -0.02    113.93   
    49. A(N  16,C  11,H  19)          102.29 -0.000040    0.08    102.37   
    50. A(C  12,C  11,H  19)          110.53  0.000069   -0.04    110.49   
    51. A(H  14,C  12,H  15)          108.42 -0.000010    0.00    108.43   
    52. A(H  13,C  12,H  15)          108.36 -0.000100   -0.00    108.36   
    53. A(C  11,C  12,H  15)          107.75  0.000135   -0.01    107.74   
    54. A(H  13,C  12,H  14)          109.04  0.000076    0.01    109.05   
    55. A(C  11,C  12,H  14)          112.06 -0.000093    0.01    112.07   
    56. A(C  11,C  12,H  13)          111.09 -0.000010   -0.01    111.09   
    57. A(O  17,N  16,O  18)          123.53  0.000069   -0.01    123.52   
    58. A(C  11,N  16,O  18)          119.39 -0.000175    0.01    119.39   
    59. A(C  11,N  16,O  17)          117.03  0.000110   -0.00    117.03   
    60. A(H  23,H  19,O  24)           25.84 -0.000074    0.01     25.85   
    61. A(C  11,H  19,H  23)          149.73 -0.000851    0.61    150.34   
    62. A(H  21,O  20,H  22)          105.36 -0.000099    0.02    105.39   
    63. L(O  20,H  22,O  24,H  21, 2) 183.63  0.000068    0.02    183.66   
    64. L(O  20,H  22,O  24,H  21, 1) 181.19  0.000034   -0.07    181.12   
    65. A(H  19,H  23,O  24)           60.25  0.000075   -0.12     60.14   
    66. A(H  19,O  24,H  22)          152.73 -0.000072   -0.15    152.58   
    67. A(H  22,O  24,H  23)          108.90  0.000113   -0.09    108.81   
    68. A(H  19,O  24,H  23)           93.91 -0.000001    0.11     94.02   
    69. D(C   2,C   1,C   0,C   5)     -0.38  0.000011   -0.02     -0.40   
    70. D(H   7,C   1,C   0,C   5)    179.49 -0.000010    0.03    179.52   
    71. D(H   7,C   1,C   0,H   6)     -0.20 -0.000005    0.02     -0.18   
    72. D(C   2,C   1,C   0,H   6)    179.93  0.000016   -0.03    179.91   
    73. D(C   3,C   2,C   1,H   7)   -179.84  0.000004   -0.02   -179.85   
    74. D(C  11,C   2,C   1,C   0)   -177.98 -0.000006    0.13   -177.85   
    75. D(C   3,C   2,C   1,C   0)      0.03 -0.000018    0.03      0.06   
    76. D(C  11,C   2,C   1,H   7)      2.16  0.000015    0.08      2.24   
    77. D(H   8,C   3,C   2,C   1)   -179.95 -0.000003    0.02   -179.93   
    78. D(H   8,C   3,C   2,C  11)     -1.95 -0.000001   -0.08     -2.03   
    79. D(C   4,C   3,C   2,C  11)    178.45  0.000012   -0.11    178.33   
    80. D(C   4,C   3,C   2,C   1)      0.45  0.000010   -0.02      0.43   
    81. D(C   5,C   4,C   3,H   8)    179.80  0.000014   -0.04    179.76   
    82. D(Cl  9,C   4,C   3,C   2)    179.54 -0.000001    0.01    179.56   
    83. D(C   5,C   4,C   3,C   2)     -0.60  0.000002   -0.01     -0.60   
    84. D(Cl  9,C   4,C   3,H   8)     -0.06  0.000012   -0.03     -0.08   
    85. D(H  10,C   5,C   4,Cl  9)      0.03 -0.000004    0.01      0.03   
    86. D(C   0,C   5,C   4,Cl  9)   -179.89 -0.000005   -0.00   -179.89   
    87. D(C   0,C   5,C   4,C   3)      0.25 -0.000007    0.02      0.27   
    88. D(H  10,C   5,C   0,H   6)      0.01 -0.000005   -0.00      0.01   
    89. D(C   4,C   5,C   0,H   6)    179.93 -0.000004    0.00    179.93   
    90. D(H  10,C   5,C   4,C   3)   -179.83 -0.000006    0.02   -179.81   
    91. D(C   4,C   5,C   0,C   1)      0.24  0.000001   -0.00      0.23   
    92. D(H  10,C   5,C   0,C   1)   -179.68 -0.000000   -0.01   -179.69   
    93. D(H  19,C  11,C   2,C   3)    173.75 -0.000016   -0.11    173.64   
    94. D(N  16,C  11,C   2,C   3)     62.82 -0.000020   -0.20     62.62   
    95. D(N  16,C  11,C   2,C   1)   -119.19 -0.000027   -0.29   -119.48   
    96. D(C  12,C  11,C   2,C   3)    -62.22  0.000014   -0.21    -62.43   
    97. D(C  12,C  11,C   2,C   1)    115.77  0.000008   -0.31    115.46   
    98. D(H  19,C  11,C   2,C   1)     -8.26 -0.000022   -0.21     -8.47   
    99. D(H  13,C  12,C  11,C   2)   -177.34  0.000047   -0.06   -177.40   
   100. D(H  15,C  12,C  11,N  16)    177.44 -0.000053   -0.09    177.34   
   101. D(H  15,C  12,C  11,C   2)    -58.79  0.000003   -0.07    -58.86   
   102. D(H  14,C  12,C  11,H  19)   -176.35  0.000007   -0.17   -176.52   
   103. D(H  14,C  12,C  11,N  16)    -63.37 -0.000033   -0.09    -63.46   
   104. D(H  14,C  12,C  11,C   2)     60.41  0.000022   -0.07     60.33   
   105. D(H  13,C  12,C  11,H  19)    -54.10  0.000032   -0.15    -54.25   
   106. D(H  15,C  12,C  11,H  19)     64.46 -0.000012   -0.17     64.29   
   107. D(H  13,C  12,C  11,N  16)     58.88 -0.000008   -0.08     58.80   
   108. D(O  18,N  16,C  11,H  19)    112.04  0.000071    0.03    112.07   
   109. D(O  18,N  16,C  11,C  12)     -6.03  0.000038    0.03     -6.00   
   110. D(O  18,N  16,C  11,C   2)   -132.58  0.000084    0.04   -132.54   
   111. D(O  17,N  16,C  11,H  19)    -65.50 -0.000058    0.23    -65.28   
   112. D(O  17,N  16,C  11,C  12)    176.43 -0.000090    0.23    176.66   
   113. D(O  17,N  16,C  11,C   2)     49.88 -0.000044    0.23     50.12   
   114. D(H  23,H  19,C  11,N  16)     69.84 -0.000006    1.16     71.00   
   115. D(H  23,H  19,C  11,C  12)   -171.51 -0.000061    1.20   -170.32   
   116. D(H  23,H  19,C  11,C   2)    -45.48 -0.000112    1.11    -44.37   
   117. D(O  24,H  23,H  19,C  11)    175.32 -0.000013   -1.50    173.83   
   118. D(H  19,O  24,O  20,H  21)   -134.57  0.000099   -1.81   -136.38   
   119. D(H  23,O  24,O  20,H  21)     79.85 -0.000074   -1.50     78.35   
   120. D(H  22,O  24,H  19,H  23)   -147.28 -0.000203    0.43   -146.85   
   121. D(H  22,O  24,C  11,N  16)    -81.98  0.000007   -0.46    -82.44   
   122. D(H  22,O  24,C  11,C  12)     38.05  0.000113   -0.28     37.77   
   123. D(H  22,O  24,C  11,C   2)    163.74  0.000142   -0.72    163.02   
   124. D(H  23,O  24,C  11,N  16)     65.07 -0.000117   -0.14     64.93   
   125. D(H  23,O  24,C  11,C  12)   -174.91 -0.000012    0.04   -174.87   
   126. D(H  22,O  24,H  23,H  19)    164.82  0.000038   -0.25    164.58   
   127. D(H  23,O  24,C  11,C   2)    -49.21  0.000017   -0.40    -49.61   
    ----------------------------------------------------------------------------




    ----------------------------------------------------------------------------
                                  WARNING !!!
       The optimization did not converge but reached the maximum number of
       optimization cycles.
       Please check your results very carefully.
    ----------------------------------------------------------------------------



                            ***************************************
                            *     ORCA property calculations      *
                            ***************************************

                                    ---------------------
                                    Active property flags
                                    ---------------------
   (+) Dipole Moment


------------------------------------------------------------------------------
                       ORCA ELECTRIC PROPERTIES CALCULATION
------------------------------------------------------------------------------

Dipole Moment Calculation                       ... on
Quadrupole Moment Calculation                   ... off
Polarizability Calculation                      ... off
GBWName                                         ... /home/rudenko/mop_saddle_orca_4_serv/for_orca/m-clc6h4chno2ch3_oh/orca/orca_start/start.gbw
Electron density                                ... /home/rudenko/mop_saddle_orca_4_serv/for_orca/m-clc6h4chno2ch3_oh/orca/orca_start/start.scfp
The origin for moment calculation is the CENTER OF MASS  = ( 1.129285,  1.406330  2.805450)

-------------
DIPOLE MOMENT
-------------
                                X             Y             Z
Electronic contribution:    -25.55068       8.29290      -6.34455
Nuclear contribution   :     19.07247      -4.80861       7.77816
                        -----------------------------------------
Total Dipole Moment    :     -6.47821       3.48429       1.43361
                        -----------------------------------------
Magnitude (a.u.)       :      7.49418
Magnitude (Debye)      :     19.04870



--------------------
Rotational spectrum 
--------------------
 
Rotational constants in cm-1:     0.028202     0.009077     0.007606 
Rotational constants in MHz :   845.471837   272.121791   228.022860 

 Dipole components along the rotational axes: 
x,y,z [a.u.] :    -7.335891     0.517154     1.442234 
x,y,z [Debye]:   -18.646353     1.314502     3.665867 

 

Timings for individual modules:

Sum of individual times         ...     3772.641 sec (=  62.877 min)
GTO integral calculation        ...      361.795 sec (=   6.030 min)   9.6 %
SCF iterations                  ...     2625.420 sec (=  43.757 min)  69.6 %
SCF Gradient evaluation         ...      782.508 sec (=  13.042 min)  20.7 %
Geometry relaxation             ...        2.918 sec (=   0.049 min)   0.1 %
                             ****ORCA TERMINATED NORMALLY****
TOTAL RUN TIME: 0 days 1 hours 7 minutes 38 seconds 777 msec
