 *******************************************************************************
 **                                                                           **
 **                              MOPAC v22.1.1                                **
 **                                                                           **
 *******************************************************************************
 **          Digital Object Identifier (DOI): 10.5281/zenodo.6511958          **
 **    Visit the DOI location for information on how to cite this program.    **
 *******************************************************************************

                              PM7 CALCULATION RESULTS

 *******************************************************************************
 *  CALCULATION DONE:                                Wed Nov  6 13:32:53 2024  *
 *  PM7        - The PM7 Hamiltonian to be used
 *  SINGLET    - SPIN STATE DEFINED AS A SINGLET
 *
 *
 *
 *                 CHARGE ON SYSTEM = -1
 *
 *
 *
 *  EPS=78.4   - USE ANDREAS KLAMT'S COSMO IMPLICIT SOLVATION MODEL
 *  THREADS=1  - MULTI-THREADING NOT USED
 *  T=         - A TIME OF 14.0 DAYS REQUESTED
 *  DUMP=N     - RESTART FILE WRITTEN EVERY 30.0 MINUTES REQUESTED
 *  RELSCF     - DEFAULT SCF CRITERION MULTIPLIED BY 1.0000
 *              (DEFAULT SCF CRITERION = 0.00010)
 *  ITRY=      - DO A MAXIMUM OF 15000 ITERATIONS FOR SCF
 *  AUX        - OUTPUT AUXILIARY INFORMATION
 *  BONDS      - FINAL BOND-ORDER MATRIX TO BE PRINTED
 *******************************************************************************
PM7 BONDS AUX DUMP=30M ITRY=15000 T=14D CHARGE=-1 SINGLET eps=78.4 THREADS=True RELSCF=1
 Title: ASE calculation

   ATOM   CHEMICAL          X               Y               Z
  NUMBER   SYMBOL      (ANGSTROMS)     (ANGSTROMS)     (ANGSTROMS)

     1       C          0.97816884  *   0.67539412  *  -1.15430023  *
     2       C          1.10580815  *  -0.70959569  *  -1.22656341  *
     3       C         -0.04476646  *  -1.46451108  *  -1.43965106  *
     4       C         -1.31002956  *  -0.89847476  *  -1.57676955  *
     5       C         -1.41130876  *   0.48941768  *  -1.50291043  *
     6       C         -0.27510703  *   1.27087114  *  -1.29469757  *
     7       H          1.86167371  *   1.29351284  *  -0.98571278  *
     8       C          2.44684053  *  -1.37267799  *  -1.09506120  *
     9       F          0.06872022  *  -2.78497323  *  -1.50780016  *
    10       H         -2.19600112  *  -1.51220619  *  -1.73609527  *
    11       H         -2.38692764  *   0.96590808  *  -1.60815441  *
    12       H         -0.36794695  *   2.35581775  *  -1.23996701  *
    13       O          2.91044088  *  -1.84677901  *  -2.16417364  *
    14       C          3.04392702     -1.41238542      0.12637835   
    15       O          6.84174705     -2.23764269      0.31607422   
    16       H          7.05001252  *  -2.44679521  *   1.24141877  *
    17       H          7.33992429  *  -3.61612080  *  -0.55821391  *
    18       O          7.62175439  *  -4.40438398  *  -1.05590735  *
    19       H          6.99945709  *  -5.08783987  *  -0.78975024  *
    20       H          3.98736572  *  -1.87840826  *   0.28781553  *
    21       H          2.61652153  *  -0.98621756  *   1.00097121  *
    22       H          5.84900224     -2.24130367  *   0.32308511  *



          CARTESIAN COORDINATES 

    NO.       ATOM           X           Y           Z

     1         C          0.9782      0.6754     -1.1543
     2         C          1.1058     -0.7096     -1.2266
     3         C         -0.0448     -1.4645     -1.4397
     4         C         -1.3100     -0.8985     -1.5768
     5         C         -1.4113      0.4894     -1.5029
     6         C         -0.2751      1.2709     -1.2947
     7         H          1.8617      1.2935     -0.9857
     8         C          2.4468     -1.3727     -1.0951
     9         F          0.0687     -2.7850     -1.5078
    10         H         -2.1960     -1.5122     -1.7361
    11         H         -2.3869      0.9659     -1.6082
    12         H         -0.3679      2.3558     -1.2400
    13         O          2.9104     -1.8468     -2.1642
    14         C          3.0439     -1.4124      0.1264
    15         O          6.8417     -2.2376      0.3161
    16         H          7.0500     -2.4468      1.2414
    17         H          7.3399     -3.6161     -0.5582
    18         O          7.6218     -4.4044     -1.0559
    19         H          6.9995     -5.0878     -0.7898
    20         H          3.9874     -1.8784      0.2878
    21         H          2.6165     -0.9862      1.0010
    22         H          5.8490     -2.2413      0.3231

 General Reference for PM7:
 "Optimization of Parameters for Semiempirical Methods VI: More Modifications to the 
 NDDO Approximations and Re-optimization of Parameters", J. J. P. Stewart, J. Mol. Mod., 1:32, 19 (2013)
 https://link.springer.com/article/10.1007/s00894-012-1667-x

           Empirical Formula: C8 H10 O3 F  =    22 atoms



      MOLECULAR POINT GROUP   :   C1  


 SINGLET STATE CALCULATION


      RHF CALCULATION, NO. OF DOUBLY OCCUPIED LEVELS = 34


          Geometry optimization using EF
  SCF CRITERION =    0.1000E-03

          DIAGONAL MATRIX USED AS START HESSIAN

 CYCLE:     1 TIME:   0.035 TIME LEFT:  2.00W  GRAD.:     1.984 HEAT: -282.6396
 CYCLE:     2 TIME:   0.035 TIME LEFT:  2.00W  GRAD.:     2.509 HEAT: -282.6341
 CYCLE:     3 TIME:   0.062 TIME LEFT:  2.00W  GRAD.:     1.608 HEAT: -282.6294
 CYCLE:     4 TIME:   0.012 TIME LEFT:  2.00W  GRAD.:     4.486 HEAT: -282.6284
 CYCLE:     5 TIME:   0.012 TIME LEFT:  2.00W  GRAD.:     2.926 HEAT: -282.6312
 CYCLE:     6 TIME:   0.012 TIME LEFT:  2.00W  GRAD.:     3.875 HEAT: -282.6349
 CYCLE:     7 TIME:   0.008 TIME LEFT:  2.00W  GRAD.:     3.167 HEAT: -282.6436
 CYCLE:     8 TIME:   0.012 TIME LEFT:  2.00W  GRAD.:     3.156 HEAT: -282.6492
 CYCLE:     9 TIME:   0.012 TIME LEFT:  2.00W  GRAD.:     2.497 HEAT: -282.6433
 CYCLE:    10 TIME:   0.020 TIME LEFT:  2.00W  GRAD.:     2.403 HEAT: -282.6468
 CYCLE:    11 TIME:   0.039 TIME LEFT:  2.00W  GRAD.:     1.042 HEAT: -282.6470
 CYCLE:    12 TIME:   0.051 TIME LEFT:  2.00W  GRAD.:     0.757 HEAT: -282.6543

     GRADIENT =  0.75744 IS LESS THAN CUTOFF =  1.00000



 -------------------------------------------------------------------------------
 PM7 BONDS AUX DUMP=30M ITRY=15000 T=14D CHARGE=-1 SINGLET eps=78.4 THREADS=True RELSCF=1
 Title: ASE calculation



     GEOMETRY OPTIMISED USING EIGENVECTOR FOLLOWING (EF).     
     SCF FIELD WAS ACHIEVED                                   


                              PM7 CALCULATION
                                                       MOPAC v22.1.1 Linux
                                                       Wed Nov  6 13:32:53 2024




          FINAL HEAT OF FORMATION =       -282.65429 KCAL/MOL =   -1182.62555 KJ/MOL
          VAN DER WAALS AREA      =        228.85 SQUARE ANGSTROMS



          DIELECTRIC ENERGY       =         -3.72922 EV
          COSMO AREA              =        228.85 SQUARE ANGSTROMS
          COSMO VOLUME            =        214.04 CUBIC ANGSTROMS

          GRADIENT NORM           =          0.75744          =       0.16149 PER ATOM
          IONIZATION POTENTIAL    =          8.393341 EV
          HOMO LUMO ENERGIES (EV) =         -8.393 -0.121
          NO. OF FILLED LEVELS    =         34
          MOLECULAR WEIGHT        =        173.1636         POINT GROUP:  C1  

          MOLECULAR DIMENSIONS (Angstroms)

            Atom       Atom       Distance
            O    18    H    11    11.36607
            F     9    H     7     4.47391
            H    21    O    13     3.09547


          SCF CALCULATIONS        =         26

          WALL-CLOCK TIME         =      0.324 SECONDS
          COMPUTATION TIME        =     16.787 SECONDS




   ATOM   CHEMICAL          X               Y               Z
  NUMBER   SYMBOL      (ANGSTROMS)     (ANGSTROMS)     (ANGSTROMS)

     1       C          0.97784499  *   0.67570536  *  -1.15304605  *
     2       C          1.10602535  *  -0.70890609  *  -1.22654951  *
     3       C         -0.04419416  *  -1.46412420  *  -1.44114190  *
     4       C         -1.30949634  *  -0.89847558  *  -1.57829349  *
     5       C         -1.41136114  *   0.48937383  *  -1.50311558  *
     6       C         -0.27537931  *   1.27101965  *  -1.29340283  *
     7       H          1.86119743  *   1.29403196  *  -0.98349362  *
     8       C          2.44721991  *  -1.37177754  *  -1.09515713  *
     9       F          0.06993684  *  -2.78449606  *  -1.51075465  *
    10       H         -2.19520131  *  -1.51222055  *  -1.73890004  *
    11       H         -2.38704499  *   0.96561200  *  -1.60823770  *
    12       H         -0.36870142  *   2.35584695  *  -1.23772745  *
    13       O          2.91094080  *  -1.84482466  *  -2.16482024  *
    14       C          3.04392702     -1.41238542      0.12637835   
    15       O          6.84174705     -2.23764269      0.31607422   
    16       H          7.06028704  *  -2.44515237  *   1.24044368  *
    17       H          7.33971009  *  -3.61550938  *  -0.56240722  *
    18       O          7.61682436  *  -4.40219933  *  -1.06351148  *
    19       H          7.00425190  *  -5.08962081  *  -0.78563106  *
    20       H          3.98671346  *  -1.87892837  *   0.28794081  *
    21       H          2.61583741  *  -0.98680134  *   1.00092025  *
    22       H          5.84900224     -2.23637809  *   0.32180452  *

                             CARTESIAN COORDINATES

   1    C        0.977844986     0.675705357    -1.153046048
   2    C        1.106025352    -0.708906091    -1.226549505
   3    C       -0.044194159    -1.464124196    -1.441141904
   4    C       -1.309496344    -0.898475576    -1.578293492
   5    C       -1.411361138     0.489373830    -1.503115584
   6    C       -0.275379315     1.271019647    -1.293402829
   7    H        1.861197428     1.294031964    -0.983493620
   8    C        2.447219911    -1.371777545    -1.095157126
   9    F        0.069936841    -2.784496056    -1.510754646
  10    H       -2.195201308    -1.512220548    -1.738900042
  11    H       -2.387044988     0.965612003    -1.608237701
  12    H       -0.368701422     2.355846945    -1.237727451
  13    O        2.910940802    -1.844824664    -2.164820239
  14    C        3.043927020    -1.412385420     0.126378350
  15    O        6.841747050    -2.237642690     0.316074220
  16    H        7.060287036    -2.445152369     1.240443676
  17    H        7.339710085    -3.615509376    -0.562407225
  18    O        7.616824364    -4.402199327    -1.063511479
  19    H        7.004251897    -5.089620811    -0.785631061
  20    H        3.986713463    -1.878928367     0.287940808
  21    H        2.615837412    -0.986801344     1.000920250
  22    H        5.849002240    -2.236378089     0.321804518


           Empirical Formula: C8 H10 O3 F  =    22 atoms



      MOLECULAR POINT GROUP   :   C1  


                  EIGENVALUES  
 -41.16167 -30.84383 -29.61175 -28.73632 -28.66041 -26.26223 -25.80030 -24.16133
 -21.50033 -21.13491 -18.94816 -17.73161 -17.62889 -17.42468 -16.94285 -16.87366
 -16.00070 -15.09446 -14.89640 -14.85224 -14.75391 -14.41575 -14.27813 -13.26969
 -13.06040 -12.88097 -12.43721 -12.28359 -12.28026 -11.96896 -10.10717  -9.88601
  -9.72364  -8.39334  -0.12099  -0.04161   2.02394   2.31369   2.84378   3.60605
   3.92685   4.22041   4.66599   4.78005   4.78760   4.86676   4.98564   5.60508
   5.72969   5.78707   6.07170   6.09184   6.13376   6.15635   6.40453   6.85535
   7.17720   7.96108


              NET ATOMIC CHARGES AND DIPOLE CONTRIBUTIONS

  ATOM NO.   TYPE          CHARGE      No. of ELECS.   s-Pop       p-Pop       
    1          C          -0.125035        4.1250     1.08601     3.03903
    2          C          -0.153808        4.1538     1.09157     3.06224
    3          C           0.179272        3.8207     1.09378     2.72695
    4          C          -0.227568        4.2276     1.08409     3.14348
    5          C          -0.125429        4.1254     1.08645     3.03898
    6          C          -0.182836        4.1828     1.08553     3.09731
    7          H           0.170465        0.8295     0.82953
    8          C           0.530120        3.4699     1.05870     2.41118
    9          F          -0.195317        7.1953     1.96559     5.22972
   10          H           0.181050        0.8190     0.81895
   11          H           0.162256        0.8377     0.83774
   12          H           0.164978        0.8350     0.83502
   13          O          -0.882271        6.8823     1.88402     4.99825
   14          C          -0.778545        4.7785     1.05741     3.72114
   15          O          -0.729117        6.7291     1.82586     4.90326
   16          H           0.380337        0.6197     0.61966
   17          H           0.378510        0.6215     0.62149
   18          O          -0.778689        6.7787     1.81627     4.96242
   19          H           0.372048        0.6280     0.62795
   20          H           0.142316        0.8577     0.85768
   21          H           0.144358        0.8556     0.85564
   22          H           0.372904        0.6271     0.62710
 DIPOLE           X         Y         Z       TOTAL
 POINT-CHG.    -7.568     4.463     5.825    10.542
 HYBRID        -0.583    -0.518     0.154     0.794
 SUM           -8.151     3.946     5.979    10.851


          ATOMIC ORBITAL ELECTRON POPULATIONS

     Atom    s        px        py        pz   
    1  C   1.08601   1.05174   1.00543   0.98186
    2  C   1.09157   1.04432   1.00176   1.01616
    3  C   1.09378   0.96809   0.77085   0.98801
    4  C   1.08409   1.05359   1.03093   1.05896
    5  C   1.08645   1.07153   0.99246   0.97499
    6  C   1.08553   0.98616   1.09345   1.01769
    7  H   0.82953
    8  C   1.05870   0.81429   0.75743   0.83946
    9  F   1.96559   1.98199   1.28160   1.96613
   10  H   0.81895
   11  H   0.83774
   12  H   0.83502
   13  O   1.88402   1.81213   1.70524   1.48088
   14  C   1.05741   1.21365   1.42089   1.08660
   15  O   1.82586   1.44793   1.95219   1.50313
   16  H   0.61966
   17  H   0.62149
   18  O   1.81627   1.71057   1.45728   1.79457
   19  H   0.62795
   20  H   0.85768
   21  H   0.85564
   22  H   0.62710

          BONDING CONTRIBUTION OF EACH M.O.

  0.2218  1.9169  1.1254  1.2043  1.4316  1.6929  1.8028  1.7567  1.8590  1.8871
  1.7837  1.6516  1.6058  1.5177  1.1380  0.3622  1.7453  1.7541  1.0413  1.1804
  1.7962  0.9412  1.1020  1.7257  1.6790  1.6644  0.1425  0.0056  1.6957  1.6976
  1.9510  1.7161  0.8626  0.9946 -2.0237 -2.0299 -2.1089 -2.0317 -1.9492 -1.7594
 -1.9916 -1.9904 -1.9836 -1.9694 -1.9718 -1.7471 -2.0149 -1.9845 -1.9801 -1.9443
 -1.9672 -1.9617 -1.7479 -1.9493 -1.9557 -1.7230 -1.9416 -1.9259





            (VALENCIES)   BOND ORDERS

     1  C     (3.969)     6  C 1.440     2  C 1.425     7  H 0.958     4  C 0.111

     2  C     (3.974)     1  C 1.425     3  C 1.403     8  C 0.931     5  C 0.110    13  O 0.045     9  F 0.024
                         14  C 0.012

     3  C     (3.926)     4  C 1.420     2  C 1.403     9  F 0.956     6  C 0.110

     4  C     (3.965)     5  C 1.438     3  C 1.420    10  H 0.953     1  C 0.111     9  F 0.026

     5  C     (3.972)     6  C 1.442     4  C 1.438    11  H 0.961     2  C 0.110

     6  C     (3.972)     5  C 1.442     1  C 1.440    12  H 0.960     3  C 0.110

     7  H     (0.971)     1  C 0.958

     8  C     (3.859)    14  C 1.587    13  O 1.319     2  C 0.931

     9  F     (1.032)     3  C 0.956     4  C 0.026     2  C 0.024

    10  H     (0.967)     4  C 0.953

    11  H     (0.974)     5  C 0.961

    12  H     (0.973)     6  C 0.960

    13  O     (1.536)     8  C 1.319    14  C 0.147     2  C 0.045

    14  C     (3.704)     8  C 1.587    21  H 0.968    20  H 0.962    13  O 0.147     2  C 0.012

    15  O     (1.770)    16  H 0.852    22  H 0.850    17  H 0.042    18  O 0.020

    16  H     (0.855)    15  O 0.852

    17  H     (0.857)    18  O 0.813    15  O 0.042

    18  O     (1.695)    19  H 0.860    17  H 0.813    15  O 0.020

    19  H     (0.862)    18  O 0.860

    20  H     (0.980)    14  C 0.962

    21  H     (0.979)    14  C 0.968

    22  H     (0.861)    15  O 0.850


 **********************
 *                    *
 * JOB ENDED NORMALLY *
 *                    *
 **********************



 TOTAL JOB TIME:             0.33 SECONDS

 == MOPAC DONE ==
