 *******************************************************************************
 **                                                                           **
 **                              MOPAC v22.1.1                                **
 **                                                                           **
 *******************************************************************************
 **          Digital Object Identifier (DOI): 10.5281/zenodo.6511958          **
 **    Visit the DOI location for information on how to cite this program.    **
 *******************************************************************************

                              PM7 CALCULATION RESULTS

 *******************************************************************************
 *  CALCULATION DONE:                                Wed Nov  6 13:32:55 2024  *
 *  PM7        - The PM7 Hamiltonian to be used
 *  SINGLET    - SPIN STATE DEFINED AS A SINGLET
 *
 *
 *
 *                 CHARGE ON SYSTEM = -1
 *
 *
 *
 *  EPS=78.4   - USE ANDREAS KLAMT'S COSMO IMPLICIT SOLVATION MODEL
 *  LET        - OVERRIDE SOME SAFETY CHECKS
 *  THREADS=1  - MULTI-THREADING NOT USED
 *  T=         - A TIME OF 14.0 DAYS REQUESTED
 *  DUMP=N     - RESTART FILE WRITTEN EVERY 30.0 MINUTES REQUESTED
 *  RELSCF     - DEFAULT SCF CRITERION MULTIPLIED BY 1.0000
 *              (DEFAULT SCF CRITERION = 0.00010)
 *  ITRY=      - DO A MAXIMUM OF 15000 ITERATIONS FOR SCF
 *  AUX        - OUTPUT AUXILIARY INFORMATION
 *  ISOTOPE    - SAVE THE FORCE MATRIX FOR USE LATER
 *  BONDS      - FINAL BOND-ORDER MATRIX TO BE PRINTED
 *  LARGE      - EXPANDED OUTPUT TO BE PRINTED
 *  THERMO     - THERMODYNAMIC QUANTITIES TO BE CALCULATED
 *******************************************************************************
PM7 AUX LARGE THERMO(298,298) LET ISOTOPE BONDS DUMP=30M ITRY=15000 T=14D CHARGE=-1 SINGLET eps=78.4 THREADS=True RELSCF=1
 Title: ASE calculation

   ATOM   CHEMICAL          X               Y               Z
  NUMBER   SYMBOL      (ANGSTROMS)     (ANGSTROMS)     (ANGSTROMS)

     1       C          0.97784499  *   0.67570536  *  -1.15304605  *
     2       C          1.10602535  *  -0.70890609  *  -1.22654950  *
     3       C         -0.04419416  *  -1.46412420  *  -1.44114190  *
     4       C         -1.30949634  *  -0.89847558  *  -1.57829349  *
     5       C         -1.41136114  *   0.48937383  *  -1.50311558  *
     6       C         -0.27537932  *   1.27101965  *  -1.29340283  *
     7       H          1.86119743  *   1.29403196  *  -0.98349362  *
     8       C          2.44721991  *  -1.37177755  *  -1.09515713  *
     9       F          0.06993684  *  -2.78449606  *  -1.51075465  *
    10       H         -2.19520131  *  -1.51222055  *  -1.73890004  *
    11       H         -2.38704499  *   0.96561200  *  -1.60823770  *
    12       H         -0.36870142  *   2.35584695  *  -1.23772745  *
    13       O          2.91094080  *  -1.84482466  *  -2.16482024  *
    14       C          3.04392702  *  -1.41238542  *   0.12637835  *
    15       O          6.84174705  *  -2.23764269  *   0.31607422  *
    16       H          7.06028704  *  -2.44515237  *   1.24044368  *
    17       H          7.33971009  *  -3.61550938  *  -0.56240722  *
    18       O          7.61682436  *  -4.40219933  *  -1.06351148  *
    19       H          7.00425190  *  -5.08962081  *  -0.78563106  *
    20       H          3.98671346  *  -1.87892837  *   0.28794081  *
    21       H          2.61583741  *  -0.98680134  *   1.00092025  *
    22       T          5.84900224  *  -2.23637809  *   0.32180452  *


                                Isotopes Used

              Atom:   22  H  Default mass  1.0079,  mass used:  3.0160 amu


          CARTESIAN COORDINATES 

    NO.       ATOM           X           Y           Z

     1         C          0.9778      0.6757     -1.1530
     2         C          1.1060     -0.7089     -1.2265
     3         C         -0.0442     -1.4641     -1.4411
     4         C         -1.3095     -0.8985     -1.5783
     5         C         -1.4114      0.4894     -1.5031
     6         C         -0.2754      1.2710     -1.2934
     7         H          1.8612      1.2940     -0.9835
     8         C          2.4472     -1.3718     -1.0952
     9         F          0.0699     -2.7845     -1.5108
    10         H         -2.1952     -1.5122     -1.7389
    11         H         -2.3870      0.9656     -1.6082
    12         H         -0.3687      2.3558     -1.2377
    13         O          2.9109     -1.8448     -2.1648
    14         C          3.0439     -1.4124      0.1264
    15         O          6.8417     -2.2376      0.3161
    16         H          7.0603     -2.4452      1.2404
    17         H          7.3397     -3.6155     -0.5624
    18         O          7.6168     -4.4022     -1.0635
    19         H          7.0043     -5.0896     -0.7856
    20         H          3.9867     -1.8789      0.2879
    21         H          2.6158     -0.9868      1.0009
    22         H          5.8490     -2.2364      0.3218

 General Reference for PM7:
 "Optimization of Parameters for Semiempirical Methods VI: More Modifications to the 
 NDDO Approximations and Re-optimization of Parameters", J. J. P. Stewart, J. Mol. Mod., 1:32, 19 (2013)
 https://link.springer.com/article/10.1007/s00894-012-1667-x

           Empirical Formula: C8 H10 O3 F  =    22 atoms



      MOLECULAR POINT GROUP   :   C1  


 SINGLET STATE CALCULATION


      RHF CALCULATION, NO. OF DOUBLY OCCUPIED LEVELS = 34

  SCF CRITERION =    0.1000E-03


          HEAT OF FORMATION =    -282.654290 KCALS/MOLE


          CARTESIAN COORDINATE DERIVATIVES

   NUMBER  ATOM         X            Y            Z

     1       C      0.135504    -0.034505     0.005721
     2       C     -0.100461     0.020744     0.042757
     3       C     -0.008514    -0.048634    -0.030965
     4       C     -0.052967     0.075098    -0.034097
     5       C      0.156743     0.065540     0.015011
     6       C     -0.001419    -0.046146     0.026005
     7       H     -0.003494    -0.059529     0.056518
     8       C      0.093273     0.044385     0.032986
     9       F      0.018939     0.100366    -0.068073
    10       H     -0.031023     0.019728    -0.057291
    11       H      0.009781     0.010671    -0.010958
    12       H      0.005158    -0.048006     0.047056
    13       O     -0.046001     0.166051    -0.062146
    14       C     -0.597903     0.989222    -0.039000
    15       O      1.221807   -13.531882     1.878365
    16       H      0.144060    -0.010837    -0.304485
    17       H      0.234602    -0.244040     0.075188
    18       O      0.059658    -0.055645    -0.276729
    19       H     -0.119546     0.175435     0.108987
    20       H      0.008824     0.034841    -0.002400
    21       H     -0.027370     0.001117     0.020432
    22       H     -1.096723    12.376408    -1.421694

 DIPOLE           X         Y         Z       TOTAL
 POINT-CHG.   -15.855    10.783    -6.363    20.202
 HYBRID         0.453     0.595    -0.268     0.794
 SUM          -15.402    11.378    -6.631    20.264


          GRADIENT NORM =  18.61182



 ** GRADIENT IS VERY LARGE, BUT SINCE "LET" IS USED, CALCULATION WILL CONTINUE


                              **** WARNING ****

           GRADIENT IS VERY LARGE FOR A THERMO CALCULATION
           RESULTS ARE LIKELY TO BE INACCURATE IF THERE ARE
           ANY LOW-LYING VIBRATIONS (LESS THAN ABOUT 400CM-1)
           GRADIENT NORM SHOULD BE LESS THAN ABOUT 1.0 FOR THERMO
           TO GIVE ACCURATE RESULTS


          TIME FOR SCF CALCULATION =    0.04

          TIME FOR DERIVATIVES     =    0.01

          MOLECULAR WEIGHT =  175.17



          ROTATIONAL CONSTANTS IN CM(-1)

          A =    0.06167324   B =    0.00905634   C =    0.00829209



           PRINCIPAL MOMENTS OF INERTIA IN UNITS OF 10**(-40)*GRAM-CM**2

          A =      453.8881   B =     3090.9562   C =     3375.8381


          ORIENTATION OF MOLECULE IN FORCE CALCULATION

    NO.       ATOM         X         Y         Z

     1          C      -2.1805    0.9911    0.0456
     2          C      -0.7880    0.9911    0.0456
     3          C      -0.1316    2.2193    0.0456
     4          C      -0.8033    3.4394    0.0394
     5          C      -2.1966    3.4129    0.0416
     6          C      -2.8804    2.1973    0.0462
     7          H      -2.7229    0.0439    0.0434
     8          C      -0.0123   -0.2948    0.0618
     9          F       1.1955    2.2272    0.0440
    10          H      -0.2661    4.3872    0.0327
    11          H      -2.7545    4.3503    0.0388
    12          H      -3.9706    2.1905    0.0491
    13          O       0.5572   -0.5557    1.1530
    14          C       0.0185   -1.0585   -1.0632
    15          O       1.1787   -4.7609   -0.7681
    16          H       1.3563   -5.0944   -1.6639
    17          H       2.6410   -5.0080    0.0798
    18          O       3.4752   -5.1421    0.5624
    19          H       4.0877   -4.5216    0.1563
    20          H       0.5607   -1.9726   -1.1201
    21          H      -0.4903   -0.8002   -1.9596
    22          H       1.0857   -3.7833   -0.9139


    FIRST DERIVATIVES WILL BE USED IN THE CALCULATION OF SECOND DERIVATIVES

          ESTIMATED TIME TO COMPLETE CALCULATION =        6.19 SECONDS

    FOR POINT-GROUP C1   THERE ARE   1 UNIQUE SYMMETRY FUNCTIONS.

 STEP:   1 TIME =     0.04 SECS, INTEGRAL =      0.04 TIME LEFT:1209599.92
 STEP:   2 TIME =     0.03 SECS, INTEGRAL =      0.07 TIME LEFT:1209599.89
 STEP:   3 TIME =     0.02 SECS, INTEGRAL =      0.09 TIME LEFT:1209599.87
 STEP:   4 TIME =     0.02 SECS, INTEGRAL =      0.11 TIME LEFT:1209599.85
 STEP:   5 TIME =     0.02 SECS, INTEGRAL =      0.13 TIME LEFT:1209599.82
 STEP:   6 TIME =     0.02 SECS, INTEGRAL =      0.15 TIME LEFT:1209599.80
 STEP:   7 TIME =     0.02 SECS, INTEGRAL =      0.17 TIME LEFT:1209599.79
 STEP:   8 TIME =     0.02 SECS, INTEGRAL =      0.19 TIME LEFT:1209599.77
 STEP:   9 TIME =     0.02 SECS, INTEGRAL =      0.21 TIME LEFT:1209599.74
 STEP:  10 TIME =     0.02 SECS, INTEGRAL =      0.23 TIME LEFT:1209599.72
 STEP:  11 TIME =     0.02 SECS, INTEGRAL =      0.25 TIME LEFT:1209599.70
 STEP:  12 TIME =     0.02 SECS, INTEGRAL =      0.27 TIME LEFT:1209599.68
 STEP:  13 TIME =     0.02 SECS, INTEGRAL =      0.29 TIME LEFT:1209599.66
 STEP:  14 TIME =     0.02 SECS, INTEGRAL =      0.31 TIME LEFT:1209599.64
 STEP:  15 TIME =     0.02 SECS, INTEGRAL =      0.33 TIME LEFT:1209599.62
 STEP:  16 TIME =     0.02 SECS, INTEGRAL =      0.35 TIME LEFT:1209599.61
 STEP:  17 TIME =     0.02 SECS, INTEGRAL =      0.37 TIME LEFT:1209599.59
 STEP:  18 TIME =     0.02 SECS, INTEGRAL =      0.39 TIME LEFT:1209599.57
 STEP:  19 TIME =     0.02 SECS, INTEGRAL =      0.41 TIME LEFT:1209599.55
 STEP:  20 TIME =     0.02 SECS, INTEGRAL =      0.43 TIME LEFT:1209599.53
 STEP:  21 TIME =     0.02 SECS, INTEGRAL =      0.45 TIME LEFT:1209599.51
 STEP:  22 TIME =     0.02 SECS, INTEGRAL =      0.46 TIME LEFT:1209599.49
 STEP:  23 TIME =     0.02 SECS, INTEGRAL =      0.48 TIME LEFT:1209599.47
 STEP:  24 TIME =     0.02 SECS, INTEGRAL =      0.50 TIME LEFT:1209599.45
 STEP:  25 TIME =     0.02 SECS, INTEGRAL =      0.52 TIME LEFT:1209599.43
 STEP:  26 TIME =     0.02 SECS, INTEGRAL =      0.54 TIME LEFT:1209599.41
 STEP:  27 TIME =     0.02 SECS, INTEGRAL =      0.56 TIME LEFT:1209599.39
 STEP:  28 TIME =     0.02 SECS, INTEGRAL =      0.58 TIME LEFT:1209599.37
 STEP:  29 TIME =     0.02 SECS, INTEGRAL =      0.60 TIME LEFT:1209599.35
 STEP:  30 TIME =     0.02 SECS, INTEGRAL =      0.62 TIME LEFT:1209599.33
 STEP:  31 TIME =     0.02 SECS, INTEGRAL =      0.64 TIME LEFT:1209599.31
 STEP:  32 TIME =     0.02 SECS, INTEGRAL =      0.66 TIME LEFT:1209599.29
 STEP:  33 TIME =     0.02 SECS, INTEGRAL =      0.68 TIME LEFT:1209599.27
 STEP:  34 TIME =     0.02 SECS, INTEGRAL =      0.70 TIME LEFT:1209599.25
 STEP:  35 TIME =     0.02 SECS, INTEGRAL =      0.72 TIME LEFT:1209599.23
 STEP:  36 TIME =     0.02 SECS, INTEGRAL =      0.74 TIME LEFT:1209599.21
 STEP:  37 TIME =     0.02 SECS, INTEGRAL =      0.76 TIME LEFT:1209599.19
 STEP:  38 TIME =     0.02 SECS, INTEGRAL =      0.78 TIME LEFT:1209599.17
 STEP:  39 TIME =     0.02 SECS, INTEGRAL =      0.80 TIME LEFT:1209599.15
 STEP:  40 TIME =     0.02 SECS, INTEGRAL =      0.82 TIME LEFT:1209599.13
 STEP:  41 TIME =     0.02 SECS, INTEGRAL =      0.84 TIME LEFT:1209599.11
 STEP:  42 TIME =     0.02 SECS, INTEGRAL =      0.86 TIME LEFT:1209599.09
 STEP:  43 TIME =     0.02 SECS, INTEGRAL =      0.89 TIME LEFT:1209599.07
 STEP:  44 TIME =     0.02 SECS, INTEGRAL =      0.91 TIME LEFT:1209599.05
 STEP:  45 TIME =     0.02 SECS, INTEGRAL =      0.93 TIME LEFT:1209599.03
 STEP:  46 TIME =     0.02 SECS, INTEGRAL =      0.95 TIME LEFT:1209599.01
 STEP:  47 TIME =     0.02 SECS, INTEGRAL =      0.96 TIME LEFT:1209598.99
 STEP:  48 TIME =     0.02 SECS, INTEGRAL =      0.98 TIME LEFT:1209598.97
 STEP:  49 TIME =     0.02 SECS, INTEGRAL =      1.00 TIME LEFT:1209598.95
 STEP:  50 TIME =     0.02 SECS, INTEGRAL =      1.02 TIME LEFT:1209598.93
 STEP:  51 TIME =     0.02 SECS, INTEGRAL =      1.04 TIME LEFT:1209598.91
 STEP:  52 TIME =     0.02 SECS, INTEGRAL =      1.07 TIME LEFT:1209598.89
 STEP:  53 TIME =     0.02 SECS, INTEGRAL =      1.09 TIME LEFT:1209598.87
 STEP:  54 TIME =     0.02 SECS, INTEGRAL =      1.11 TIME LEFT:1209598.85
 STEP:  55 TIME =     0.02 SECS, INTEGRAL =      1.12 TIME LEFT:1209598.83
 STEP:  56 TIME =     0.02 SECS, INTEGRAL =      1.15 TIME LEFT:1209598.80
 STEP:  57 TIME =     0.02 SECS, INTEGRAL =      1.17 TIME LEFT:1209598.79
 STEP:  58 TIME =     0.02 SECS, INTEGRAL =      1.19 TIME LEFT:1209598.77
 STEP:  59 TIME =     0.02 SECS, INTEGRAL =      1.21 TIME LEFT:1209598.75
 STEP:  60 TIME =     0.02 SECS, INTEGRAL =      1.23 TIME LEFT:1209598.72
 STEP:  61 TIME =     0.02 SECS, INTEGRAL =      1.25 TIME LEFT:1209598.70
 STEP:  62 TIME =     0.02 SECS, INTEGRAL =      1.27 TIME LEFT:1209598.68
 STEP:  63 TIME =     0.02 SECS, INTEGRAL =      1.29 TIME LEFT:1209598.66
 STEP:  64 TIME =     0.02 SECS, INTEGRAL =      1.31 TIME LEFT:1209598.64
 STEP:  65 TIME =     0.02 SECS, INTEGRAL =      1.33 TIME LEFT:1209598.62
 STEP:  66 TIME =     0.02 SECS, INTEGRAL =      1.35 TIME LEFT:1209598.60

(To convert to Hartree/Bohr^2, multiply by (10^(-21) x N x a0^2)/(4.184 x 627.51) =  0.0642)


           FORCE MATRIX IN MILLIDYNES/ANGSTROM


                  C  1       C  2       C  3       C  4       C  5       C  6
 ------------------------------------------------------------------------------
     C    1  15.305829
     C    2   6.244794  16.250599
     C    3   1.961879   6.059949  18.372342
     C    4   1.192501   1.787566   6.095139  15.502877
     C    5   1.908257   1.121006   1.966003   6.326398  15.484856
     C    6   6.173055   1.899335   1.214808   1.887357   6.225357  15.374828
     H    7   3.407384   0.747595   0.087990   0.013620   0.081793   0.738843
     C    8   0.737960   3.202301   0.794146   0.090156   0.020093   0.096320
     F    9   0.133794   1.200036   7.917545   1.179694   0.121641   0.026028
     H   10   0.007903   0.076897   0.749821   3.407229   0.734579   0.082816
     H   11   0.085143   0.012938   0.088445   0.756118   3.395509   0.746390
     H   12   0.758536   0.082284   0.019322   0.083015   0.758731   3.409043
     O   13   0.053379   1.457391   0.086744   0.023769   0.008871   0.029469
     C   14   0.033349   0.833782   0.101146   0.023400   0.007719   0.019763
     O   15   0.000881   0.004119   0.003786   0.000844   0.001568   0.000947
     H   16   0.000306   0.001427   0.001213   0.000479   0.000641   0.000551
     H   17   0.000651   0.001652   0.000635   0.000718   0.000808   0.000600
     O   18   0.000920   0.001187   0.001143   0.000952   0.000926   0.000894
     H   19   0.000433   0.000248   0.000848   0.000515   0.000361   0.000475
     H   20   0.011474   0.095887   0.022288   0.002963   0.001016   0.002946
     H   21   0.007598   0.036373   0.018382   0.003546   0.002360   0.003393
     H   22   0.000826   0.005420   0.004065   0.001195   0.000914   0.001533


                  H  7       C  8       F  9       H 10       H 11       H 12
 ------------------------------------------------------------------------------
     H    7   4.307021
     C    8   0.053558  17.796318
     F    9   0.014233   0.128334   9.668362
     H   10   0.009491   0.022196   0.046554   4.327953
     H   11   0.009009   0.023705   0.013318   0.039177   4.289793
     H   12   0.031300   0.022552   0.019495   0.009387   0.030754   4.308952
     O   13   0.016082   8.513386   0.046893   0.009170   0.008742   0.007618
     C   14   0.014447   8.014594   0.089349   0.007482   0.008534   0.008771
     O   15   0.000993   0.016840   0.003579   0.001143   0.001237   0.001123
     H   16   0.000590   0.004780   0.001078   0.000469   0.000473   0.000449
     H   17   0.000858   0.003630   0.000930   0.000658   0.000544   0.000420
     O   18   0.000987   0.005161   0.000943   0.000707   0.000574   0.000562
     H   19   0.000483   0.002102   0.000633   0.000257   0.000177   0.000252
     H   20   0.002571   0.877609   0.027057   0.000673   0.000524   0.000635
     H   21   0.004062   0.886434   0.018622   0.001576   0.002184   0.002254
     H   22   0.001329   0.041999   0.004793   0.000736   0.000968   0.000831


                  O 13       C 14       O 15       H 16       H 17       O 18
 ------------------------------------------------------------------------------
     O   13  10.773683
     C   14   1.943410  14.295707
     O   15   0.008681   0.055739   7.167886
     H   16   0.003195   0.025691   3.880595   4.293101
     H   17   0.011102   0.013594   0.227741   0.116577   3.888497
     O   18   0.029255   0.061334   3.059813   0.044185   3.521076   8.265444
     H   19   0.019308   0.058814   0.059280   0.012544   0.782840   3.897883
     H   20   0.117480   3.549224   0.060525   0.019781   0.011915   0.007012
     H   21   0.138786   3.608097   0.003749   0.001081   0.000969   0.001524
     H   22   0.021702   0.055393   3.739229   0.770558   0.113583   0.038961


                  H 19       H 20       H 21       H 22
 ------------------------------------------------------
     H   19   4.315732
     H   20   0.002303   4.329241
     H   21   0.000661   0.471585   4.426799
     H   22   0.010304   0.077630   0.007022   4.070412


          HEAT OF FORMATION =    -282.654290 KCALS/MOLE


          TRIVIAL VIBRATIONS, SHOULD BE ZERO

  32.7820=TX -36.1461=TY  20.4488=TZ -39.5893=RX -31.3697=RY -46.1334=RZ


      MOLECULAR POINT GROUP   :   C1  


           EIGENVECTORS  


   Root No.       1         2         3         4         5         6         7         8

                 1 A       2 A       3 A       4 A       5 A       6 A       7 A       8 A   

                  -0.0      -0.0      -0.0      -0.0      -0.0      -0.0       0.0       0.0
  
           1   -0.0151    0.0550    0.0897   -0.0764   -0.0298    0.0409   -0.0082   -0.0779
           2   -0.0512   -0.0489   -0.0802   -0.0046    0.0082   -0.0583    0.0116    0.0579
           3    0.0774    0.0669   -0.1472    0.0467   -0.0567    0.0278    0.0342   -0.2028
           4   -0.0163    0.0552    0.0903   -0.0766   -0.0292    0.0408   -0.0086   -0.0797
           5   -0.0493   -0.0201   -0.0260   -0.0977   -0.0603   -0.0621   -0.0042    0.0102
           6    0.0107   -0.0192   -0.0667    0.0007    0.0356   -0.0121    0.0169   -0.2352
           7   -0.0204    0.0285    0.0396    0.0053    0.0308    0.0435    0.0057   -0.0405
           8   -0.0465   -0.0056    0.0020   -0.1414   -0.0924   -0.0637   -0.0114   -0.0076
           9   -0.1009   -0.0708    0.0561   -0.0215    0.0597   -0.0022   -0.0406   -0.1595
          10   -0.0210    0.0019   -0.0101    0.0864    0.0905    0.0457    0.0210    0.0054
          11   -0.0474   -0.0200   -0.0248   -0.0963   -0.0594   -0.0620   -0.0034    0.0174
          12   -0.1087   -0.0212    0.0819   -0.0011   -0.0168    0.0451   -0.0621    0.1070
          13   -0.0211    0.0023   -0.0091    0.0850    0.0895    0.0456    0.0207    0.0043
          14   -0.0495   -0.0493   -0.0808   -0.0029    0.0090   -0.0583    0.0126    0.0643
          15   -0.0287    0.0493    0.0087    0.0310   -0.0839    0.0672   -0.0362    0.2249
          16   -0.0172    0.0289    0.0404    0.0042    0.0294    0.0432    0.0066   -0.0345
          17   -0.0510   -0.0639   -0.1091    0.0425    0.0423   -0.0568    0.0207    0.0861
          18    0.0433    0.0817   -0.0871    0.0524   -0.0967    0.0582    0.0012    0.0467
          19   -0.0162    0.0739    0.1278   -0.1410   -0.0749    0.0374   -0.0192   -0.1167
          20   -0.0501   -0.0598   -0.1015    0.0319    0.0337   -0.0562    0.0179    0.0804
          21    0.1318    0.0955   -0.2048    0.0535   -0.0705    0.0227    0.0607   -0.3045
          22    0.0062    0.0779    0.1397   -0.1474   -0.0870    0.0361   -0.0088   -0.0603
          23   -0.0400   -0.0065    0.0039   -0.1429   -0.0913   -0.0686   -0.0023    0.0242
          24    0.1032   -0.0463   -0.0793   -0.0789    0.1388   -0.0859    0.0646   -0.1293
          25   -0.0200    0.0283    0.0392    0.0059    0.0311    0.0436    0.0058   -0.0404
          26   -0.0469    0.0219    0.0569   -0.2230   -0.1536   -0.0640   -0.0276   -0.0554
          27   -0.2158   -0.1800    0.1736   -0.0831    0.1715   -0.0470   -0.0803   -0.3370
          28   -0.0226   -0.0186   -0.0487    0.1494    0.1365    0.0474    0.0329    0.0400
          29   -0.0467   -0.0084   -0.0023   -0.1319   -0.0854   -0.0628   -0.0103   -0.0014
          30   -0.1583   -0.0377    0.1481   -0.0175   -0.0135    0.0522   -0.0875    0.2049
          31   -0.0225   -0.0171   -0.0470    0.1474    0.1341    0.0481    0.0317    0.0391
          32   -0.0504   -0.0614   -0.1041    0.0345    0.0361   -0.0576    0.0195    0.0860
          33   -0.0271    0.0679    0.0334    0.0312   -0.1116    0.0826   -0.0449    0.4272
          34   -0.0173    0.0291    0.0408    0.0037    0.0290    0.0434    0.0065   -0.0353
          35   -0.0534   -0.0890   -0.1549    0.1177    0.0992   -0.0556    0.0348    0.1277
          36    0.0732    0.1116   -0.1025    0.0596   -0.1276    0.0684    0.0044    0.1034
          37   -0.2493    0.2170    0.3072   -0.2008   -0.1148   -0.0132    0.0357   -0.0984
          38   -0.0731    0.0632    0.1154   -0.2820   -0.0374   -0.1651    0.0681    0.1811
          39    0.2322   -0.1034   -0.1415   -0.0863    0.1657   -0.0838    0.0590   -0.0655
          40    0.2814   -0.0486    0.0143   -0.1369   -0.0984    0.0767   -0.0402    0.0515
          41    0.0111   -0.0762   -0.0923   -0.0128   -0.1872    0.0370   -0.0707   -0.1320
          42    0.0811   -0.0044   -0.0196   -0.1679    0.2009   -0.1552    0.1102   -0.0170
          43   -0.1118    0.0263   -0.1573    0.0802   -0.0098   -0.1128    0.0388    0.0317
          44    0.2065    0.2510    0.2079    0.2285    0.1434   -0.1450   -0.2065   -0.0388
          45   -0.0111   -0.2137    0.1677    0.1230   -0.0466    0.0074   -0.2162    0.0544
          46   -0.1601    0.0687   -0.2094    0.0244   -0.0327    0.0370    0.3716    0.0395
          47    0.1986    0.0598    0.3341    0.3299   -0.0639   -0.1089    0.4436   -0.0589
          48   -0.0169   -0.1305    0.1101    0.0736    0.0291    0.0214   -0.3980    0.0640
          49   -0.1092   -0.1358   -0.0870    0.1067    0.0368   -0.1310   -0.0072    0.0484
          50    0.0965    0.1526    0.1117    0.0610    0.2249    0.1877   -0.1418   -0.0172
          51   -0.0529    0.0340    0.0180    0.0260   -0.1003    0.1389   -0.1130    0.0332
          52   -0.1064   -0.2727   -0.0412    0.0988    0.0696   -0.1233   -0.0558    0.0535
          53   -0.0467   -0.0123    0.0296   -0.0614    0.2406    0.5146    0.0288   -0.0036
          54   -0.0938    0.2246   -0.0839    0.0055   -0.1538    0.2163    0.0158    0.0280
          55   -0.0458   -0.0860   -0.0244    0.1238    0.0019   -0.1952   -0.1132    0.0305
          56   -0.0968   -0.0424   -0.0453    0.0032    0.3331    0.3991    0.1448    0.0340
          57   -0.0726    0.4614   -0.1722    0.1395   -0.1193   -0.0671    0.1058    0.0517
          58    0.3837   -0.0737    0.0383   -0.1658   -0.1447    0.0780   -0.0036    0.1286
          59    0.0636   -0.0936   -0.0787   -0.0241   -0.2224    0.0442   -0.0500   -0.1030
          60    0.1598    0.0002   -0.0227   -0.2766    0.2882   -0.2149    0.1277    0.1704
          61    0.4499   -0.1413   -0.1222   -0.0970   -0.0636    0.1072   -0.0731    0.1052
          62    0.0140   -0.1252   -0.1875    0.1204   -0.2369    0.1210   -0.1296   -0.3081
          63   -0.0154    0.0351    0.0315   -0.1535    0.1666   -0.1486    0.1119   -0.0950
          64   -0.1289    0.1006   -0.2110    0.1207    0.0058   -0.2390   -0.2393    0.0059
          65    0.2087    0.2339    0.2262    0.2515    0.1197   -0.1586   -0.1446   -0.0433
          66   -0.0105   -0.4010    0.2983    0.2437   -0.2587    0.0087    0.3665    0.0299


   Root No.       9        10        11        12        13        14        15        16

                 9 A      10 A      11 A      12 A      13 A      14 A      15 A      16 A   

                   0.0       0.1       0.1       0.1       0.1       0.2       0.3       0.3
  
           1    0.0331   -0.1349    0.0808   -0.0187    0.0014   -0.0133   -0.1200   -0.0136
           2   -0.0174    0.0007   -0.0153   -0.0079    0.0209    0.0431   -0.0439   -0.0045
           3   -0.0089    0.0487   -0.0300    0.0297   -0.0986    0.1612    0.0353    0.0157
           4    0.0326   -0.1389    0.0824   -0.0198    0.0053   -0.0113   -0.1204   -0.0138
           5    0.0056   -0.0764    0.0340   -0.0135    0.0212    0.0274   -0.0758   -0.0062
           6   -0.0053    0.0374   -0.0193    0.0005   -0.1064   -0.0957    0.0695    0.0051
           7    0.0165   -0.0696    0.0403   -0.0119   -0.0054   -0.0229   -0.0732   -0.0104
           8    0.0135   -0.1076    0.0532   -0.0167    0.0255    0.0382   -0.1032   -0.0079
           9    0.0002    0.0550   -0.0532    0.0070    0.0661    0.0126    0.0214    0.0026
          10   -0.0027    0.0152   -0.0113   -0.0020   -0.0142   -0.0228   -0.0056   -0.0052
          11    0.0029   -0.0661    0.0274   -0.0125    0.0238    0.0412   -0.0779   -0.0063
          12    0.0047   -0.0047   -0.0030   -0.0015   -0.1589    0.1247   -0.0402   -0.0156
          13   -0.0025    0.0141   -0.0109   -0.0021   -0.0110   -0.0226   -0.0068   -0.0053
          14   -0.0191    0.0145   -0.0234   -0.0053    0.0208    0.0469   -0.0279   -0.0029
          15    0.0023   -0.0430    0.0283   -0.0083   -0.0165   -0.0969    0.0524    0.0169
          16    0.0147   -0.0553    0.0320   -0.0093   -0.0038   -0.0153   -0.0600   -0.0092
          17   -0.0289    0.0536   -0.0474   -0.0012    0.0147    0.0444    0.0013   -0.0008
          18   -0.0048    0.0087   -0.0139    0.0192    0.1691    0.0126   -0.0347   -0.0100
          19    0.0515   -0.2103    0.1287   -0.0277    0.0001   -0.0279   -0.2008   -0.0196
          20   -0.0278    0.0442   -0.0427   -0.0027    0.0213    0.0517   -0.0010   -0.0014
          21   -0.0127    0.0808   -0.0505    0.0543   -0.2134    0.4711    0.0569    0.0542
          22    0.0351    0.0031    0.0090    0.0187   -0.0173   -0.0167    0.1060    0.0093
          23    0.0078    0.0076   -0.0093    0.0099    0.0077    0.0192    0.0661    0.0091
          24   -0.0098   -0.0172    0.0354   -0.0321   -0.1158   -0.2094    0.0170   -0.0108
          25    0.0165   -0.0689    0.0400   -0.0118   -0.0056   -0.0235   -0.0733   -0.0104
          26    0.0314   -0.1900    0.1017   -0.0270    0.0451    0.0543   -0.1988   -0.0157
          27    0.0007    0.1425   -0.1504    0.0255    0.5409    0.0697    0.0469    0.0333
          28   -0.0176    0.0827   -0.0527    0.0064   -0.0203   -0.0257    0.0602   -0.0000
          29    0.0114   -0.1056    0.0516   -0.0176    0.0260    0.0459   -0.1217   -0.0102
          30    0.0092   -0.0211    0.0108   -0.0026   -0.3830    0.3854   -0.1979   -0.0650
          31   -0.0170    0.0750   -0.0482    0.0048   -0.0176   -0.0257    0.0431   -0.0009
          32   -0.0283    0.0515   -0.0463   -0.0013    0.0178    0.0472    0.0010   -0.0004
          33    0.0057   -0.1051    0.0774   -0.0340   -0.0108   -0.3506    0.2237    0.0816
          34    0.0153   -0.0569    0.0331   -0.0095   -0.0033   -0.0164   -0.0642   -0.0096
          35   -0.0481    0.1358   -0.0984    0.0085    0.0078    0.0482    0.0790    0.0060
          36   -0.0051    0.0122   -0.0305    0.0301    0.5427   -0.0068   -0.2111   -0.0671
          37    0.0192    0.2164   -0.1039    0.0722   -0.0730    0.0019    0.4235    0.0563
          38   -0.0007    0.1696   -0.0706    0.0432    0.0026    0.0311    0.2633    0.0365
          39   -0.0037   -0.0872    0.0787   -0.0518   -0.0864   -0.2086   -0.1009   -0.0276
          40    0.0352    0.0674   -0.0341    0.0285    0.0422    0.0393    0.0440   -0.0015
          41    0.0250    0.0027   -0.0213    0.0160   -0.0462   -0.0995    0.0549   -0.0063
          42   -0.0207   -0.0101    0.0434   -0.0366   -0.0805   -0.1315    0.0267   -0.0002
          43   -0.0681    0.0494    0.0504   -0.1057    0.0202    0.0164    0.0500   -0.3808
          44   -0.0772   -0.0254    0.0201    0.1552    0.0012   -0.0044    0.0322   -0.1689
          45    0.0503   -0.0597   -0.0319    0.1346   -0.0234   -0.0027    0.0009    0.0531
          46   -0.4185   -0.2552   -0.2285    0.4954    0.0020   -0.0397   -0.0618    0.2547
          47   -0.0816   -0.0036    0.0962   -0.0444    0.0301    0.0188    0.0186   -0.0680
          48   -0.0175   -0.1286   -0.1151    0.3293   -0.0377   -0.0221   -0.0145    0.1360
          49    0.1593   -0.0272   -0.1021   -0.1553   -0.0063    0.0203    0.0296   -0.1475
          50   -0.0486   -0.1243   -0.3515   -0.2916   -0.0413   -0.0309   -0.0849    0.3552
          51   -0.3236    0.0279    0.0943    0.0645    0.0108   -0.0114    0.0286   -0.3563
          52    0.0932   -0.0380   -0.0185    0.0485   -0.0184    0.0140    0.0388   -0.2716
          53   -0.1808    0.1089    0.0877   -0.2726   -0.0008    0.0133   -0.0016    0.0791
          54   -0.2545    0.1191    0.0822   -0.2813    0.0426    0.0099    0.0270   -0.1674
          55   -0.0217   -0.0970   -0.3173   -0.3768   -0.0273    0.0056   -0.0130    0.0515
          56    0.4562    0.0525    0.2151    0.3073    0.0083    0.0105    0.0231   -0.1060
          57    0.5589   -0.0586   -0.1872   -0.0385    0.0435   -0.0058   -0.0151    0.0676
          58    0.0521    0.4812   -0.2258    0.1195   -0.0494   -0.0874   -0.2792   -0.0274
          59    0.0365    0.2502   -0.1404    0.0711   -0.1163   -0.2105   -0.1380   -0.0289
          60   -0.0435   -0.1209    0.0882   -0.0585    0.0688    0.1601    0.1241    0.0383
          61    0.0361   -0.1897    0.0936   -0.0277    0.1677    0.2685    0.3719    0.0775
          62    0.0413   -0.2087    0.0804   -0.0264   -0.0990   -0.2367    0.3197    0.0098
          63   -0.0167    0.0790   -0.0014   -0.0158   -0.1633   -0.2917   -0.0858   -0.0377
          64   -0.0623    0.3372    0.5631   -0.0157    0.0340    0.0051   -0.0888    0.4775
          65   -0.0734    0.0161    0.0994    0.1295    0.0085    0.0006    0.0154   -0.0613
          66    0.0948    0.0450    0.1477   -0.1335    0.0103    0.0256   -0.0300    0.2533


   Root No.      17        18        19        20        21        22        23        24

                17 A      18 A      19 A      20 A      21 A      22 A      23 A      24 A   

                   0.3       0.4       0.5       0.7       0.9       0.9       0.9       1.0
  
           1    0.0472   -0.0039   -0.0112   -0.0560    0.0021   -0.0224    0.0299   -0.0668
           2    0.0446   -0.0063   -0.0567   -0.0825    0.0077   -0.0601    0.0196    0.0478
           3    0.0733   -0.0022   -0.1905    0.0675   -0.1287   -0.0136    0.0049   -0.0141
           4    0.0491   -0.0055   -0.0240   -0.0800    0.0068    0.0033    0.0100   -0.0441
           5    0.0382    0.0008    0.0248    0.1385   -0.0161   -0.0123    0.0190   -0.0266
           6    0.0059   -0.0243   -0.3605    0.0274    0.0785    0.0176   -0.0329    0.0288
           7    0.0154    0.0037    0.0413    0.0931   -0.0067   -0.0333   -0.0521   -0.1113
           8    0.0626   -0.0056   -0.0248    0.0155   -0.0089    0.0089    0.0295   -0.0415
           9    0.0199   -0.0139   -0.2657    0.0930   -0.1692   -0.0192    0.0231   -0.0004
          10   -0.0136    0.0068    0.0502    0.1006   -0.0077    0.0246   -0.0069   -0.1560
          11    0.0521   -0.0053   -0.0307   -0.0038   -0.0107    0.0689    0.0671   -0.0925
          12   -0.0732   -0.0090   -0.1712    0.0968   -0.2788   -0.0397    0.0483   -0.0256
          13   -0.0130    0.0063    0.0450    0.0885   -0.0099    0.0512   -0.0195   -0.1427
          14    0.0416   -0.0076   -0.0738   -0.1418    0.0087   -0.0133    0.0962    0.0510
          15    0.0966   -0.0013   -0.1470    0.0917   -0.2862   -0.0404    0.0430   -0.0367
          16    0.0170    0.0001    0.0043   -0.0321   -0.0003    0.0629    0.0732   -0.1750
          17    0.0263   -0.0047   -0.0561   -0.0924    0.0066   -0.0288    0.0229    0.0226
          18   -0.0900   -0.0025   -0.1627    0.0844   -0.2443   -0.0268    0.0278   -0.0340
          19    0.0724    0.0029    0.0744    0.2723   -0.0880    0.1425   -0.1824    0.4947
          20    0.0328   -0.0105   -0.1096   -0.2843    0.0591   -0.1626    0.1489   -0.2776
          21    0.3412    0.0369    0.3564   -0.0514    0.0468   -0.0011    0.0091    0.0024
          22   -0.0537   -0.0006   -0.0062   -0.1625   -0.0237    0.0287   -0.0058   -0.0480
          23   -0.0337    0.0086    0.0665    0.2222    0.0056   -0.0279    0.0542   -0.0414
          24   -0.0851   -0.0121   -0.0138   -0.1039    0.0541    0.0186   -0.0345    0.0309
          25    0.0151    0.0037    0.0420    0.0932   -0.0065   -0.0317   -0.0493   -0.1188
          26    0.1281   -0.0187   -0.1349   -0.2763    0.0025   -0.0034    0.1594    0.3387
          27    0.2338    0.0181    0.2446   -0.0326    0.0339    0.0017   -0.0027   -0.0071
          28   -0.0468    0.0101    0.0528    0.0777    0.0142    0.1324    0.6662    0.2798
          29    0.0725   -0.0076   -0.0331    0.0087   -0.0204    0.0191   -0.2967   -0.3684
          30   -0.3343   -0.0006    0.2129   -0.1025    0.2529    0.0327   -0.0389    0.0262
          31   -0.0301    0.0085    0.0489    0.0914    0.0000   -0.5088   -0.4022    0.2202
          32    0.0344   -0.0072   -0.0807   -0.1650    0.0167   -0.3505   -0.1180    0.3003
          33    0.4984    0.0209    0.2015   -0.0802    0.2276    0.0326   -0.0285    0.0221
          34    0.0175    0.0004    0.0062   -0.0331   -0.0012    0.0697    0.0838   -0.2136
          35   -0.0018   -0.0031   -0.0541   -0.0277   -0.0703    0.7115   -0.3714    0.1392
          36   -0.4490    0.0026    0.1138   -0.0783    0.2082    0.0280   -0.0305    0.0329
          37   -0.1343    0.0023   -0.2315   -0.1690    0.2203    0.0438   -0.0795    0.0517
          38   -0.1772    0.0482    0.3843    0.1758   -0.4238   -0.0879    0.0732   -0.0097
          39   -0.0748   -0.0042    0.1670   -0.1055   -0.1721   -0.0040    0.0090   -0.0128
          40   -0.0059   -0.0082    0.0328   -0.1588   -0.0892    0.0209   -0.0005   -0.0285
          41   -0.0492   -0.0030    0.0071    0.2320    0.1432   -0.0220    0.0539   -0.0361
          42   -0.0814   -0.0036    0.0363   -0.0976   -0.0348    0.0113   -0.0299    0.0260
          43    0.0407    0.0752    0.0022    0.0008   -0.0024   -0.0008    0.0004   -0.0005
          44    0.0185   -0.1359    0.0091    0.0094    0.0014   -0.0011    0.0012    0.0003
          45   -0.0031   -0.1130    0.0023    0.0015   -0.0007   -0.0001    0.0000    0.0002
          46   -0.0200   -0.0736    0.0137   -0.0042   -0.0019   -0.0001    0.0001   -0.0007
          47    0.0055    0.0103    0.0007    0.0112    0.0055   -0.0011    0.0021   -0.0011
          48   -0.0098   -0.2126    0.0090    0.0004   -0.0027   -0.0001   -0.0003    0.0008
          49    0.0187   -0.2223    0.0149    0.0086   -0.0045   -0.0025    0.0020   -0.0007
          50   -0.0437    0.4910   -0.0259   -0.0076    0.0004    0.0007   -0.0005   -0.0010
          51    0.0333    0.5788   -0.0324   -0.0053    0.0128    0.0023   -0.0024    0.0007
          52    0.0270    0.1517   -0.0141   -0.0009    0.0017   -0.0006   -0.0001   -0.0008
          53   -0.0049   -0.3324    0.0225    0.0082   -0.0035   -0.0016    0.0013   -0.0004
          54    0.0242   -0.3106    0.0351    0.0111   -0.0055   -0.0016    0.0018    0.0007
          55   -0.0043   -0.0746    0.0049    0.0060    0.0016   -0.0014    0.0008   -0.0004
          56    0.0115    0.1049   -0.0148   -0.0052    0.0049    0.0008   -0.0012   -0.0005
          57   -0.0005    0.0037    0.0045   -0.0066    0.0078    0.0025   -0.0017    0.0002
          58    0.1170   -0.0122   -0.0509   -0.0313    0.0571    0.0086   -0.0216    0.0159
          59    0.0048   -0.0048   -0.0026    0.2978    0.2032   -0.0329    0.0443   -0.0095
          60   -0.0000   -0.0090   -0.1610    0.4059    0.4452   -0.0281    0.0614   -0.0361
          61   -0.0709    0.0129   -0.0900   -0.0997   -0.0670    0.0124   -0.0471    0.0475
          62   -0.2710    0.0084    0.1758   -0.0359    0.0889   -0.0045   -0.0048    0.0060
          63   -0.1004   -0.0130    0.1318   -0.2157   -0.0480    0.0266   -0.0267   -0.0029
          64   -0.0446    0.1163   -0.0058   -0.0048    0.0053    0.0007    0.0007   -0.0017
          65    0.0080   -0.1194    0.0069    0.0032   -0.0007   -0.0001   -0.0000    0.0003
          66   -0.0249    0.0711   -0.0103   -0.0000    0.0034    0.0006    0.0005   -0.0021


   Root No.      25        26        27        28        29        30        31        32

                25 A      26 A      27 A      28 A      29 A      30 A      31 A      32 A   

                   1.2       1.3       1.4       1.5       1.5       1.6       1.9       2.0
  
           1   -0.0249   -0.0292   -0.0405    0.0719    0.0698    0.0002    0.0470    0.1168
           2   -0.1401   -0.0739   -0.0888    0.1816    0.2272    0.0004   -0.0368   -0.0598
           3   -0.0449    0.1071    0.3991    0.2324   -0.0238    0.0010   -0.2914    0.1347
           4    0.0250   -0.0154   -0.0435    0.0772    0.0882    0.0000    0.0426    0.0700
           5   -0.0416    0.0509   -0.0072    0.0264    0.0654   -0.0000   -0.0629   -0.1407
           6   -0.1564    0.2217    0.0985   -0.1212    0.1002    0.0013   -0.2023    0.0643
           7    0.0820    0.1084   -0.1133    0.1932    0.2312    0.0002   -0.0270    0.0095
           8   -0.0588    0.0070    0.0268   -0.0488   -0.0508    0.0003   -0.0468   -0.1472
           9   -0.0304    0.0514   -0.2887   -0.3044    0.1140    0.0011   -0.3295    0.1444
          10    0.0081    0.0759   -0.0103   -0.0073   -0.0483    0.0011   -0.0640   -0.1206
          11   -0.1389   -0.0287    0.0714   -0.1472   -0.2154    0.0011   -0.0742   -0.2267
          12    0.0949   -0.1539   -0.3605   -0.1918    0.0188   -0.0012    0.0913   -0.0358
          13    0.0561    0.0960   -0.0050   -0.0225   -0.0757    0.0013   -0.0511   -0.0845
          14   -0.2022   -0.1529    0.0172   -0.0257   -0.0639    0.0010    0.0567    0.1699
          15    0.1231   -0.1868   -0.0557    0.1163   -0.0945   -0.0020    0.3635   -0.1567
          16   -0.0196   -0.0023    0.0387   -0.1125   -0.2285    0.0016    0.0861    0.2718
          17   -0.1364   -0.0841   -0.0233    0.0520    0.0508    0.0008   -0.0063    0.0204
          18    0.0773   -0.0819    0.2928    0.3257   -0.1193   -0.0008    0.1132   -0.0383
          19   -0.3588   -0.1998   -0.0404    0.1097    0.0917    0.0007   -0.0208    0.0145
          20    0.0047   -0.0065   -0.1250    0.2367    0.3151   -0.0000   -0.0026    0.0064
          21    0.0406   -0.0752   -0.2477   -0.1361    0.0115   -0.0017    0.1199   -0.0542
          22    0.0990   -0.1971    0.1912   -0.1836    0.1976   -0.0070    0.0632   -0.0078
          23    0.0496   -0.0061    0.1152   -0.1144    0.1272   -0.0034    0.0153   -0.0639
          24   -0.1053    0.1499   -0.0228   -0.0010   -0.0040   -0.0019    0.2286   -0.0579
          25    0.0828    0.1126   -0.1193    0.2054    0.2449    0.0002   -0.0294    0.0064
          26    0.5412    0.3485   -0.0460    0.0112   -0.1461    0.0032   -0.0253    0.0256
          27    0.0198   -0.0331    0.1271    0.1536   -0.0619    0.0008    0.1079   -0.0422
          28   -0.0526    0.0238    0.0732   -0.0935   -0.0997    0.0001   -0.0950   -0.2986
          29   -0.1416    0.0107    0.0486   -0.1467   -0.2766    0.0023   -0.1255   -0.3153
          30   -0.0603    0.0998    0.2159    0.1129   -0.0071    0.0011   -0.0383    0.0189
          31    0.2561    0.1259    0.0784   -0.1381   -0.1168    0.0001   -0.0421   -0.1638
          32   -0.1551   -0.2043    0.0734   -0.0990   -0.0938    0.0003    0.1076    0.2493
          33   -0.0807    0.1218    0.0397   -0.0635    0.0542    0.0003   -0.1845    0.0769
          34   -0.0261   -0.0006    0.0496   -0.1500   -0.3112    0.0022    0.1365    0.4491
          35    0.2335    0.0166   -0.0031    0.0028    0.0607    0.0001    0.0571    0.0826
          36   -0.0582    0.0595   -0.1722   -0.1914    0.0705   -0.0012   -0.0580    0.0171
          37   -0.0977    0.0306   -0.0730    0.0565   -0.0521    0.0040    0.1592   -0.1195
          38   -0.0238    0.2103   -0.0319    0.0457   -0.0048   -0.0020   -0.1560    0.2681
          39   -0.0256    0.0967    0.0829   -0.0955    0.1045   -0.0076    0.1550    0.0798
          40    0.1690   -0.2901    0.2862   -0.2459    0.2612   -0.0071   -0.1208   -0.0549
          41    0.0932   -0.0015    0.2167   -0.2187    0.2424   -0.0064    0.2162    0.0162
          42   -0.1202    0.1354   -0.0875    0.0677   -0.0751   -0.0002    0.1143   -0.1145
          43   -0.0019    0.0008    0.0006   -0.0033    0.0045    0.4623    0.0036   -0.0031
          44   -0.0018    0.0047   -0.0008   -0.0005    0.0007    0.1469    0.0047   -0.0200
          45   -0.0022    0.0037    0.0052    0.0026   -0.0003   -0.1113    0.0009    0.0375
          46   -0.0002   -0.0016   -0.0036   -0.0027    0.0011    0.0270   -0.0003   -0.0075
          47    0.0040   -0.0013   -0.0012   -0.0006   -0.0009   -0.3602    0.0060    0.0555
          48   -0.0049    0.0062    0.0033    0.0037   -0.0014    0.0213   -0.0001    0.0104
          49   -0.0024    0.0060   -0.0020    0.0040   -0.0025    0.1176    0.0039    0.0382
          50    0.0007   -0.0021    0.0068   -0.0048    0.0062    0.3117    0.0050    0.0276
          51   -0.0008   -0.0014   -0.0037    0.0044   -0.0055   -0.2920   -0.0050   -0.0161
          52   -0.0005   -0.0014    0.0021    0.0028   -0.0014   -0.0638   -0.0030    0.0039
          53   -0.0015    0.0007    0.0006    0.0025   -0.0025   -0.1948   -0.0055   -0.0215
          54   -0.0050    0.0104   -0.0063    0.0021   -0.0023    0.1790    0.0047    0.0281
          55   -0.0013    0.0007   -0.0051    0.0079   -0.0086   -0.4436   -0.0092   -0.0386
          56   -0.0002   -0.0032    0.0027   -0.0004    0.0004   -0.0392   -0.0012   -0.0038
          57    0.0020   -0.0057   -0.0023   -0.0049    0.0022   -0.1268   -0.0015   -0.0148
          58    0.0019   -0.0834   -0.1792    0.1900   -0.1961    0.0020   -0.2012    0.0112
          59   -0.0312    0.1944   -0.0486    0.0177   -0.0023    0.0003    0.3288    0.0525
          60    0.2415   -0.2673   -0.0482    0.0804   -0.0705    0.0090   -0.0549    0.1272
          61   -0.2006    0.2491   -0.0877    0.0452   -0.0530   -0.0017    0.1216   -0.1035
          62    0.1481   -0.2789   -0.2007    0.2292   -0.2372    0.0106   -0.2503    0.0610
          63    0.0898   -0.2483    0.0197    0.0138   -0.0183   -0.0007   -0.1275   -0.1662
          64    0.0065   -0.0092    0.0033   -0.0044    0.0036   -0.0974    0.0000    0.0110
          65   -0.0018   -0.0002   -0.0029    0.0010   -0.0020    0.1269   -0.0041   -0.0361
          66    0.0061   -0.0102    0.0115   -0.0056    0.0081    0.3325   -0.0063   -0.0428


   Root No.      33        34        35        36        37        38        39        40

                33 A      34 A      35 A      36 A      37 A      38 A      39 A      40 A   

                   2.1       3.0       3.2       3.2       3.4       3.5       3.7       4.4
  
           1   -0.0136    0.0802    0.2318   -0.0368   -0.0105   -0.0566    0.0933   -0.1943
           2    0.0079    0.1554   -0.0935    0.0231    0.0003    0.1049   -0.0284    0.1032
           3   -0.0126   -0.0463    0.1950    0.4453   -0.0038    0.0375   -0.0768    0.0732
           4   -0.0079    0.0121    0.2275   -0.0518   -0.0061   -0.1369    0.0274   -0.1527
           5    0.0152   -0.2414    0.0499   -0.0253   -0.0056    0.0632    0.1628   -0.1088
           6   -0.0050    0.0504   -0.2215   -0.0263    0.0217   -0.1943    0.4771    0.0259
           7   -0.0027   -0.2897   -0.1296    0.0086    0.0116   -0.1397   -0.0523   -0.0407
           8    0.0173   -0.1289    0.1887   -0.0403   -0.0082   -0.0301    0.1621   -0.2061
           9   -0.0128   -0.0133    0.0467   -0.4765   -0.0169    0.1151   -0.2031    0.0245
          10    0.0142    0.0491   -0.1988    0.0498    0.0112   -0.0194   -0.1424    0.1947
          11    0.0280    0.0325    0.1111   -0.0205   -0.0028   -0.0575    0.0387   -0.1157
          12    0.0044   -0.0286    0.1458    0.5220   -0.0023    0.0480   -0.1805   -0.1038
          13    0.0098    0.1126   -0.1802    0.0373    0.0056    0.0774   -0.1034    0.2159
          14   -0.0198   -0.0875   -0.1446    0.0201    0.0093   -0.0381   -0.0961    0.1277
          15    0.0149    0.0487   -0.2009   -0.0694    0.0186   -0.1750    0.4370    0.1604
          16   -0.0330   -0.0093   -0.0207    0.0052   -0.0038    0.0727    0.0366   -0.0019
          17   -0.0019    0.0398   -0.2224    0.0521    0.0094    0.0644   -0.1088    0.2442
          18    0.0030   -0.0017    0.0083   -0.4204   -0.0142    0.1247   -0.3141   -0.1522
          19   -0.0013    0.2772   -0.0772    0.0312   -0.0048    0.1737    0.0086    0.0545
          20    0.0007    0.3753    0.1726   -0.0151   -0.0186    0.2009    0.1389   -0.0938
          21    0.0051    0.0130   -0.0581   -0.1413    0.0017   -0.0108    0.0275   -0.0117
          22    0.0034    0.0186    0.3648   -0.0907    0.0015   -0.1954   -0.0540    0.5312
          23    0.0056   -0.2576    0.1368   -0.0459   -0.0121    0.2206    0.1667    0.2935
          24    0.0014    0.0897   -0.0748    0.0377    0.0054   -0.0742   -0.1207   -0.1845
          25   -0.0024   -0.3573   -0.1506    0.0090    0.0154   -0.1993   -0.0765   -0.0487
          26   -0.0035    0.0659   -0.1881    0.0452    0.0077    0.0323   -0.0924    0.1321
          27    0.0042    0.0033    0.0001    0.1219    0.0031   -0.0338    0.0542    0.0083
          28    0.0356    0.0088    0.1076   -0.0229    0.0005   -0.1358   -0.0137   -0.1131
          29    0.0396    0.1338   -0.0843    0.0183    0.0134   -0.2049   -0.1901   -0.0017
          30   -0.0011    0.0079   -0.0433   -0.1559   -0.0003   -0.0124    0.0471    0.0211
          31    0.0193    0.1704    0.1795   -0.0245   -0.0153    0.1369    0.1368   -0.0711
          32   -0.0294   -0.3281   -0.0001   -0.0217    0.0115   -0.2695   -0.0916   -0.0887
          33   -0.0062   -0.0175    0.0673    0.0262   -0.0056    0.0505   -0.1189   -0.0333
          34   -0.0551   -0.0082   -0.0594    0.0144   -0.0132    0.2981    0.1757   -0.0484
          35   -0.0091   -0.0178    0.1585   -0.0295   -0.0063   -0.0419    0.0636   -0.1055
          36   -0.0008   -0.0000   -0.0005    0.1360    0.0049   -0.0345    0.0837    0.0336
          37    0.0150    0.0388   -0.0715    0.0309    0.0043   -0.0236   -0.1209   -0.1317
          38   -0.0347    0.1600   -0.0793    0.0036    0.0076   -0.1286    0.0611   -0.0951
          39   -0.0137    0.1982    0.1009   -0.0155    0.0101   -0.2879   -0.1342    0.0641
          40    0.0089    0.0423   -0.3147    0.0647    0.0116    0.0684   -0.0195   -0.2771
          41   -0.0050    0.0600   -0.1550    0.0446    0.0057    0.0560   -0.0690   -0.1673
          42    0.0096   -0.1543    0.1070   -0.0126   -0.0125    0.1392    0.0123    0.1108
          43   -0.0077   -0.0008   -0.0220    0.0081   -0.5746   -0.0292    0.0024    0.0078
          44   -0.1814    0.0017    0.0011    0.0009    0.0012    0.0014   -0.0025   -0.0013
          45    0.3202   -0.0021   -0.0100    0.0037   -0.2222   -0.0098    0.0015    0.0023
          46   -0.0623    0.0009    0.0029   -0.0012    0.0566    0.0016    0.0005   -0.0002
          47    0.4595    0.0000   -0.0087    0.0031   -0.1677   -0.0076   -0.0002    0.0003
          48    0.0868   -0.0014   -0.0043    0.0021   -0.1467   -0.0064    0.0005    0.0031
          49    0.2949    0.0009    0.0288   -0.0093    0.6302    0.0307   -0.0024   -0.0065
          50    0.2486   -0.0010    0.0003   -0.0002    0.0261    0.0021    0.0001   -0.0012
          51   -0.1431   -0.0000    0.0107   -0.0037    0.2273    0.0114   -0.0007   -0.0019
          52    0.0304    0.0000    0.0010    0.0001    0.0311    0.0014    0.0006   -0.0014
          53   -0.1946    0.0006   -0.0058    0.0018   -0.1070   -0.0051    0.0006   -0.0017
          54    0.2122   -0.0002    0.0106   -0.0038    0.1229    0.0037    0.0006    0.0042
          55   -0.3567    0.0015   -0.0013    0.0015   -0.1357   -0.0095    0.0013    0.0059
          56   -0.0243   -0.0006    0.0015   -0.0003    0.0066    0.0001    0.0006    0.0017
          57   -0.1090    0.0001   -0.0050    0.0008   -0.0599   -0.0022    0.0001   -0.0016
          58    0.0060   -0.0018    0.0495   -0.0245    0.0033   -0.1173    0.0863    0.0426
          59   -0.0142    0.0052    0.1214    0.0030   -0.0119    0.1178   -0.1476    0.0573
          60   -0.0118    0.1105    0.0068    0.0038    0.0019   -0.0878   -0.0500   -0.0073
          61    0.0097   -0.1472    0.0353    0.0001   -0.0106    0.2015    0.0163    0.0369
          62   -0.0017    0.0333    0.0270   -0.0126    0.0015   -0.0901    0.0299    0.0268
          63    0.0208   -0.2575   -0.0834    0.0258   -0.0129    0.3954    0.0581   -0.0336
          64    0.0955    0.0008   -0.0027    0.0008   -0.0086    0.0004   -0.0008   -0.0016
          65   -0.3027   -0.0007    0.0129   -0.0043    0.2397    0.0097    0.0017    0.0001
          66   -0.3665    0.0013    0.0026    0.0001    0.0795    0.0036   -0.0007   -0.0016


   Root No.      41        42        43        44        45        46        47        48

                41 A      42 A      43 A      44 A      45 A      46 A      47 A      48 A   

                   4.8       5.5       6.6       7.0       7.3       7.7       8.6       8.7
  
           1   -0.0832    0.1630   -0.2169    0.0313   -0.1453    0.0015    0.2789    0.0596
           2    0.0445   -0.1241   -0.0965   -0.0150    0.2412    0.0081    0.1857    0.0349
           3   -0.3482   -0.1369    0.0208    0.0004   -0.0161   -0.0010    0.0034    0.0009
           4   -0.0771    0.1150   -0.2535    0.0228   -0.0393    0.0040    0.2288    0.0464
           5    0.1040   -0.2750   -0.0349   -0.0060   -0.0106   -0.0044   -0.1986   -0.0389
           6    0.3859    0.2960   -0.0673   -0.0012    0.0591    0.0036   -0.0138   -0.0047
           7    0.0015   -0.0267    0.0828   -0.0134    0.0899    0.0018   -0.0082   -0.0019
           8    0.0463   -0.2235   -0.1971   -0.0009    0.0572   -0.0011   -0.2097   -0.0457
           9   -0.3234   -0.1399    0.0182    0.0004   -0.0182   -0.0010    0.0021    0.0013
          10    0.0006    0.0709   -0.0842    0.0269   -0.2770   -0.0078   -0.2091   -0.0415
          11    0.0108   -0.1066   -0.1971    0.0069   -0.0102   -0.0028   -0.2827   -0.0624
          12    0.3339    0.0806   -0.0033   -0.0000    0.0043    0.0005    0.0032    0.0005
          13    0.0287    0.0011   -0.1772    0.0321   -0.2907   -0.0080   -0.2146   -0.0429
          14    0.0205   -0.0612   -0.2466    0.0091    0.0698    0.0050    0.2381    0.0497
          15   -0.3877   -0.0762    0.0061    0.0001   -0.0024   -0.0002   -0.0010   -0.0003
          16   -0.0050    0.0427   -0.1869    0.0333   -0.2508   -0.0045    0.0722    0.0195
          17    0.0716   -0.1581   -0.2235   -0.0034    0.1675    0.0062    0.1368    0.0259
          18    0.3948    0.0881   -0.0077    0.0002    0.0026   -0.0000    0.0007   -0.0000
          19    0.0030    0.0459    0.1827   -0.0059   -0.0572   -0.0032   -0.1256   -0.0246
          20   -0.0331    0.1362    0.3055   -0.0029   -0.1659   -0.0079   -0.2185   -0.0424
          21    0.0617    0.0251   -0.0034    0.0000    0.0028   -0.0002   -0.0004   -0.0004
          22    0.1142    0.0267    0.0229   -0.0218    0.1921    0.0056   -0.1563   -0.0363
          23    0.1368   -0.0356    0.2113    0.0156   -0.3102   -0.0059    0.2865    0.0709
          24   -0.0079   -0.2431    0.0558    0.0048   -0.1050   -0.0046    0.0366    0.0098
          25    0.0007   -0.0326    0.1440   -0.0261    0.1987    0.0041   -0.0398   -0.0111
          26    0.0037    0.0440    0.0539    0.0005   -0.0309   -0.0010   -0.0160   -0.0031
          27    0.0459    0.0224   -0.0025   -0.0001    0.0051    0.0007   -0.0009   -0.0005
          28   -0.0566    0.1000    0.2002   -0.0189    0.1261    0.0042    0.1316    0.0273
          29   -0.1087    0.2538    0.3362   -0.0234    0.1414    0.0053    0.2623    0.0554
          30   -0.0539   -0.0118   -0.0023    0.0003   -0.0008    0.0003   -0.0023   -0.0004
          31    0.0340   -0.1197   -0.0786   -0.0101    0.1611    0.0056    0.1236    0.0241
          32   -0.0830    0.2180    0.2030    0.0104   -0.2412   -0.0088   -0.2218   -0.0437
          33    0.0711    0.0105   -0.0006    0.0002    0.0005    0.0000    0.0004   -0.0000
          34    0.0821   -0.1868    0.3459   -0.0527    0.3477    0.0061   -0.0656   -0.0173
          35   -0.0290    0.0444    0.0280    0.0001   -0.0076   -0.0002    0.0184    0.0039
          36   -0.0741   -0.0128    0.0008    0.0002   -0.0004   -0.0004   -0.0001   -0.0002
          37   -0.0294   -0.1798    0.0244   -0.0016   -0.0147   -0.0043   -0.0325   -0.0054
          38   -0.0109    0.1319   -0.0744    0.0024    0.0445    0.0038    0.0024   -0.0024
          39    0.0532   -0.1884    0.0260   -0.0117    0.0505   -0.0008   -0.0825   -0.0156
          40   -0.0661   -0.0292   -0.0360   -0.0021    0.0280   -0.0026   -0.0728   -0.0162
          41   -0.0311   -0.0962    0.0759    0.0239   -0.1889   -0.0120    0.2162    0.0432
          42    0.0276   -0.0790    0.1143    0.0032   -0.1675    0.0017    0.1281    0.0365
          43    0.0023   -0.0006   -0.0027   -0.0848   -0.0122    0.0951    0.0308   -0.1385
          44   -0.0049    0.0122   -0.0251   -0.3286   -0.0115   -0.1981   -0.1214    0.5903
          45    0.0006   -0.0062    0.0217    0.4132    0.0347    0.2900   -0.0946    0.4049
          46    0.0017   -0.0007    0.0034    0.0699    0.0069    0.0328   -0.0213    0.0940
          47   -0.0003    0.0027   -0.0074   -0.1331   -0.0116   -0.0625    0.0393   -0.1778
          48   -0.0021    0.0031   -0.0176   -0.3690   -0.0356   -0.1900    0.1071   -0.4666
          49   -0.0035    0.0028   -0.0135   -0.2542   -0.0251    0.0976    0.0037   -0.0019
          50   -0.0003   -0.0010    0.0024    0.0491    0.0047   -0.0193    0.0007   -0.0076
          51   -0.0013    0.0016   -0.0077   -0.1539   -0.0159    0.0633    0.0039   -0.0077
          52   -0.0005   -0.0036    0.0090    0.1538    0.0092    0.1969   -0.0087    0.0158
          53   -0.0015    0.0005   -0.0099   -0.2262   -0.0321    0.4327   -0.0018    0.0085
          54    0.0026   -0.0011    0.0140    0.2980    0.0372   -0.3758   -0.0032    0.0056
          55    0.0011    0.0006    0.0062    0.1607    0.0256   -0.3933    0.0022   -0.0065
          56    0.0005   -0.0001    0.0067    0.1681    0.0257   -0.3997    0.0022   -0.0068
          57    0.0009    0.0003   -0.0044   -0.1094   -0.0167    0.2591   -0.0014    0.0034
          58    0.1224   -0.1665    0.0890    0.0045   -0.1372   -0.0076    0.1041    0.0280
          59   -0.1871    0.3062   -0.1643   -0.0092    0.2636    0.0172   -0.1953   -0.0537
          60   -0.0277    0.0384   -0.0369   -0.0023    0.0631    0.0024   -0.0441   -0.0110
          61   -0.0697    0.1748   -0.0568    0.0017    0.0651    0.0009   -0.0131   -0.0063
          62    0.0459   -0.0568    0.0228   -0.0020   -0.0203    0.0010   -0.0011    0.0020
          63   -0.1501    0.3278   -0.1190    0.0039    0.1234   -0.0007   -0.0302   -0.0137
          64   -0.0012    0.0026   -0.0042   -0.0454   -0.0008   -0.0250   -0.0085    0.0358
          65    0.0052   -0.0118    0.0310    0.4645    0.0255    0.2444    0.0782   -0.4002
          66   -0.0020    0.0012   -0.0049   -0.0773   -0.0047   -0.0468   -0.0109    0.0581


   Root No.      49        50        51        52        53        54        55        56

                49 A      50 A      51 A      52 A      53 A      54 A      55 A      56 A   

                   9.8      10.1      11.0      12.9      14.4      15.5      16.9      17.3
  
           1   -0.2046    0.0797   -0.0004   -0.0543    0.3486    0.0390   -0.3225   -0.0104
           2   -0.4035    0.0719   -0.0004    0.0445   -0.2524    0.4379   -0.2730   -0.0092
           3   -0.0003   -0.0033    0.0001    0.0007   -0.0064   -0.0000   -0.0003    0.0011
           4   -0.2208    0.0494    0.0002    0.0924   -0.3128   -0.2874    0.3910    0.0495
           5   -0.0398    0.0058    0.0001   -0.5844   -0.2371   -0.1273   -0.2158   -0.1041
           6   -0.0011    0.0321   -0.0006    0.0071   -0.0097   -0.0053    0.0093   -0.0029
           7    0.0495   -0.0038    0.0002   -0.0843   -0.0070   -0.0449   -0.0031    0.0127
           8    0.0131   -0.0243    0.0001   -0.0623    0.3865    0.0576    0.3190    0.0202
           9    0.0008   -0.0032   -0.0000   -0.0009    0.0106    0.0014   -0.0034   -0.0016
          10   -0.2073    0.0147   -0.0000    0.0271    0.3818   -0.2516   -0.3513    0.0322
          11    0.0395   -0.0644   -0.0000    0.5980   -0.1571    0.0652   -0.1927    0.0084
          12   -0.0001    0.0003   -0.0001   -0.0032   -0.0056   -0.0007    0.0021   -0.0003
          13   -0.2037    0.0144    0.0002   -0.0490   -0.3561    0.0054    0.3327   -0.0187
          14    0.3829   -0.0352    0.0001    0.0149   -0.1697   -0.5119   -0.2241    0.0273
          15   -0.0019   -0.0004   -0.0000    0.0012   -0.0052    0.0009    0.0003    0.0001
          16    0.4481   -0.0313   -0.0000   -0.1944   -0.0861    0.5468   -0.0361   -0.0261
          17    0.0052    0.0028    0.0002   -0.0475    0.4169    0.0698    0.4122   -0.0142
          18    0.0010    0.0003   -0.0000   -0.0012    0.0116   -0.0003   -0.0015   -0.0002
          19    0.1560   -0.0344    0.0002    0.0184    0.0178   -0.0315    0.0489    0.0044
          20    0.2368   -0.0499    0.0000    0.0032    0.0052   -0.1020    0.0599    0.0053
          21    0.0002    0.0009    0.0000    0.0001    0.0004   -0.0001    0.0001    0.0001
          22    0.0208   -0.1060    0.0016   -0.0629    0.0039    0.0194   -0.0516   -0.3185
          23   -0.0067    0.1529   -0.0006    0.1405    0.0050    0.0192    0.0272    0.4590
          24   -0.0035   -0.0070   -0.0000   -0.0231    0.0062   -0.0128   -0.0211   -0.1355
          25    0.2461   -0.0639    0.0002    0.3402    0.0087    0.1428    0.0000   -0.0072
          26    0.0017   -0.0026    0.0001    0.0019    0.0174    0.0003   -0.0398   -0.0009
          27    0.0001   -0.0010   -0.0001   -0.0000   -0.0010    0.0002    0.0006    0.0004
          28    0.0207    0.0114    0.0000   -0.0891    0.0014    0.0328    0.0452   -0.0049
          29    0.0268    0.0277   -0.0000   -0.1760   -0.0193    0.0142    0.0530   -0.0065
          30   -0.0003   -0.0003   -0.0001    0.0012    0.0008   -0.0001   -0.0005   -0.0001
          31    0.1527   -0.0157    0.0001    0.0313   -0.0074   -0.0410   -0.0471    0.0039
          32   -0.2228    0.0187   -0.0001   -0.0164   -0.0174    0.1070    0.0511   -0.0072
          33    0.0004   -0.0001   -0.0000   -0.0002    0.0003   -0.0001   -0.0000    0.0000
          34   -0.2667    0.0150    0.0002    0.0791    0.0247   -0.1387    0.0081    0.0079
          35   -0.0007    0.0034   -0.0001    0.0017    0.0135   -0.0008   -0.0289    0.0011
          36   -0.0000    0.0002    0.0000    0.0002   -0.0008   -0.0001    0.0003    0.0002
          37    0.0054   -0.0073    0.0010   -0.0513   -0.0110    0.0151   -0.0162    0.2590
          38   -0.0165   -0.0416   -0.0000    0.0196   -0.0022   -0.0152    0.0189   -0.1217
          39    0.0039   -0.0914    0.0018   -0.0846   -0.0167    0.0351   -0.0254    0.5021
          40    0.0668    0.4749   -0.0109   -0.0010   -0.0080   -0.0069    0.0009    0.0149
          41   -0.0883   -0.4637    0.0064    0.0955    0.0162   -0.0169    0.0405   -0.3122
          42    0.0440    0.4323   -0.0060    0.1519    0.0192   -0.0259    0.0482   -0.4546
          43   -0.0007   -0.0085   -0.2669   -0.0007    0.0000    0.0000   -0.0001    0.0004
          44   -0.0020   -0.0026    0.1198    0.0020    0.0002    0.0002    0.0004   -0.0016
          45   -0.0013   -0.0063   -0.2845   -0.0001   -0.0001    0.0001    0.0001    0.0009
          46   -0.0003   -0.0014   -0.0158    0.0001    0.0001   -0.0001    0.0001   -0.0006
          47    0.0006    0.0022    0.0284   -0.0006    0.0000    0.0000   -0.0001    0.0005
          48    0.0010    0.0030    0.1004   -0.0002   -0.0000   -0.0001   -0.0000   -0.0000
          49   -0.0011   -0.0076   -0.3125    0.0001    0.0000   -0.0001    0.0002   -0.0003
          50    0.0003    0.0022    0.0582   -0.0001    0.0001    0.0000    0.0000    0.0001
          51   -0.0007   -0.0043   -0.1845    0.0001   -0.0000   -0.0000    0.0001    0.0000
          52    0.0016    0.0105    0.7447    0.0001    0.0000    0.0001   -0.0002   -0.0006
          53   -0.0011   -0.0068    0.0478    0.0001    0.0000    0.0002    0.0001    0.0003
          54    0.0014    0.0100    0.2467    0.0000   -0.0000   -0.0000   -0.0001   -0.0001
          55    0.0005    0.0020   -0.1620   -0.0001    0.0000   -0.0001    0.0001   -0.0002
          56    0.0006    0.0043   -0.1500   -0.0001    0.0001   -0.0001    0.0001   -0.0000
          57   -0.0003   -0.0018    0.0959    0.0001    0.0000    0.0001   -0.0000   -0.0000
          58   -0.0356   -0.1838    0.0038    0.0176    0.0021   -0.0031    0.0053   -0.0345
          59    0.0566    0.2852   -0.0060   -0.0405   -0.0065    0.0032   -0.0093    0.0578
          60    0.0035   -0.0098    0.0000   -0.0135   -0.0004    0.0015   -0.0033    0.0022
          61   -0.0278   -0.2118    0.0033   -0.0191   -0.0010    0.0038   -0.0042    0.0368
          62    0.0158    0.1126   -0.0016    0.0078    0.0007   -0.0006    0.0012   -0.0039
          63   -0.0466   -0.3500    0.0047   -0.0360   -0.0033    0.0061   -0.0057    0.0885
          64    0.0005    0.0033    0.0130   -0.0002   -0.0000   -0.0001   -0.0000    0.0003
          65    0.0014    0.0015   -0.1024   -0.0016   -0.0001   -0.0001   -0.0002    0.0016
          66   -0.0002   -0.0002    0.0262    0.0003    0.0000    0.0000    0.0001   -0.0001


   Root No.      57        58        59        60

                57 A      58 A      59 A      60 A   

                  19.7      20.6      21.1      23.0
  
           1    0.4549   -0.1174    0.2138   -0.0336
           2   -0.1391    0.2749   -0.0683    0.0189
           3    0.0004   -0.0004   -0.0001    0.0042
           4   -0.3210   -0.1163   -0.3077    0.0293
           5    0.0923   -0.3226   -0.1933   -0.0791
           6   -0.0064    0.0021   -0.0019   -0.0194
           7   -0.3861   -0.0247    0.6788    0.0305
           8   -0.0297    0.5703    0.0016    0.0280
           9    0.0012   -0.0029   -0.0013    0.0048
          10   -0.3263    0.0837   -0.3095    0.0031
          11   -0.0606   -0.3313    0.1926   -0.0023
          12    0.0013    0.0022   -0.0003    0.0020
          13    0.4464    0.1653    0.2125   -0.0022
          14    0.1175    0.2862    0.0710    0.0054
          15   -0.0012   -0.0018   -0.0006   -0.0002
          16   -0.2361   -0.0063   -0.1073    0.0035
          17    0.0222   -0.4834   -0.0005   -0.0160
          18    0.0004    0.0016    0.0003    0.0022
          19   -0.0156   -0.0037    0.0015    0.0013
          20   -0.0075   -0.0132   -0.0004    0.0001
          21    0.0000    0.0000   -0.0001   -0.0009
          22    0.0061    0.0076    0.0164    0.1465
          23    0.0123   -0.0191    0.0058    0.2221
          24    0.0375   -0.0380   -0.0194    0.7353
          25    0.3524    0.0174   -0.4010   -0.0157
          26    0.0020   -0.0128   -0.0008   -0.0015
          27   -0.0003    0.0003    0.0008   -0.0038
          28    0.0095    0.0091    0.0053    0.0001
          29    0.0293    0.0194   -0.0123   -0.0010
          30   -0.0004   -0.0001    0.0001   -0.0004
          31   -0.0166    0.0009    0.0014    0.0002
          32    0.0093   -0.0099    0.0001   -0.0003
          33    0.0001    0.0001    0.0002   -0.0002
          34    0.0195   -0.0002    0.0053    0.0002
          35   -0.0006    0.0032   -0.0002   -0.0003
          36    0.0001   -0.0001   -0.0001   -0.0001
          37    0.0110   -0.0092   -0.0010   -0.1766
          38   -0.0117    0.0040   -0.0058    0.0767
          39    0.0138   -0.0086    0.0073   -0.3456
          40    0.0041   -0.0072   -0.0103    0.0151
          41   -0.0407    0.0390    0.0125   -0.2582
          42   -0.0527    0.0499    0.0159   -0.3911
          43   -0.0000    0.0000    0.0001   -0.0002
          44    0.0000    0.0001   -0.0002    0.0004
          45    0.0001   -0.0001   -0.0001    0.0005
          46   -0.0000    0.0001   -0.0000   -0.0007
          47    0.0000    0.0000   -0.0000    0.0002
          48   -0.0001    0.0000    0.0000   -0.0005
          49   -0.0000    0.0000   -0.0000   -0.0005
          50    0.0000    0.0001   -0.0001   -0.0001
          51   -0.0000    0.0001    0.0000   -0.0004
          52    0.0000    0.0000   -0.0001   -0.0003
          53   -0.0001    0.0000   -0.0000   -0.0003
          54    0.0000    0.0000    0.0000   -0.0000
          55   -0.0000    0.0000   -0.0000   -0.0004
          56    0.0000    0.0001   -0.0000   -0.0001
          57   -0.0000    0.0001    0.0000   -0.0004
          58   -0.0046    0.0025    0.0014   -0.0114
          59    0.0060   -0.0060   -0.0026    0.0194
          60    0.0011   -0.0001    0.0005    0.0025
          61    0.0025   -0.0017    0.0006    0.0112
          62   -0.0010    0.0009    0.0007   -0.0100
          63    0.0051   -0.0042   -0.0013    0.0110
          64    0.0001   -0.0000   -0.0001    0.0006
          65   -0.0001   -0.0000    0.0002   -0.0021
          66    0.0000   -0.0000   -0.0000    0.0005


          FORCE CONSTANTS IN MILLIDYNES/ANGSTROM (= 10**5 DYNES/CM)

  -0.01987  -0.01125  -0.00961  -0.00686  -0.00447  -0.00049   0.01199   0.02282
   0.03839   0.07930   0.08276   0.11458   0.13208   0.16971   0.27611   0.29926
   0.30155   0.39882   0.50855   0.72180   0.85716   0.89492   0.91307   1.03247
   1.24765   1.32609   1.41458   1.45256   1.49190   1.64657   1.93062   2.02667
   2.05655   3.03035   3.17382   3.22242   3.40364   3.53159   3.69908   4.35160
   4.78657   5.46499   6.64694   6.95816   7.26215   7.71339   8.61393   8.71510
   9.78338  10.05825  10.97566  12.89468  14.41969  15.52209  16.87894  17.27121
  19.72781  20.61457  21.08974  23.01202


           ASSOCIATED EIGENVECTORS




    ROOT NO.    1           2           3           4           5           6

            -0.01987    -0.01125    -0.00961    -0.00686    -0.00447    -0.00049
  
         1  -0.01510     0.05499     0.08971    -0.07643    -0.02977     0.04086
         2  -0.05118    -0.04892    -0.08022    -0.00462     0.00817    -0.05829
         3   0.07743     0.06686    -0.14719     0.04666    -0.05669     0.02777
         4  -0.01634     0.05524     0.09028    -0.07655    -0.02924     0.04080
         5  -0.04928    -0.02011    -0.02600    -0.09767    -0.06028    -0.06207
         6   0.01070    -0.01918    -0.06668     0.00067     0.03559    -0.01212
         7  -0.02040     0.02855     0.03960     0.00533     0.03076     0.04349
         8  -0.04655    -0.00560     0.00197    -0.14143    -0.09239    -0.06368
         9  -0.10095    -0.07079     0.05609    -0.02145     0.05969    -0.00218
        10  -0.02101     0.00188    -0.01012     0.08641     0.09052     0.04566
        11  -0.04740    -0.02003    -0.02484    -0.09627    -0.05940    -0.06196
        12  -0.10866    -0.02120     0.08189    -0.00111    -0.01678     0.04513
        13  -0.02115     0.00233    -0.00906     0.08500     0.08950     0.04560
        14  -0.04951    -0.04934    -0.08082    -0.00295     0.00902    -0.05833
        15  -0.02873     0.04935     0.00869     0.03100    -0.08389     0.06717
        16  -0.01718     0.02890     0.04041     0.00422     0.02943     0.04319
        17  -0.05104    -0.06387    -0.10914     0.04255     0.04231    -0.05683
        18   0.04325     0.08174    -0.08710     0.05241    -0.09667     0.05825
        19  -0.01615     0.07392     0.12775    -0.14097    -0.07491     0.03742
        20  -0.05010    -0.05978    -0.10152     0.03190     0.03373    -0.05615
        21   0.13177     0.09547    -0.20485     0.05349    -0.07053     0.02269
        22   0.00623     0.07791     0.13973    -0.14743    -0.08700     0.03606
        23  -0.04001    -0.00646     0.00391    -0.14293    -0.09126    -0.06856
        24   0.10324    -0.04634    -0.07925    -0.07894     0.13884    -0.08590
        25  -0.01998     0.02828     0.03919     0.00588     0.03111     0.04364
        26  -0.04694     0.02191     0.05686    -0.22296    -0.15359    -0.06398
        27  -0.21577    -0.17997     0.17357    -0.08308     0.17145    -0.04703
        28  -0.02264    -0.01855    -0.04867     0.14943     0.13652     0.04744
        29  -0.04671    -0.00838    -0.00231    -0.13193    -0.08538    -0.06282
        30  -0.15832    -0.03766     0.14814    -0.01745    -0.01352     0.05223
        31  -0.02250    -0.01709    -0.04697     0.14739     0.13411     0.04814
        32  -0.05042    -0.06135    -0.10415     0.03452     0.03606    -0.05756
        33  -0.02710     0.06785     0.03344     0.03115    -0.11165     0.08264
        34  -0.01735     0.02905     0.04076     0.00368     0.02902     0.04336
        35  -0.05336    -0.08902    -0.15486     0.11770     0.09923    -0.05560
        36   0.07324     0.11163    -0.10246     0.05961    -0.12756     0.06838
        37  -0.24928     0.21701     0.30719    -0.20083    -0.11482    -0.01321
        38  -0.07312     0.06324     0.11540    -0.28199    -0.03740    -0.16512
        39   0.23222    -0.10344    -0.14147    -0.08634     0.16570    -0.08383
        40   0.28137    -0.04861     0.01433    -0.13687    -0.09845     0.07671
        41   0.01113    -0.07616    -0.09228    -0.01281    -0.18718     0.03700
        42   0.08110    -0.00444    -0.01962    -0.16787     0.20089    -0.15522
        43  -0.11179     0.02627    -0.15733     0.08019    -0.00984    -0.11281
        44   0.20653     0.25105     0.20789     0.22853     0.14342    -0.14503
        45  -0.01114    -0.21368     0.16769     0.12300    -0.04660     0.00741
        46  -0.16007     0.06873    -0.20941     0.02438    -0.03267     0.03699
        47   0.19861     0.05983     0.33410     0.32992    -0.06392    -0.10887
        48  -0.01687    -0.13051     0.11012     0.07362     0.02906     0.02138
        49  -0.10915    -0.13579    -0.08696     0.10672     0.03675    -0.13101
        50   0.09654     0.15261     0.11165     0.06096     0.22485     0.18768
        51  -0.05290     0.03398     0.01801     0.02604    -0.10032     0.13889
        52  -0.10640    -0.27269    -0.04115     0.09881     0.06958    -0.12327
        53  -0.04671    -0.01233     0.02963    -0.06141     0.24058     0.51456
        54  -0.09382     0.22464    -0.08391     0.00552    -0.15382     0.21631
        55  -0.04578    -0.08597    -0.02445     0.12376     0.00193    -0.19523
        56  -0.09680    -0.04243    -0.04533     0.00316     0.33309     0.39909
        57  -0.07262     0.46137    -0.17220     0.13947    -0.11930    -0.06713
        58   0.38375    -0.07370     0.03833    -0.16583    -0.14468     0.07798
        59   0.06360    -0.09358    -0.07868    -0.02410    -0.22244     0.04417
        60   0.15981     0.00022    -0.02274    -0.27664     0.28822    -0.21491
        61   0.44985    -0.14132    -0.12219    -0.09699    -0.06363     0.10716
        62   0.01400    -0.12522    -0.18746     0.12036    -0.23692     0.12100
        63  -0.01544     0.03508     0.03151    -0.15347     0.16661    -0.14861
        64  -0.12892     0.10065    -0.21097     0.12070     0.00580    -0.23896
        65   0.20872     0.23394     0.22619     0.25147     0.11970    -0.15865
        66  -0.01046    -0.40098     0.29832     0.24371    -0.25873     0.00868




    ROOT NO.    7           8           9          10          11          12

             0.01199     0.02282     0.03839     0.07930     0.08276     0.11458
  
         1  -0.00820    -0.07786     0.03306    -0.13490     0.08085    -0.01865
         2   0.01164     0.05789    -0.01736     0.00069    -0.01535    -0.00791
         3   0.03425    -0.20283    -0.00892     0.04868    -0.02998     0.02968
         4  -0.00860    -0.07973     0.03265    -0.13888     0.08237    -0.01975
         5  -0.00418     0.01023     0.00558    -0.07644     0.03400    -0.01350
         6   0.01690    -0.23522    -0.00529     0.03741    -0.01930     0.00051
         7   0.00570    -0.04054     0.01655    -0.06960     0.04030    -0.01190
         8  -0.01136    -0.00755     0.01345    -0.10764     0.05324    -0.01668
         9  -0.04061    -0.15954     0.00023     0.05499    -0.05321     0.00695
        10   0.02102     0.00542    -0.00273     0.01522    -0.01133    -0.00200
        11  -0.00342     0.01740     0.00294    -0.06612     0.02743    -0.01248
        12  -0.06214     0.10702     0.00468    -0.00474    -0.00303    -0.00147
        13   0.02070     0.00432    -0.00253     0.01414    -0.01092    -0.00210
        14   0.01264     0.06433    -0.01911     0.01450    -0.02342    -0.00527
        15  -0.03617     0.22490     0.00227    -0.04300     0.02829    -0.00831
        16   0.00664    -0.03451     0.01475    -0.05530     0.03197    -0.00926
        17   0.02072     0.08608    -0.02889     0.05359    -0.04744    -0.00122
        18   0.00120     0.04673    -0.00476     0.00866    -0.01389     0.01924
        19  -0.01917    -0.11670     0.05151    -0.21030     0.12868    -0.02775
        20   0.01788     0.08045    -0.02775     0.04417    -0.04267    -0.00271
        21   0.06067    -0.30448    -0.01270     0.08082    -0.05045     0.05429
        22  -0.00880    -0.06029     0.03513     0.00309     0.00904     0.01869
        23  -0.00234     0.02424     0.00785     0.00761    -0.00934     0.00994
        24   0.06457    -0.12929    -0.00976    -0.01717     0.03541    -0.03212
        25   0.00583    -0.04037     0.01651    -0.06886     0.04004    -0.01183
        26  -0.02764    -0.05545     0.03142    -0.18999     0.10171    -0.02697
        27  -0.08027    -0.33701     0.00071     0.14248    -0.15035     0.02546
        28   0.03289     0.04001    -0.01763     0.08269    -0.05267     0.00639
        29  -0.01031    -0.00140     0.01138    -0.10561     0.05158    -0.01757
        30  -0.08751     0.20490     0.00921    -0.02110     0.01082    -0.00259
        31   0.03169     0.03906    -0.01700     0.07505    -0.04824     0.00477
        32   0.01946     0.08599    -0.02829     0.05146    -0.04633    -0.00128
        33  -0.04492     0.42723     0.00573    -0.10505     0.07742    -0.03403
        34   0.00651    -0.03534     0.01526    -0.05693     0.03307    -0.00946
        35   0.03479     0.12773    -0.04808     0.13580    -0.09842     0.00854
        36   0.00436     0.10339    -0.00515     0.01220    -0.03047     0.03008
        37   0.03569    -0.09838     0.01916     0.21642    -0.10394     0.07215
        38   0.06808     0.18110    -0.00066     0.16955    -0.07062     0.04320
        39   0.05900    -0.06546    -0.00366    -0.08724     0.07871    -0.05179
        40  -0.04018     0.05149     0.03524     0.06738    -0.03410     0.02850
        41  -0.07070    -0.13204     0.02500     0.00265    -0.02130     0.01600
        42   0.11021    -0.01699    -0.02071    -0.01011     0.04340    -0.03664
        43   0.03884     0.03166    -0.06807     0.04944     0.05037    -0.10568
        44  -0.20645    -0.03882    -0.07715    -0.02538     0.02006     0.15516
        45  -0.21617     0.05445     0.05026    -0.05972    -0.03189     0.13455
        46   0.37160     0.03952    -0.41853    -0.25517    -0.22851     0.49540
        47   0.44360    -0.05894    -0.08161    -0.00360     0.09617    -0.04437
        48  -0.39802     0.06402    -0.01747    -0.12864    -0.11513     0.32928
        49  -0.00721     0.04844     0.15926    -0.02722    -0.10212    -0.15528
        50  -0.14177    -0.01722    -0.04863    -0.12427    -0.35151    -0.29164
        51  -0.11301     0.03322    -0.32364     0.02793     0.09426     0.06451
        52  -0.05581     0.05352     0.09317    -0.03797    -0.01847     0.04845
        53   0.02882    -0.00358    -0.18080     0.10890     0.08772    -0.27264
        54   0.01582     0.02803    -0.25449     0.11907     0.08217    -0.28126
        55  -0.11319     0.03049    -0.02167    -0.09697    -0.31726    -0.37679
        56   0.14483     0.03400     0.45623     0.05253     0.21511     0.30725
        57   0.10580     0.05165     0.55892    -0.05857    -0.18722    -0.03854
        58  -0.00356     0.12861     0.05205     0.48119    -0.22581     0.11952
        59  -0.05004    -0.10303     0.03650     0.25021    -0.14045     0.07106
        60   0.12770     0.17035    -0.04351    -0.12093     0.08815    -0.05851
        61  -0.07308     0.10524     0.03613    -0.18969     0.09363    -0.02773
        62  -0.12964    -0.30808     0.04133    -0.20875     0.08043    -0.02642
        63   0.11185    -0.09498    -0.01674     0.07905    -0.00137    -0.01578
        64  -0.23930     0.00594    -0.06227     0.33717     0.56308    -0.01571
        65  -0.14462    -0.04331    -0.07335     0.01615     0.09941     0.12952
        66   0.36650     0.02991     0.09480     0.04498     0.14767    -0.13349




    ROOT NO.   13          14          15          16          17          18

             0.13208     0.16971     0.27611     0.29926     0.30155     0.39882
  
         1   0.00141    -0.01334    -0.11997    -0.01360     0.04722    -0.00391
         2   0.02089     0.04313    -0.04392    -0.00452     0.04462    -0.00627
         3  -0.09858     0.16122     0.03530     0.01572     0.07332    -0.00223
         4   0.00532    -0.01131    -0.12038    -0.01377     0.04908    -0.00546
         5   0.02124     0.02737    -0.07585    -0.00618     0.03824     0.00076
         6  -0.10645    -0.09574     0.06948     0.00510     0.00588    -0.02432
         7  -0.00541    -0.02292    -0.07316    -0.01043     0.01536     0.00369
         8   0.02549     0.03819    -0.10323    -0.00790     0.06260    -0.00564
[...]
 TRAVEL (Ang.)       0.1729         C  1 -- C  2         +14.9% ( 57.5%)      0.1%
 REDUCED MASS        3.0436         C  3 -- C  4          +7.4% ( 40.4%)      0.1%
 EFFECTIVE MASS     10.5939
 FORCE CONSTANT      0.9847

 VIBRATION         26   26A           ATOM PAIR      ENERGY CONTRIBUTION    RADIAL
 FREQUENCY           769.45         O 18 -- H 19         +36.3% ( 70.2%)      5.4%
 TRANSITION DIPOLE   1.3724         O 15 -- H 22         +22.0% ( 54.7%)      0.4%
 TRAVEL (Ang.)       0.1166         O 15 -- H 16         +21.8% ( 54.4%)      2.4%
 REDUCED MASS        6.4426         H 17 -- O 18         +19.8% ( 51.9%)     88.2%
 EFFECTIVE MASS     18.1523
 FORCE CONSTANT      2.2473

 VIBRATION         27   27A           ATOM PAIR      ENERGY CONTRIBUTION    RADIAL
 FREQUENCY           789.84         C  4 -- C  5         +13.3% ( 79.4%)      0.2%
 TRANSITION DIPOLE   0.3486         C  5 -- C  6         +12.7% ( 77.7%)      0.2%
 TRAVEL (Ang.)       0.2545         C  3 -- C  4          +7.9% ( 61.3%)      1.1%
 REDUCED MASS        1.3179         C  1 -- C  6          +7.8% ( 60.7%)      0.1%
 EFFECTIVE MASS     13.2504
 FORCE CONSTANT      0.4844

 VIBRATION         28   28A           ATOM PAIR      ENERGY CONTRIBUTION    RADIAL
 FREQUENCY           821.80         C  6 -- H 12         +32.3% ( 66.2%)      0.1%
 TRANSITION DIPOLE   0.9850         C  5 -- H 11         +32.1% ( 65.9%)      0.1%
 TRAVEL (Ang.)       0.5320         C  4 -- H 10         +12.9% ( 41.8%)      0.1%
 REDUCED MASS        0.2899         C  1 -- H  7          +8.6% ( 34.1%)      0.1%
 EFFECTIVE MASS      2.2775
 FORCE CONSTANT      0.1154

 VIBRATION         29   29A           ATOM PAIR      ENERGY CONTRIBUTION    RADIAL
 FREQUENCY           871.53         C  1 -- C  6         +19.1% ( 81.6%)      0.7%
 TRANSITION DIPOLE   0.2939         C  1 -- C  2         +13.5% ( 68.6%)      6.2%
 TRAVEL (Ang.)       0.1816         C  1 -- H  7         +12.8% ( 67.0%)    100.0%
 REDUCED MASS        2.3460         C  5 -- C  6          +9.5% ( 57.6%)      0.6%
 EFFECTIVE MASS     14.4515
 FORCE CONSTANT      1.0499

 VIBRATION         30   30A           ATOM PAIR      ENERGY CONTRIBUTION    RADIAL
 FREQUENCY           919.33         C  4 -- H 10         +31.8% ( 62.6%)      0.0%
 TRANSITION DIPOLE   0.1616         C  1 -- H  7         +20.5% ( 50.3%)      0.0%
 TRAVEL (Ang.)       0.4371         C  6 -- H 12         +14.9% ( 42.8%)      0.0%
 REDUCED MASS        0.3839         C  5 -- H 11          +8.2% ( 31.7%)      0.0%
 EFFECTIVE MASS      3.4080
 FORCE CONSTANT      0.1912

 VIBRATION         31   31A           ATOM PAIR      ENERGY CONTRIBUTION    RADIAL
 FREQUENCY           954.69         C 14 -- H 20         +39.2% ( 65.4%)      0.1%
 TRANSITION DIPOLE   1.7261         C 14 -- H 21         +34.6% ( 61.4%)      0.3%
 TRAVEL (Ang.)       0.2558         C  8 -- C 14         +15.2% ( 40.7%)      0.0%
 REDUCED MASS        1.0795         C  8 -- O 13          +4.3% ( 21.6%)      0.8%
 EFFECTIVE MASS      3.9114
 FORCE CONSTANT      0.5797

 VIBRATION         32   32A           ATOM PAIR      ENERGY CONTRIBUTION    RADIAL
 FREQUENCY           983.72         C  1 -- H  7         +31.6% ( 60.5%)      0.0%
 TRANSITION DIPOLE   0.3251         C  4 -- H 10         +21.8% ( 50.2%)      0.0%
 TRAVEL (Ang.)       0.3583         C  5 -- H 11         +14.4% ( 40.8%)      0.0%
 REDUCED MASS        0.5338         C  4 -- C  5          +6.8% ( 28.0%)      0.0%
 EFFECTIVE MASS      3.7169
 FORCE CONSTANT      0.3043

 VIBRATION         33   33A           ATOM PAIR      ENERGY CONTRIBUTION    RADIAL
 FREQUENCY          1024.77         C  5 -- H 11         +23.9% ( 53.2%)      0.0%
 TRANSITION DIPOLE   0.1077         C  6 -- H 12         +23.6% ( 52.8%)      0.0%
 TRAVEL (Ang.)       0.2924         C  5 -- C  6         +12.2% ( 38.0%)      0.0%
 REDUCED MASS        0.7694         C  1 -- H  7         +11.0% ( 36.1%)      0.0%
 EFFECTIVE MASS      4.8325
 FORCE CONSTANT      0.4760

 VIBRATION         34   34A           ATOM PAIR      ENERGY CONTRIBUTION    RADIAL
 FREQUENCY          1037.92         C 14 -- H 21         +35.3% ( 79.1%)     23.4%
 TRANSITION DIPOLE   0.8084         C 14 -- H 20         +30.1% ( 73.1%)      9.9%
 TRAVEL (Ang.)       0.2356         C  8 -- C 14         +16.3% ( 53.7%)      1.4%
 REDUCED MASS        1.1705         C  8 -- O 13          +6.1% ( 33.0%)     44.4%
 EFFECTIVE MASS      6.5850
 FORCE CONSTANT      0.7429

 VIBRATION         35   35A           ATOM PAIR      ENERGY CONTRIBUTION    RADIAL
 FREQUENCY          1169.55         C  1 -- H  7         +23.4% ( 63.7%)     10.7%
 TRANSITION DIPOLE   0.4859         C  5 -- C  6         +12.4% ( 46.4%)    100.0%
 TRAVEL (Ang.)       0.3599         C  4 -- H 10         +12.3% ( 46.2%)      0.7%
 REDUCED MASS        0.4450         C  5 -- H 11         +10.9% ( 43.5%)     45.4%
 EFFECTIVE MASS      5.4991
 FORCE CONSTANT      0.3586

 VIBRATION         36   36A           ATOM PAIR      ENERGY CONTRIBUTION    RADIAL
 FREQUENCY          1173.15         O 15 -- H 16         +77.0% ( 77.0%)      4.8%
 TRANSITION DIPOLE   1.0904         O 15 -- H 22         +22.5% ( 41.6%)     17.3%
 TRAVEL (Ang.)       0.2575         H 17 -- O 18          +0.2% (  4.0%)     22.1%
 REDUCED MASS        0.8668         O 18 -- H 19          +0.2% (  3.9%)     30.4%
 EFFECTIVE MASS      2.8863
 FORCE CONSTANT      0.7029

 VIBRATION         37   37A           ATOM PAIR      ENERGY CONTRIBUTION    RADIAL
 FREQUENCY          1183.71         C  4 -- H 10         +17.2% ( 57.6%)     33.1%
 TRANSITION DIPOLE   0.3241         C  3 -- C  4         +14.8% ( 53.4%)     28.4%
 TRAVEL (Ang.)       0.2797         C  4 -- C  5         +12.1% ( 48.4%)     66.8%
 REDUCED MASS        0.7280         C  6 -- H 12         +11.7% ( 47.6%)     19.6%
 EFFECTIVE MASS      7.7206
 FORCE CONSTANT      0.6010

 VIBRATION         38   38A           ATOM PAIR      ENERGY CONTRIBUTION    RADIAL
 FREQUENCY          1231.93         C  6 -- H 12         +31.9% ( 66.2%)      0.1%
 TRANSITION DIPOLE   0.1793         C  5 -- H 11         +28.2% ( 62.2%)      0.2%
 TRAVEL (Ang.)       0.4088         C  1 -- H  7          +7.8% ( 32.8%)      1.1%
 REDUCED MASS        0.3275         C  4 -- H 10          +7.4% ( 31.9%)      0.7%
 EFFECTIVE MASS      2.4011
 FORCE CONSTANT      0.2929

 VIBRATION         39   39A           ATOM PAIR      ENERGY CONTRIBUTION    RADIAL
 FREQUENCY          1261.08         C  1 -- C  2         +15.2% ( 50.6%)     26.2%
 TRANSITION DIPOLE   0.3481         C  2 -- C  8         +14.7% ( 49.9%)     99.1%
 TRAVEL (Ang.)       0.2313         C  2 -- C  3         +13.6% ( 48.0%)     14.5%
 REDUCED MASS        0.9998         C  4 -- H 10          +8.9% ( 38.7%)     21.3%
 EFFECTIVE MASS      7.1765
 FORCE CONSTANT      0.9368

 VIBRATION         40   40A           ATOM PAIR      ENERGY CONTRIBUTION    RADIAL
 FREQUENCY          1313.26         C  1 -- H  7         +29.1% ( 61.9%)      1.3%
 TRANSITION DIPOLE   0.2897         C  4 -- H 10         +19.5% ( 50.6%)      0.7%
 TRAVEL (Ang.)       0.3975         C  6 -- H 12          +8.4% ( 33.1%)      2.9%
 REDUCED MASS        0.3250         C  2 -- C  3          +8.1% ( 32.7%)      3.4%
 EFFECTIVE MASS      2.8834
 FORCE CONSTANT      0.3302

 VIBRATION         41   41A           ATOM PAIR      ENERGY CONTRIBUTION    RADIAL
 FREQUENCY          1366.29         C 14 -- H 20         +35.7% ( 59.8%)      0.0%
 TRANSITION DIPOLE   1.0701         C 14 -- H 21         +24.8% ( 49.8%)      2.2%
 TRAVEL (Ang.)       0.3211         C  2 -- C  8         +12.5% ( 35.4%)     99.5%
 REDUCED MASS        0.4788         C  8 -- O 13          +9.4% ( 30.8%)     33.3%
 EFFECTIVE MASS      2.9712
 FORCE CONSTANT      0.5266

 VIBRATION         42   42A           ATOM PAIR      ENERGY CONTRIBUTION    RADIAL
 FREQUENCY          1417.86         H 17 -- O 18         +62.9% ( 64.9%)      8.7%
 TRANSITION DIPOLE   1.0454         O 18 -- H 19         +36.8% ( 49.7%)      8.8%
 TRAVEL (Ang.)       0.2911         O 15 -- H 22          +0.2% (  3.5%)     16.9%
 REDUCED MASS        0.5614         O 15 -- H 16          +0.1% (  2.8%)      0.3%
 EFFECTIVE MASS      1.8184
 FORCE CONSTANT      0.6649

 VIBRATION         43   43A           ATOM PAIR      ENERGY CONTRIBUTION    RADIAL
 FREQUENCY          1424.24         C  1 -- C  6         +15.3% ( 55.4%)     98.1%
 TRANSITION DIPOLE   0.1683         C  4 -- C  5         +15.2% ( 55.1%)     59.6%
 TRAVEL (Ang.)       0.1797         C  3 -- C  4         +12.5% ( 50.1%)     99.3%
 REDUCED MASS        1.4657         C  4 -- H 10         +12.0% ( 49.0%)      0.1%
 EFFECTIVE MASS      9.9774
 FORCE CONSTANT      1.7517

 VIBRATION         44   44A           ATOM PAIR      ENERGY CONTRIBUTION    RADIAL
 FREQUENCY          1452.06         C  5 -- C  6         +15.4% ( 61.4%)     99.6%
 TRANSITION DIPOLE   0.5886         C  1 -- C  2         +15.3% ( 61.2%)     96.0%
 TRAVEL (Ang.)       0.1629         C  2 -- C  3         +13.4% ( 57.3%)     99.9%
 REDUCED MASS        1.7495         C  4 -- C  5          +9.3% ( 47.8%)     86.2%
 EFFECTIVE MASS     10.6676
 FORCE CONSTANT      2.1734

 VIBRATION         45   45A           ATOM PAIR      ENERGY CONTRIBUTION    RADIAL
 FREQUENCY          1476.27         C  8 -- O 13         +33.6% ( 77.4%)     82.1%
 TRANSITION DIPOLE   4.4461         C  8 -- C 14         +26.1% ( 68.2%)     36.1%
 TRAVEL (Ang.)       0.1136         C  2 -- C  8         +15.6% ( 52.7%)     91.2%
 REDUCED MASS        3.5405         C 14 -- H 21         +12.4% ( 47.1%)      2.1%
 EFFECTIVE MASS     11.9244
 FORCE CONSTANT      4.5462

 VIBRATION         46   46A           ATOM PAIR      ENERGY CONTRIBUTION    RADIAL
 FREQUENCY          1544.95         C  5 -- C  6         +13.0% ( 51.3%)     19.2%
 TRANSITION DIPOLE   0.9040         C  1 -- C  6         +12.5% ( 50.3%)     49.5%
 TRAVEL (Ang.)       0.1660         C  6 -- H 12         +11.8% ( 49.0%)      0.3%
 REDUCED MASS        1.5843         C  4 -- C  5         +11.3% ( 47.9%)    100.0%
 EFFECTIVE MASS     10.3564         C  1 -- C  2         +10.9% ( 47.0%)     99.9%
 FORCE CONSTANT      2.2279         C  2 -- C  3         +10.4% ( 45.9%)     11.5%

 VIBRATION         47   47A           ATOM PAIR      ENERGY CONTRIBUTION    RADIAL
 FREQUENCY          1622.48         C  3 -- F  9         +21.6% ( 66.6%)     99.7%
 TRANSITION DIPOLE   2.2567         C  2 -- C  3         +18.0% ( 60.7%)     76.1%
 TRAVEL (Ang.)       0.1261         C  3 -- C  4         +16.1% ( 57.4%)     43.9%
 REDUCED MASS        2.6147         C  1 -- C  2          +8.4% ( 41.5%)     56.8%
 EFFECTIVE MASS     11.9147
 FORCE CONSTANT      4.0554

 VIBRATION         48   48A           ATOM PAIR      ENERGY CONTRIBUTION    RADIAL
 FREQUENCY          1633.50         O 15 -- H 22         +95.9% ( 97.9%)     98.9%
 TRANSITION DIPOLE   1.7628         O 15 -- H 16          +3.2% ( 18.0%)     35.9%
 TRAVEL (Ang.)       0.1310         H 17 -- O 18          +0.2% (  4.1%)     28.4%
 REDUCED MASS        2.4053
 EFFECTIVE MASS      4.2071
 FORCE CONSTANT      3.7814

 VIBRATION         49   49A           ATOM PAIR      ENERGY CONTRIBUTION    RADIAL
 FREQUENCY          1703.64         C  3 -- C  4         +17.6% ( 60.6%)     65.3%
 TRANSITION DIPOLE   2.7352         C  4 -- C  5         +14.0% ( 54.1%)     92.1%
 TRAVEL (Ang.)       0.1316         C  1 -- C  2         +14.0% ( 54.0%)     97.3%
 REDUCED MASS        2.2839         C  2 -- C  3         +11.4% ( 48.8%)     12.7%
 EFFECTIVE MASS     12.0598
 FORCE CONSTANT      3.9056

 VIBRATION         50   50A           ATOM PAIR      ENERGY CONTRIBUTION    RADIAL
 FREQUENCY          1705.37         C  2 -- C  3         +21.0% ( 65.5%)     98.2%
 TRANSITION DIPOLE   1.4034         C  5 -- C  6         +14.3% ( 53.9%)     98.4%
 TRAVEL (Ang.)       0.1235         C  3 -- C  4         +13.8% ( 53.0%)     61.5%
 REDUCED MASS        2.5929         C  3 -- F  9          +9.7% ( 44.4%)      7.7%
 EFFECTIVE MASS     11.9904
 FORCE CONSTANT      4.4429

 VIBRATION         51   51A           ATOM PAIR      ENERGY CONTRIBUTION    RADIAL
 FREQUENCY          1764.89         C  8 -- C 14         +39.0% ( 91.9%)     96.5%
 TRANSITION DIPOLE   9.3784         C  8 -- O 13         +27.0% ( 76.5%)     78.1%
 TRAVEL (Ang.)       0.0810         C  2 -- C  8         +20.6% ( 66.7%)      9.6%
 REDUCED MASS        5.8213         C 14 -- H 20          +6.2% ( 36.8%)     19.7%
 EFFECTIVE MASS     12.2877
 FORCE CONSTANT     10.6833

 VIBRATION         52   52A           ATOM PAIR      ENERGY CONTRIBUTION    RADIAL
 FREQUENCY          2567.89         H 17 -- O 18         +79.2% ( 91.6%)     97.7%
 TRANSITION DIPOLE   2.5809         O 18 -- H 19         +17.0% ( 42.4%)     91.2%
 TRAVEL (Ang.)       0.1963         O 15 -- H 16          +3.7% ( 19.9%)     97.7%
 REDUCED MASS        0.6815
 EFFECTIVE MASS      1.5371
 FORCE CONSTANT      2.6479

 VIBRATION         53   53A           ATOM PAIR      ENERGY CONTRIBUTION    RADIAL
 FREQUENCY          2725.00         C  5 -- H 11         +74.9% ( 87.6%)    100.0%
 TRANSITION DIPOLE   0.8136         C  4 -- H 10         +19.1% ( 44.2%)     99.9%
 TRAVEL (Ang.)       0.2063         C  6 -- H 12          +3.7% ( 19.5%)     99.4%
 REDUCED MASS        0.5816         C  4 -- C  5          +0.9% (  9.6%)      2.0%
 EFFECTIVE MASS      1.3691
 FORCE CONSTANT      2.5445

 VIBRATION         54   54A           ATOM PAIR      ENERGY CONTRIBUTION    RADIAL
 FREQUENCY          2732.70         C  1 -- H  7         +72.5% ( 86.1%)    100.0%
 TRANSITION DIPOLE   1.0724         C  6 -- H 12         +23.2% ( 48.6%)     99.8%
 TRAVEL (Ang.)       0.2094         C  5 -- H 11          +2.2% ( 15.2%)     99.2%
 REDUCED MASS        0.5629         C  1 -- C  6          +0.9% (  9.5%)      1.9%
 EFFECTIVE MASS      1.3658
 FORCE CONSTANT      2.4767

 VIBRATION         55   55A           ATOM PAIR      ENERGY CONTRIBUTION    RADIAL
 FREQUENCY          2741.04         C  4 -- H 10         +50.0% ( 71.4%)    100.0%
 TRANSITION DIPOLE   1.8098         C  6 -- H 12         +32.6% ( 57.7%)    100.0%
 TRAVEL (Ang.)       0.2623         C  1 -- H  7          +9.1% ( 30.4%)     99.8%
 REDUCED MASS        0.3577         C  5 -- H 11          +6.2% ( 25.1%)     99.2%
 EFFECTIVE MASS      1.3726
 FORCE CONSTANT      1.5834

 VIBRATION         56   56A           ATOM PAIR      ENERGY CONTRIBUTION    RADIAL
 FREQUENCY          2749.20         C 14 -- H 20         +54.9% ( 76.0%)     99.3%
 TRANSITION DIPOLE   0.5086         C 14 -- H 21         +32.2% ( 58.2%)     97.5%
 TRAVEL (Ang.)       0.2417         O 15 -- H 16          +7.9% ( 28.8%)     99.7%
 REDUCED MASS        0.4199         C  6 -- H 12          +1.6% ( 12.8%)    100.0%
 EFFECTIVE MASS      1.4754
 FORCE CONSTANT      1.8699

 VIBRATION         57   57A           ATOM PAIR      ENERGY CONTRIBUTION    RADIAL
 FREQUENCY          2751.42         O 15 -- H 16         +82.4% ( 90.7%)     99.4%
 TRANSITION DIPOLE   1.4718         O 18 -- H 19          +7.6% ( 27.6%)     98.2%
 TRAVEL (Ang.)       0.1926         C 14 -- H 20          +5.0% ( 22.4%)     99.0%
 REDUCED MASS        0.6604         C 14 -- H 21          +3.7% ( 19.2%)     98.1%
 EFFECTIVE MASS      1.3565
 FORCE CONSTANT      2.9455

 VIBRATION         58   58A           ATOM PAIR      ENERGY CONTRIBUTION    RADIAL
 FREQUENCY          2751.89         C  6 -- H 12         +36.6% ( 61.1%)    100.0%
 TRANSITION DIPOLE   1.3152         C  4 -- H 10         +27.6% ( 53.0%)    100.0%
 TRAVEL (Ang.)       0.3138         C  1 -- H  7         +15.1% ( 39.2%)     99.9%
 REDUCED MASS        0.2488         C  5 -- H 11         +13.8% ( 37.5%)    100.0%
 EFFECTIVE MASS      1.4460
 FORCE CONSTANT      1.1099

 VIBRATION         59   59A           ATOM PAIR      ENERGY CONTRIBUTION    RADIAL
 FREQUENCY          2793.30         O 18 -- H 19         +79.0% ( 85.8%)     99.7%
 TRANSITION DIPOLE   1.0642         H 17 -- O 18         +15.7% ( 38.2%)     98.8%
 TRAVEL (Ang.)       0.2006         O 15 -- H 16          +5.2% ( 21.9%)     99.6%
 REDUCED MASS        0.6000         C 14 -- H 21          +0.1% (  3.4%)     99.3%
 EFFECTIVE MASS      1.2176
 FORCE CONSTANT      2.7585

 VIBRATION         60   60A           ATOM PAIR      ENERGY CONTRIBUTION    RADIAL
 FREQUENCY          2818.52         C 14 -- H 21         +63.3% ( 78.3%)     97.5%
 TRANSITION DIPOLE   1.0999         C 14 -- H 20         +35.7% ( 58.9%)     93.0%
 TRAVEL (Ang.)       0.2159         C  8 -- C 14          +0.8% (  8.6%)     97.8%
 REDUCED MASS        0.5131
 EFFECTIVE MASS      1.2654
 FORCE CONSTANT      2.4014

      SYMMETRY NUMBER FOR POINT-GROUP C1  =  1


          SYSTEM IS A GROUND STATE



 Title: ASE calculation


          MOLECULE IS NOT LINEAR

          THERE ARE 60 GENUINE VIBRATIONS IN THIS SYSTEM
          THIS THERMODYNAMICS CALCULATION IS LIMITED TO
          MOLECULES WHICH HAVE NO INTERNAL ROTATIONS




                    CALCULATED THERMODYNAMIC PROPERTIES
                                          *
   TEMP. (K)   PARTITION FUNCTION   H.O.F.    ENTHALPY  HEAT CAPACITY ENTROPY
                                   KCAL/MOL   CAL/MOLE    CAL/K/MOL  CAL/K/MOL


 298.00  VIB.     0.1995D+08                  7934.4564    45.7702    60.0278
         ROT.     0.2455D+07                   888.2803     2.9808    32.2198
         INT.     0.4897D+14                  8822.7367    48.7510    92.2476
         TRA.     0.2241D+28                  1480.4672     4.9680    41.3868
         TOT.                     -282.654   10303.2039    53.7190   133.6344

   *: NOTE: HEATS OF FORMATION ARE RELATIVE TO THE
            ELEMENTS IN THEIR STANDARD STATE AT 298K
              (=  Standard Enthalpy of Formation).

            Hvib:  Zero-point energy is not included.
                   frequencies of less than zero cm-1 are not included.
            Hrot = (3/2)RT
            Htra = (3/2)RT + pV = (5/2)RT

            Heat capacity is Cp, not Cv

          For more information, see: HTTP://OpenMOPAC.net/Manual/thermochemistry.html


           FORCE CONSTANT IN CARTESIAN COORDINATES (Millidynes/A)

    ATOM   CHEMICAL       X               Y               Z
   NUMBER   SYMBOL  FORCE CONSTANT  FORCE CONSTANT  FORCE CONSTANT

      1       C       11.220818       10.114933        2.206243
      2       C       11.665486       10.997870        2.683143
      3       C       13.522480       12.235742        2.128109
      4       C       11.395145       10.263579        2.155694
      5       C       11.301945       10.211120        2.340369
      6       C        9.661430       11.734336        2.271858
      7       H        1.726045        3.381047        0.395478
      8       C        5.232725        8.081935       13.500577
      9       F        9.617829        1.100154        0.264478
     10       H        1.682827        3.418489        0.383724
     11       H        1.773076        3.315693        0.379842
     12       H        4.213685        0.904928        0.373906
     13       O        2.466547        1.310480        8.421118
     14       C        3.502923        7.126938       10.384726
     15       O        2.636489        4.550245        4.682331
     16       H        0.214014        1.201461        3.468919
     17       H        3.199860        0.479770        1.060051
     18       O        6.625288        2.112917        2.663831
     19       H        2.324667        1.678720        0.792827
     20       H        1.345188        3.275799        0.718959
     21       H        1.245478        0.783745        3.360427
     22       H        0.149152        3.954981        0.615388

 **********************
 *                    *
 * JOB ENDED NORMALLY *
 *                    *
 **********************



 TOTAL JOB TIME:             1.47 SECONDS

 == MOPAC DONE ==
