
                                 *****************
                                 * O   R   C   A *
                                 *****************

                                            #,                                       
                                            ###                                      
                                            ####                                     
                                            #####                                    
                                            ######                                   
                                           ########,                                 
                                     ,,################,,,,,                         
                               ,,#################################,,                 
                          ,,##########################################,,             
                       ,#########################################, ''#####,          
                    ,#############################################,,   '####,        
                  ,##################################################,,,,####,       
                ,###########''''           ''''###############################       
              ,#####''   ,,,,##########,,,,          '''####'''          '####       
            ,##' ,,,,###########################,,,                        '##       
           ' ,,###''''                  '''############,,,                           
         ,,##''                                '''############,,,,        ,,,,,,###''
      ,#''                                            '''#######################'''  
     '                                                          ''''####''''         
             ,#######,   #######,   ,#######,      ##                                
            ,#'     '#,  ##    ##  ,#'     '#,    #''#        ######   ,####,        
            ##       ##  ##   ,#'  ##            #'  '#       #        #'  '#        
            ##       ##  #######   ##           ,######,      #####,   #    #        
            '#,     ,#'  ##    ##  '#,     ,#' ,#      #,         ##   #,  ,#        
             '#######'   ##     ##  '#######'  #'      '#     #####' # '####'        



                  #######################################################
                  #                        -***-                        #
                  #          Department of theory and spectroscopy      #
                  #    Directorship and core code : Frank Neese         #
                  #        Max Planck Institute fuer Kohlenforschung    #
                  #                Kaiser Wilhelm Platz 1               #
                  #                 D-45470 Muelheim/Ruhr               #
                  #                      Germany                        #
                  #                                                     #
                  #                  All rights reserved                #
                  #                        -***-                        #
                  #######################################################


                         Program Version 5.0.4 -  RELEASE  -


 With contributions from (in alphabetic order):
   Daniel Aravena         : Magnetic Suceptibility
   Michael Atanasov       : Ab Initio Ligand Field Theory (pilot matlab implementation)
   Alexander A. Auer      : GIAO ZORA, VPT2 properties, NMR spectrum
   Ute Becker             : Parallelization
   Giovanni Bistoni       : ED, misc. LED, open-shell LED, HFLD
   Martin Brehm           : Molecular dynamics
   Dmytro Bykov           : SCF Hessian
   Vijay G. Chilkuri      : MRCI spin determinant printing, contributions to CSF-ICE
   Dipayan Datta          : RHF DLPNO-CCSD density
   Achintya Kumar Dutta   : EOM-CC, STEOM-CC
   Dmitry Ganyushin       : Spin-Orbit,Spin-Spin,Magnetic field MRCI
   Miquel Garcia          : C-PCM and meta-GGA Hessian, CC/C-PCM, Gaussian charge scheme
   Yang Guo               : DLPNO-NEVPT2, F12-NEVPT2, CIM, IAO-localization
   Andreas Hansen         : Spin unrestricted coupled pair/coupled cluster methods
   Benjamin Helmich-Paris : MC-RPA, TRAH-SCF, COSX integrals
   Lee Huntington         : MR-EOM, pCC
   Robert Izsak           : Overlap fitted RIJCOSX, COSX-SCS-MP3, EOM
   Marcus Kettner         : VPT2
   Christian Kollmar      : KDIIS, OOCD, Brueckner-CCSD(T), CCSD density, CASPT2, CASPT2-K
   Simone Kossmann        : Meta GGA functionals, TD-DFT gradient, OOMP2, MP2 Hessian
   Martin Krupicka        : Initial AUTO-CI
   Lucas Lang             : DCDCAS
   Marvin Lechner         : AUTO-CI (C++ implementation), FIC-MRCC
   Dagmar Lenk            : GEPOL surface, SMD
   Dimitrios Liakos       : Extrapolation schemes; Compound Job, initial MDCI parallelization
   Dimitrios Manganas     : Further ROCIS development; embedding schemes
   Dimitrios Pantazis     : SARC Basis sets
   Anastasios Papadopoulos: AUTO-CI, single reference methods and gradients
   Taras Petrenko         : DFT Hessian,TD-DFT gradient, ASA, ECA, R-Raman, ABS, FL, XAS/XES, NRVS
   Peter Pinski           : DLPNO-MP2, DLPNO-MP2 Gradient
   Christoph Reimann      : Effective Core Potentials
   Marius Retegan         : Local ZFS, SOC
   Christoph Riplinger    : Optimizer, TS searches, QM/MM, DLPNO-CCSD(T), (RO)-DLPNO pert. Triples
   Tobias Risthaus        : Range-separated hybrids, TD-DFT gradient, RPA, STAB
   Michael Roemelt        : Original ROCIS implementation
   Masaaki Saitow         : Open-shell DLPNO-CCSD energy and density
   Barbara Sandhoefer     : DKH picture change effects
   Avijit Sen             : IP-ROCIS
   Kantharuban Sivalingam : CASSCF convergence, NEVPT2, FIC-MRCI
   Bernardo de Souza      : ESD, SOC TD-DFT
   Georgi Stoychev        : AutoAux, RI-MP2 NMR, DLPNO-MP2 response
   Willem Van den Heuvel  : Paramagnetic NMR
   Boris Wezisla          : Elementary symmetry handling
   Frank Wennmohs         : Technical directorship


 We gratefully acknowledge several colleagues who have allowed us to
 interface, adapt or use parts of their codes:
   Stefan Grimme, W. Hujo, H. Kruse, P. Pracht,  : VdW corrections, initial TS optimization,
                  C. Bannwarth, S. Ehlert          DFT functionals, gCP, sTDA/sTD-DF
   Ed Valeev, F. Pavosevic, A. Kumar             : LibInt (2-el integral package), F12 methods
   Garnet Chan, S. Sharma, J. Yang, R. Olivares  : DMRG
   Ulf Ekstrom                                   : XCFun DFT Library
   Mihaly Kallay                                 : mrcc  (arbitrary order and MRCC methods)
   Jiri Pittner, Ondrej Demel                    : Mk-CCSD
   Frank Weinhold                                : gennbo (NPA and NBO analysis)
   Christopher J. Cramer and Donald G. Truhlar   : smd solvation model
   Lars Goerigk                                  : TD-DFT with DH, B97 family of functionals
   V. Asgeirsson, H. Jonsson                     : NEB implementation
   FAccTs GmbH                                   : IRC, NEB, NEB-TS, DLPNO-Multilevel, CI-OPT
                                                   MM, QMMM, 2- and 3-layer-ONIOM, Crystal-QMMM,
                                                   LR-CPCM, SF, NACMEs, symmetry and pop. for TD-DFT,
                                                   nearIR, NL-DFT gradient (VV10), updates on ESD,
                                                   ML-optimized integration grids
   S Lehtola, MJT Oliveira, MAL Marques          : LibXC Library
   Liviu Ungur et al                             : ANISO software


 Your calculation uses the libint2 library for the computation of 2-el integrals
 For citations please refer to: http://libint.valeyev.net

 Your ORCA version has been built with support for libXC version: 5.1.0
 For citations please refer to: https://tddft.org/programs/libxc/

 This ORCA versions uses:
   CBLAS   interface :  Fast vector & matrix operations
   LAPACKE interface :  Fast linear algebra routines
   SCALAPACK package :  Parallel linear algebra routines
   Shared memory     :  Shared parallel matrices
   BLAS/LAPACK       :  OpenBLAS 0.3.15  USE64BITINT DYNAMIC_ARCH NO_AFFINITY Prescott SINGLE_THREADED
        Core in use  :  Prescott
   Copyright (c) 2011-2014, The OpenBLAS Project


Your calculation utilizes the atom-pairwise dispersion correction
with the Becke-Johnson damping scheme (D3BJ)
Cite in your paper:
S.Grimme, S.Ehrlich, L.Goerigk, J Comput Chem, (2011), 32, 1456–1465 
S.Grimme, J.Antony, S.Ehrlich and H.Krieg, J.Chem.Phys., 132, (2010), 154104 
   

================================================================================

----- Orbital basis set information -----
Your calculation utilizes the basis: def2-TZVP
   F. Weigend and R. Ahlrichs, Phys. Chem. Chem. Phys. 7, 3297 (2005).

----- AuxJ basis set information -----
Your calculation utilizes the auxiliary basis: def2/J
   F. Weigend, Phys. Chem. Chem. Phys. 8, 1057 (2006).

================================================================================
                                        WARNINGS
                       Please study these warnings very carefully!
================================================================================


WARNING: Geometry Optimization
  ===> : Switching off AutoStart
         For restart on a previous wavefunction, please use MOREAD

INFO   : the flag for use of the SHARK integral package has been found!

================================================================================
                                       INPUT FILE
================================================================================
NAME = /home/rudenko/mop_saddle_orca_4_serv/for_orca/ch32chno2_pyridine_new/orca/orca_end/end.inp
|  1> !  opt B3LYP def2-TZVP CPCM D3 
|  2> %pal nprocs 102 end
|  3> %cpcm epsilon 78.4 end 
|  4> *xyz 0 1 
|  5> C   0.85144 -0.54122 -0.86714
|  6> H   1.0022 -0.78842 -1.92766
|  7> N   0.73359 -2.94168 -0.43716
|  8> O   0.60584 -3.17474 -1.67915
|  9> O   0.66066 -3.9505 0.33538
| 10> H   1.78652 -0.61245 1.67489
| 11> C   0.97413 -1.72559 0.02784
| 12> H   3.06739 -2.07182 -0.77617
| 13> H   -0.15174 -0.09074 -0.78615
| 14> C   1.16751 -1.50033 1.48684
| 15> H   0.20992 -1.34285 2.00401
| 16> C   4.66666 -2.47575 -4.17494
| 17> C   4.9571 -3.01389 -5.42514
| 18> C   5.04596 -4.39805 -5.57433
| 19> C   4.83077 -5.21909 -4.4671
| 20> C   4.54177 -4.6446 -3.23258
| 21> N   4.46985 -3.29222 -3.10594
| 22> H   5.1118 -2.34671 -6.279
| 23> H   5.27592 -4.83598 -6.55202
| 24> H   4.88621 -6.30896 -4.55904
| 25> H   1.57447 0.24398 -0.61214
| 26> H   1.66175 -2.35257 1.97643
| 27> H   4.36267 -5.25396 -2.32769
| 28> H   4.58436 -1.3878 -4.0075
| 29> H   4.24103 -2.7166 -0.06311
| 30> H   4.27265 -2.86165 -2.15238
| 31> O   4.04546 -2.12565 -0.83098
| 32> *
| 33> 
| 34>                          ****END OF INPUT****
================================================================================

                       *****************************
                       * Geometry Optimization Run *
                       *****************************

Geometry optimization settings:
Update method            Update   .... BFGS
Choice of coordinates    CoordSys .... Z-matrix Internals
Initial Hessian          InHess   .... Almoef's Model

Convergence Tolerances:
Energy Change            TolE     ....  5.0000e-06 Eh
Max. Gradient            TolMAXG  ....  3.0000e-04 Eh/bohr
RMS Gradient             TolRMSG  ....  1.0000e-04 Eh/bohr
Max. Displacement        TolMAXD  ....  4.0000e-03 bohr
RMS Displacement         TolRMSD  ....  2.0000e-03 bohr
Strict Convergence                ....  False
------------------------------------------------------------------------------
                        ORCA OPTIMIZATION COORDINATE SETUP
------------------------------------------------------------------------------

The optimization will be done in new redundant internal coordinates
Making redundant internal coordinates   ...  (new redundants) done
Evaluating the initial hessian          ...  (Almloef) done
Evaluating the coordinates              ...  done
Calculating the B-matrix                .... done
Calculating the G-matrix                .... done
Diagonalizing the G-matrix              .... done
Small eigenvalue found = 5.985e-03
Small eigenvalue found = 9.204e-03
Small eigenvalue found = 1.396e-02
The first mode is                       ....  175
The number of degrees of freedom        ....   75

    -----------------------------------------------------------------
                    Redundant Internal Coordinates


    -----------------------------------------------------------------
         Definition                    Initial Value    Approx d2E/dq
    -----------------------------------------------------------------
      1. B(H   1,C   0)                  1.0993         0.347959   
      2. B(O   3,N   2)                  1.2701         0.778559   
      3. B(O   4,N   2)                  1.2727         0.771083   
      4. B(C   6,N   2)                  1.3240         0.713156   
      5. B(C   6,C   0)                  1.4896         0.433416   
      6. B(H   7,O   3)                  2.8445         0.000512   
      7. B(H   7,C   6)                  2.2689         0.004737   
      8. B(H   7,H   1)                  2.6904         0.000193   
      9. B(H   7,C   0)                  2.6947         0.000991   
     10. B(H   7,N   2)                  2.5136         0.001727   
     11. B(H   8,C   0)                  1.1027         0.343734   
     12. B(C   9,H   5)                  1.0986         0.348933   
     13. B(C   9,C   6)                  1.4889         0.434462   
     14. B(H  10,C   9)                  1.0997         0.347550   
     15. B(C  12,C  11)                  1.3917         0.620807   
     16. B(C  13,C  12)                  1.3950         0.613403   
     17. B(C  14,C  13)                  1.3951         0.613145   
     18. B(C  15,C  14)                  1.3920         0.620276   
     19. B(N  16,C  15)                  1.3602         0.624339   
     20. B(N  16,C  11)                  1.3595         0.626048   
     21. B(H  17,C  12)                  1.0946         0.354072   
     22. B(H  18,C  13)                  1.0957         0.352648   
     23. B(H  19,C  14)                  1.0951         0.353357   
     24. B(H  20,H   7)                  2.7602         0.000149   
     25. B(H  20,C   0)                  1.0974         0.350413   
     26. B(H  21,C   9)                  1.1001         0.346946   
     27. B(H  22,C  15)                  1.1055         0.340116   
     28. B(H  23,C  11)                  1.1038         0.342259   
     29. B(H  25,N  16)                  1.0647         0.353955   
     30. B(O  26,H  24)                  0.9885         0.468304   
     31. B(O  26,H   7)                  0.9811         0.481206   
     32. B(O  26,H  25)                  1.5295         0.064172   
     33. A(H   7,C   0,H  20)           81.7651         0.141827   
     34. A(H   1,C   0,H   8)          106.7075         0.287181   
     35. A(H   1,C   0,C   6)          112.9255         0.330485   
     36. A(H   1,C   0,H  20)          107.1392         0.288046   
     37. A(C   6,C   0,H   8)          110.8327         0.329818   
     38. A(C   6,C   0,H   7)           57.3405         0.153090   
     39. A(C   6,C   0,H  20)          112.0257         0.330870   
     40. A(H   8,C   0,H  20)          106.8597         0.287497   
     41. A(H   1,C   0,H   7)           77.9990         0.141743   
     42. A(H   7,C   0,H   8)          167.8815         0.141597   
     43. A(C   0,H   1,H   7)           78.4423         0.118115   
     44. A(C   6,N   2,H   7)           63.9490         0.168731   
     45. A(O   3,N   2,H   7)           91.4328         0.169648   
     46. A(O   4,N   2,C   6)          121.6864         0.453973   
     47. A(O   4,N   2,H   7)          114.1652         0.169472   
     48. A(O   3,N   2,C   6)          122.0223         0.454771   
     49. A(O   3,N   2,O   4)          116.2535         0.458169   
     50. A(N   2,O   3,H   7)           62.0557         0.150251   
     51. A(N   2,C   6,H   7)           84.4334         0.190369   
     52. A(C   0,C   6,C   9)          118.6315         0.382599   
     53. A(H   7,C   6,C   9)          104.5072         0.180365   
     54. A(N   2,C   6,C   9)          120.4454         0.414925   
     55. A(C   0,C   6,H   7)           89.1068         0.180315   
     56. A(C   0,C   6,N   2)          120.2870         0.414747   
     57. A(C   6,H   7,O  26)          161.4259         0.168927   
     58. A(N   2,H   7,C   6)           31.6176         0.111351   
     59. A(C   0,H   7,O   3)           59.8603         0.100914   
     60. A(O   3,H   7,O  26)          145.4582         0.136746   
     61. A(C   0,H   7,N   2)           55.7785         0.104687   
     62. A(H   1,H   7,C   6)           51.0001         0.100009   
     63. A(N   2,H   7,O  26)          156.0872         0.151866   
     64. A(N   2,H   7,O   3)           26.5116         0.102352   
     65. A(C   0,H   7,H   1)           23.5587         0.096727   
     66. A(H   1,H   7,O  26)          140.1327         0.119966   
     67. A(C   0,H   7,O  26)          148.1127         0.145097   
     68. A(C   0,H   7,C   6)           33.5527         0.108944   
     69. A(H  20,H   7,O  26)          126.0556         0.118220   
     70. A(C   6,H   7,H  20)           49.6026         0.099388   
     71. A(C   0,H   7,H  20)           23.1718         0.096291   
     72. A(O   3,H   7,H  20)           82.8838         0.095206   
     73. A(N   2,H   7,H  20)           77.2995         0.097171   
     74. A(H   1,H   7,H  20)           37.8156         0.093025   
     75. A(O   3,H   7,C   6)           51.1915         0.105975   
     76. A(H   1,H   7,O   3)           52.0342         0.095577   
     77. A(H   1,H   7,N   2)           60.6656         0.097659   
     78. A(H  10,C   9,H  21)          107.0291         0.287546   
     79. A(C   6,C   9,H  21)          112.1628         0.330458   
     80. A(H   5,C   9,H  21)          107.2643         0.287725   
     81. A(C   6,C   9,H  10)          111.6800         0.330553   
     82. A(H   5,C   9,H  10)          107.1230         0.287803   
     83. A(H   5,C   9,C   6)          111.2968         0.330770   
     84. A(N  16,C  11,H  23)          117.5079         0.348314   
     85. A(C  12,C  11,H  23)          122.2033         0.349968   
     86. A(C  12,C  11,N  16)          120.2887         0.432080   
     87. A(C  11,C  12,C  13)          119.5393         0.433333   
     88. A(C  13,C  12,H  17)          120.8208         0.351267   
     89. A(C  11,C  12,H  17)          119.6399         0.351980   
     90. A(C  12,C  13,C  14)          119.2898         0.432366   
     91. A(C  14,C  13,H  18)          120.3530         0.351003   
     92. A(C  12,C  13,H  18)          120.3560         0.351028   
     93. A(C  13,C  14,C  15)          119.5384         0.433233   
     94. A(C  15,C  14,H  19)          119.7155         0.351809   
     95. A(C  13,C  14,H  19)          120.7462         0.351122   
     96. A(C  14,C  15,H  22)          122.1453         0.349547   
     97. A(C  14,C  15,N  16)          120.2579         0.431802   
     98. A(N  16,C  15,H  22)          117.5968         0.347785   
     99. A(C  15,N  16,H  25)          119.6873         0.347089   
    100. A(C  11,N  16,C  15)          121.0822         0.429695   
    101. A(C  11,N  16,H  25)          119.2224         0.347248   
    102. A(C   0,H  20,H   7)           75.0630         0.116516   
    103. A(N  16,H  25,O  26)          174.7952         0.221919   
    104. A(H  24,O  26,H  25)          110.7355         0.230614   
    105. A(H   7,O  26,H  24)          100.7571         0.312434   
    106. A(H   7,O  26,H  25)          102.8706         0.231488   
    107. D(H   7,H   1,C   0,C   6)    -46.4549         0.121887   
    108. D(H   7,H   1,C   0,H  20)     77.3619         0.121887   
    109. D(H   7,H   1,C   0,H   8)   -168.4678         0.121887   
    110. D(H   7,O   3,N   2,C   6)     59.8340         0.060793   
    111. D(H   7,O   3,N   2,O   4)   -117.9651         0.060793   
    112. D(H   7,C   6,C   0,H  20)    -63.7150         0.015774   
    113. D(C   9,C   6,C   0,H  20)     42.3617         0.015774   
    114. D(C   0,C   6,N   2,O   3)     11.5320         0.049508   
    115. D(H   7,C   6,C   0,H   8)    177.0307         0.015774   
    116. D(H   7,C   6,N   2,O   4)    103.5170         0.049508   
    117. D(N   2,C   6,C   0,H   1)    -25.6573         0.015774   
    118. D(N   2,C   6,C   0,H   7)    -83.0240         0.015774   
    119. D(C   9,C   6,C   0,H   7)    106.0767         0.015774   
    120. D(C   9,C   6,N   2,O   4)     -0.0546         0.049508   
    121. D(C   0,C   6,N   2,H   7)     85.6953         0.049508   
    122. D(C   0,C   6,N   2,O   4)   -170.7877         0.049508   
    123. D(C   9,C   6,C   0,H   1)    163.4434         0.015774   
    124. D(N   2,C   6,C   0,H  20)   -146.7390         0.015774   
    125. D(C   9,C   6,N   2,H   7)   -103.5716         0.049508   
    126. D(H   7,C   6,N   2,O   3)    -74.1633         0.049508   
    127. D(C   9,C   6,C   0,H   8)    -76.8926         0.015774   
    128. D(N   2,C   6,C   0,H   8)     94.0067         0.015774   
    129. D(H   7,C   6,C   0,H   1)     57.3667         0.015774   
    130. D(C   9,C   6,N   2,O   3)   -177.7349         0.049508   
    131. D(H   1,H   7,C   0,H   8)    114.2046         0.001501   
    132. D(H   1,H   7,N   2,O   4)   -177.2730         0.001503   
    133. D(H   1,H   7,N   2,O   3)     62.9778         0.001503   
    134. D(C   0,H   7,N   2,C   6)    -35.1443         0.001503   
    135. D(O   3,H   7,N   2,O   4)    119.7492         0.001503   
    136. D(H   1,H   7,C   0,H  20)   -109.5836         0.001501   
    137. D(O  26,H   7,C   0,H  20)    -22.5122         0.001501   
    138. D(C   0,H   7,N   2,O   3)     90.1778         0.001503   
    139. D(O  26,H   7,N   2,O   4)     27.9507         0.001503   
    140. D(O  26,H   7,C   0,C   6)   -145.3906         0.001501   
    141. D(O  26,H   7,C   0,H   1)     87.0715         0.001501   
    142. D(H  20,H   7,H   1,C   0)    -37.2041         0.001501   
    143. D(C   6,H   7,H   1,C   0)     34.3289         0.001501   
    144. D(O   3,H   7,H   1,C   0)    101.3114         0.001501   
    145. D(O  26,H   7,H   1,C   0)   -124.6125         0.001501   
    146. D(H  20,H   7,C   0,H   8)   -136.2117         0.001501   
    147. D(H  20,H   7,C   0,C   6)   -122.8785         0.001501   
    148. D(H  20,H   7,C   0,H   1)    109.5836         0.001501   
    149. D(O   3,H   7,C   6,C   9)    147.9088         0.001516   
    150. D(C   6,H   7,C   0,H  20)    122.8785         0.001501   
    151. D(C   6,H   7,C   0,H   8)    -13.3332         0.001501   
    152. D(N   2,H   7,H   1,C   0)     71.0208         0.001501   
    153. D(N   2,H   7,C   6,C   9)    120.0441         0.001516   
    154. D(N   2,H   7,C   6,C   0)   -120.5508         0.001516   
    155. D(C   6,H   7,C   0,H   1)   -127.5379         0.001501   
    156. D(O  26,H   7,N   2,O   3)    -91.7985         0.001503   
    157. D(O   3,H   7,C   0,H  20)   -172.9535         0.001501   
    158. D(O  26,H   7,N   2,C   6)    142.8795         0.001503   
    159. D(O  26,H   7,C   0,H   8)   -158.7239         0.001501   
    160. D(C   0,H   7,N   2,O   4)   -150.0730         0.001503   
    161. D(C   0,H   7,C   6,C   9)   -119.4051         0.001516   
    162. D(O   3,H   7,C   0,H   8)     50.8347         0.001501   
    163. D(H   1,H   7,C   0,C   6)    127.5379         0.001501   
    164. D(H   1,H   7,N   2,C   6)    -62.3443         0.001503   
    165. D(O   3,H   7,C   0,C   6)     64.1680         0.001501   
    166. D(O   3,H   7,N   2,C   6)   -125.3220         0.001503   
    167. D(C   6,H   7,N   2,O   3)    125.3220         0.001503   
    168. D(C   6,H   7,N   2,O   4)   -114.9288         0.001503   
    169. D(O  26,H   7,C   6,N   2)   -129.8279         0.001516   
    170. D(O  26,H   7,C   6,C   0)    109.6213         0.001516   
    171. D(O   3,H   7,C   0,H   1)    -63.3699         0.001501   
    172. D(H   1,H   7,O   3,N   2)    -99.9148         0.001500   
    173. D(H  20,H   7,O   3,N   2)    -75.7542         0.001500   
    174. D(N   2,H   7,C   0,H   8)     19.7598         0.001501   
    175. D(N   2,H   7,C   0,H  20)    155.9715         0.001501   
    176. D(C   0,H   7,O   3,N   2)    -72.9659         0.001500   
    177. D(C   6,H   7,O   3,N   2)    -33.2928         0.001500   
    178. D(O  26,H   7,O   3,N   2)    134.3951         0.001500   
    179. D(O  26,H   7,C   6,C   9)     -9.7837         0.001516   
    180. D(C   0,H   7,C   6,N   2)    120.5508         0.001516   
    181. D(N   2,H   7,C   0,C   6)     33.0930         0.001501   
    182. D(H   1,H   7,C   6,C   0)    -24.0678         0.001516   
    183. D(H   1,H   7,C   6,N   2)     96.4830         0.001516   
    184. D(H   1,H   7,C   6,C   9)   -143.4729         0.001516   
    185. D(H  20,H   7,N   2,C   6)    -25.6909         0.001503   
    186. D(H  20,H   7,N   2,O   4)   -140.6197         0.001503   
    187. D(O   3,H   7,C   6,C   0)    -92.6861         0.001516   
    188. D(O   3,H   7,C   6,N   2)     27.8647         0.001516   
    189. D(N   2,H   7,C   0,H   1)    -94.4449         0.001501   
    190. D(H  20,H   7,C   6,C   0)     25.7168         0.001516   
    191. D(H  20,H   7,C   6,N   2)    146.2676         0.001516   
    192. D(H  20,H   7,C   6,C   9)    -93.6882         0.001516   
    193. D(H  20,H   7,N   2,O   3)     99.6311         0.001503   
    194. D(H  21,C   9,C   6,H   7)    -58.4235         0.014918   
    195. D(H  21,C   9,C   6,C   0)   -155.4839         0.014918   
    196. D(H  10,C   9,C   6,H   7)   -178.5710         0.014918   
    197. D(H  10,C   9,C   6,N   2)    -86.5158         0.014918   
    198. D(H  10,C   9,C   6,C   0)     84.3686         0.014918   
    199. D(H   5,C   9,C   6,H   7)     61.7573         0.014918   
    200. D(H  21,C   9,C   6,N   2)     33.6317         0.014918   
    201. D(H   5,C   9,C   6,N   2)    153.8125         0.014918   
    202. D(H   5,C   9,C   6,C   0)    -35.3030         0.014918   
    203. D(H  17,C  12,C  11,H  23)      0.0319         0.026673   
    204. D(H  17,C  12,C  11,N  16)    179.8885         0.026673   
    205. D(C  13,C  12,C  11,H  23)   -179.8990         0.026673   
    206. D(C  13,C  12,C  11,N  16)     -0.0423         0.026673   
    207. D(H  18,C  13,C  12,H  17)      0.1959         0.026003   
    208. D(H  18,C  13,C  12,C  11)   -179.8741         0.026003   
    209. D(C  14,C  13,C  12,H  17)   -179.4125         0.026003   
    210. D(C  14,C  13,C  12,C  11)      0.5175         0.026003   
    211. D(H  19,C  14,C  13,H  18)     -0.1312         0.025980   
    212. D(H  19,C  14,C  13,C  12)    179.4772         0.025980   
    213. D(C  15,C  14,C  13,H  18)    179.9027         0.025980   
    214. D(C  15,C  14,C  13,C  12)     -0.4889         0.025980   
    215. D(H  22,C  15,C  14,H  19)     -0.0385         0.026624   
    216. D(H  22,C  15,C  14,C  13)    179.9280         0.026624   
    217. D(N  16,C  15,C  14,H  19)   -179.9821         0.026624   
    218. D(N  16,C  15,C  14,C  13)     -0.0156         0.026624   
    219. D(H  25,N  16,C  15,H  22)      1.6023         0.031599   
    220. D(H  25,N  16,C  15,C  14)   -178.4517         0.031599   
    221. D(C  11,N  16,C  15,H  22)   -179.4416         0.031599   
    222. D(C  11,N  16,C  15,C  14)      0.5045         0.031599   
    223. D(H  25,N  16,C  11,H  23)     -1.6512         0.031786   
    224. D(H  25,N  16,C  11,C  12)    178.4855         0.031786   
    225. D(C  15,N  16,C  11,H  23)    179.3879         0.031786   
    226. D(C  15,N  16,C  11,C  12)     -0.4754         0.031786   
    227. D(C   0,H  20,H   7,N   2)    -20.1902         0.001500   
    228. D(C   0,H  20,H   7,H   1)     37.8925         0.001500   
    229. D(C   0,H  20,H   7,O  26)    165.5119         0.001500   
    230. D(H   7,H  20,C   0,H   8)    171.2688         0.123984   
    231. D(H   7,H  20,C   0,C   6)     49.7035         0.123984   
    232. D(C   0,H  20,H   7,O   3)      6.1374         0.001500   
    233. D(H   7,H  20,C   0,H   1)    -74.6634         0.123984   
    234. D(C   0,H  20,H   7,C   6)    -37.5532         0.001500   
    235. D(O  26,H  25,N  16,C  15)    158.8485         0.131004   
    236. D(O  26,H  25,N  16,C  11)    -20.1271         0.131004   
    237. D(H  24,O  26,H  25,N  16)   -139.7241         0.003987   
    238. D(H  25,O  26,H   7,H  20)   -120.8631         0.419791   
    239. D(H  25,O  26,H   7,C   6)    169.6344         0.419791   
    240. D(H  25,O  26,H   7,O   3)     21.0779         0.419791   
    241. D(H  25,O  26,H   7,N   2)     72.9715         0.419791   
    242. D(H  25,O  26,H   7,H   1)    -71.6083         0.419791   
    243. D(H  25,O  26,H   7,C   0)   -110.1229         0.419791   
    244. D(H  24,O  26,H   7,H  20)    124.7381         0.419791   
    245. D(H  24,O  26,H   7,C   6)     55.2357         0.419791   
    246. D(H  24,O  26,H   7,O   3)    -93.3208         0.419791   
    247. D(H  24,O  26,H   7,N   2)    -41.4273         0.419791   
    248. D(H   7,O  26,H  25,N  16)    113.3451         0.003987   
    249. D(H  24,O  26,H   7,H   1)    173.9929         0.419791   
    250. D(H  24,O  26,H   7,C   0)    135.4784         0.419791   
    -----------------------------------------------------------------

Number of atoms                         .... 27
Number of degrees of freedom            .... 250

         *************************************************************
         *                GEOMETRY OPTIMIZATION CYCLE   1            *
         *************************************************************
---------------------------------
CARTESIAN COORDINATES (ANGSTROEM)
---------------------------------
  C      0.851440   -0.541220   -0.867140
  H      1.002200   -0.788420   -1.927660
  N      0.733590   -2.941680   -0.437160
  O      0.605840   -3.174740   -1.679150
  O      0.660660   -3.950500    0.335380
  H      1.786520   -0.612450    1.674890
  C      0.974130   -1.725590    0.027840
  H      3.067390   -2.071820   -0.776170
  H     -0.151740   -0.090740   -0.786150
  C      1.167510   -1.500330    1.486840
  H      0.209920   -1.342850    2.004010
  C      4.666660   -2.475750   -4.174940
  C      4.957100   -3.013890   -5.425140
  C      5.045960   -4.398050   -5.574330
  C      4.830770   -5.219090   -4.467100
  C      4.541770   -4.644600   -3.232580
  N      4.469850   -3.292220   -3.105940
  H      5.111800   -2.346710   -6.279000
  H      5.275920   -4.835980   -6.552020
  H      4.886210   -6.308960   -4.559040
  H      1.574470    0.243980   -0.612140
  H      1.661750   -2.352570    1.976430
  H      4.362670   -5.253960   -2.327690
  H      4.584360   -1.387800   -4.007500
  H      4.241030   -2.716600   -0.063110
  H      4.272650   -2.861650   -2.152380
  O      4.045460   -2.125650   -0.830980

----------------------------
CARTESIAN COORDINATES (A.U.)
----------------------------
  NO LB      ZA    FRAG     MASS         X           Y           Z
   0 C     6.0000    0    12.011    1.608988   -1.022758   -1.638657
   1 H     1.0000    0     1.008    1.893884   -1.489898   -3.642749
   2 N     7.0000    0    14.007    1.386284   -5.558970   -0.826113
   3 O     8.0000    0    15.999    1.144872   -5.999389   -3.173134
   4 O     8.0000    0    15.999    1.248466   -7.465363    0.633776
   5 H     1.0000    0     1.008    3.376034   -1.157363    3.165083
   6 C     6.0000    0    12.011    1.840839   -3.260893    0.052610
   7 H     1.0000    0     1.008    5.796527   -3.915172   -1.466749
   8 H     1.0000    0     1.008   -0.286747   -0.171474   -1.485608
   9 C     6.0000    0    12.011    2.206274   -2.835213    2.809720
  10 H     1.0000    0     1.008    0.396691   -2.537619    3.787030
  11 C     6.0000    0    12.011    8.818709   -4.678489   -7.889493
  12 C     6.0000    0    12.011    9.367561   -5.695427  -10.252029
  13 C     6.0000    0    12.011    9.535482   -8.311110  -10.533957
  14 C     6.0000    0    12.011    9.128832   -9.862651   -8.441596
  15 C     6.0000    0    12.011    8.582701   -8.777022   -6.108691
  16 N     7.0000    0    14.007    8.446792   -6.221394   -5.869376
  17 H     1.0000    0     1.008    9.659902   -4.434639  -11.865590
  18 H     1.0000    0     1.008    9.970044   -9.138678  -12.381523
  19 H     1.0000    0     1.008    9.233599  -11.922207   -8.615337
  20 H     1.0000    0     1.008    2.975317    0.461055   -1.156777
  21 H     1.0000    0     1.008    3.140252   -4.445713    3.734911
  22 H     1.0000    0     1.008    8.244252   -9.928546   -4.398697
  23 H     1.0000    0     1.008    8.663185   -2.622562   -7.573077
  24 H     1.0000    0     1.008    8.014385   -5.133630   -0.119261
  25 H     1.0000    0     1.008    8.074138   -5.407735   -4.067409
  26 O     8.0000    0    15.999    7.644811   -4.016896   -1.570325

--------------------------------
INTERNAL COORDINATES (ANGSTROEM)
--------------------------------
 C      0   0   0     0.000000000000     0.00000000     0.00000000
 H      1   0   0     1.099335748532     0.00000000     0.00000000
 N      1   2   0     2.441511751866    87.44555476     0.00000000
 O      3   1   2     1.270108730070    90.74787575   346.23227419
 O      3   1   2     1.272735097693   152.74491790   173.77884828
 H      1   2   3     2.709495310976   148.41104107    66.05571580
 C      3   1   2     1.323993723437    31.79108820   156.47288128
 H      7   3   1     2.268930303160    84.43344324   274.30472347
 H      1   2   3     1.102661200415   106.70753244   249.69696699
 C      6   1   2     1.098575021107    70.49990183   268.28814482
 H     10   6   1     1.099656022309   107.12301830   254.86403382
 C      8   7   3     3.777891143310   136.52371976    67.06399399
 C     12   8   7     1.391743544336   159.69122362   297.61574175
 C     13  12   8     1.395009914409   119.53931621   320.53061576
 C     14  13  12     1.395124256330   119.28984653     0.51750247
 C     15  14  13     1.391976792371   119.53835416   359.51106579
 N     12   8   7     1.359455198600    45.21055826   247.01668430
 H     13  12   8     1.094594967100   119.63988045   140.46144924
 H     14  13  12     1.095692485417   120.35600419   180.12588559
 H     15  14  13     1.095145275340   120.74615315   179.47722614
 H      1   2   3     1.097422626384   107.13921945   135.52666308
 H     10   6   1     1.100129339351   107.26426379   140.24114036
 H     16  15  14     1.105541646298   122.14529896   179.92800684
 H     12   8   7     1.103831801544    74.13267199    83.53367648
 H      8   7   3     1.517111288469   127.73488773   271.84796652
 H     17  12   8     1.064685417623   119.22244328   340.39051354
 O      8   7   3     0.981082427679   161.42587498   230.17214402

---------------------------
INTERNAL COORDINATES (A.U.)
---------------------------
 C      0   0   0     0.000000000000     0.00000000     0.00000000
 H      1   0   0     2.077443493954     0.00000000     0.00000000
 N      1   2   0     4.613788563777    87.44555476     0.00000000
 O      3   1   2     2.400157660135    90.74787575   346.23227419
 O      3   1   2     2.405120775670   152.74491790   173.77884828
 H      1   2   3     5.120204098888   148.41104107    66.05571580
 C      3   1   2     2.501985540326    31.79108820   156.47288128
 H      7   3   1     4.287656889928    84.43344324   274.30472347
 H      1   2   3     2.083727687285   106.70753244   249.69696699
 C      6   1   2     2.076005927459    70.49990183   268.28814482
 H     10   6   1     2.078048723681   107.12301830   254.86403382
 C      8   7   3     7.139179624623   136.52371976    67.06399399
 C     12   8   7     2.630014147447   159.69122362   297.61574175
 C     13  12   8     2.636186692338   119.53931621   320.53061576
 C     14  13  12     2.636402767254   119.28984653     0.51750247
 C     15  14  13     2.630454922356   119.53835416   359.51106579
 N     12   8   7     2.568998016689    45.21055826   247.01668430
 H     13  12   8     2.068484715387   119.63988045   140.46144924
 H     14  13  12     2.070558724434   120.35600419   180.12588559
 H     15  14  13     2.069524647251   120.74615315   179.47722614
 H      1   2   3     2.073828217035   107.13921945   135.52666308
 H     10   6   1     2.078943163264   107.26426379   140.24114036
 H     16  15  14     2.089170941148   122.14529896   179.92800684
 H     12   8   7     2.085939802831    74.13267199    83.53367648
 H      8   7   3     2.866924849887   127.73488773   271.84796652
 H     17  12   8     2.011963858088   119.22244328   340.39051354
 O      8   7   3     1.853977103115   161.42587498   230.17214402

---------------------
BASIS SET INFORMATION
---------------------
There are 4 groups of distinct atoms

 Group   1 Type C   : 11s6p2d1f contracted to 5s3p2d1f pattern {62111/411/11/1}
 Group   2 Type H   : 5s1p contracted to 3s1p pattern {311/1}
 Group   3 Type N   : 11s6p2d1f contracted to 5s3p2d1f pattern {62111/411/11/1}
 Group   4 Type O   : 11s6p2d1f contracted to 5s3p2d1f pattern {62111/411/11/1}

Atom   0C    basis set group =>   1
Atom   1H    basis set group =>   2
Atom   2N    basis set group =>   3
Atom   3O    basis set group =>   4
Atom   4O    basis set group =>   4
Atom   5H    basis set group =>   2
Atom   6C    basis set group =>   1
Atom   7H    basis set group =>   2
Atom   8H    basis set group =>   2
Atom   9C    basis set group =>   1
Atom  10H    basis set group =>   2
Atom  11C    basis set group =>   1
Atom  12C    basis set group =>   1
Atom  13C    basis set group =>   1
Atom  14C    basis set group =>   1
Atom  15C    basis set group =>   1
Atom  16N    basis set group =>   3
Atom  17H    basis set group =>   2
Atom  18H    basis set group =>   2
Atom  19H    basis set group =>   2
Atom  20H    basis set group =>   2
Atom  21H    basis set group =>   2
Atom  22H    basis set group =>   2
Atom  23H    basis set group =>   2
Atom  24H    basis set group =>   2
Atom  25H    basis set group =>   2
Atom  26O    basis set group =>   4
---------------------------------
AUXILIARY/J BASIS SET INFORMATION
---------------------------------
There are 4 groups of distinct atoms

 Group   1 Type C   : 12s5p4d2f1g contracted to 6s4p3d1f1g pattern {711111/2111/211/2/1}
 Group   2 Type H   : 5s2p1d contracted to 3s1p1d pattern {311/2/1}
 Group   3 Type N   : 12s5p4d2f1g contracted to 6s4p3d1f1g pattern {711111/2111/211/2/1}
 Group   4 Type O   : 12s5p4d2f1g contracted to 6s4p3d1f1g pattern {711111/2111/211/2/1}

Atom   0C    basis set group =>   1
Atom   1H    basis set group =>   2
Atom   2N    basis set group =>   3
Atom   3O    basis set group =>   4
Atom   4O    basis set group =>   4
Atom   5H    basis set group =>   2
Atom   6C    basis set group =>   1
Atom   7H    basis set group =>   2
Atom   8H    basis set group =>   2
Atom   9C    basis set group =>   1
Atom  10H    basis set group =>   2
Atom  11C    basis set group =>   1
Atom  12C    basis set group =>   1
Atom  13C    basis set group =>   1
Atom  14C    basis set group =>   1
Atom  15C    basis set group =>   1
Atom  16N    basis set group =>   3
Atom  17H    basis set group =>   2
Atom  18H    basis set group =>   2
Atom  19H    basis set group =>   2
Atom  20H    basis set group =>   2
Atom  21H    basis set group =>   2
Atom  22H    basis set group =>   2
Atom  23H    basis set group =>   2
Atom  24H    basis set group =>   2
Atom  25H    basis set group =>   2
Atom  26O    basis set group =>   4


           ************************************************************
           *        Program running with 102 parallel MPI-processes   *
           *              working on a common directory               *
           ************************************************************
------------------------------------------------------------------------------
                           ORCA GTO INTEGRAL CALCULATION
                           -- RI-GTO INTEGRALS CHOSEN --
------------------------------------------------------------------------------
------------------------------------------------------------------------------
                   ___                                                        
                  /   \      - P O W E R E D   B Y -                         
                 /     \                                                     
                 |  |  |   _    _      __       _____    __    __             
                 |  |  |  | |  | |    /  \     |  _  \  |  |  /  |          
                  \  \/   | |  | |   /    \    | | | |  |  | /  /          
                 / \  \   | |__| |  /  /\  \   | |_| |  |  |/  /          
                |  |  |   |  __  | /  /__\  \  |    /   |      \           
                |  |  |   | |  | | |   __   |  |    \   |  |\   \          
                \     /   | |  | | |  |  |  |  | |\  \  |  | \   \       
                 \___/    |_|  |_| |__|  |__|  |_| \__\ |__|  \__/        
                                                                              
                      - O R C A' S   B I G   F R I E N D -                    
                                      &                                       
                       - I N T E G R A L  F E E D E R -                       
                                                                              
 v1 FN, 2020, v2 2021                                                         
------------------------------------------------------------------------------


Reading SHARK input file /home/rudenko/mop_saddle_orca_4_serv/for_orca/ch32chno2_pyridine_new/orca/orca_end/end.SHARKINP.tmp ... ok
----------------------
SHARK INTEGRAL PACKAGE
----------------------

Number of atoms                             ...     27
Number of basis functions                   ...    487
Number of shells                            ...    199
Maximum angular momentum                    ...      3
Integral batch strategy                     ... SHARK/LIBINT Hybrid
RI-J (if used) integral strategy            ... SPLIT-RIJ (Revised 2003 algorithm where possible)
Printlevel                                  ...      1
Contraction scheme used                     ... SEGMENTED contraction
Coulomb Range Separation                    ... NOT USED
Exchange Range Separation                   ... NOT USED
Finite Nucleus Model                        ... NOT USED
Auxiliary Coulomb fitting basis             ... AVAILABLE
   # of basis functions in Aux-J            ...    791
   # of shells in Aux-J                     ...    265
   Maximum angular momentum in Aux-J        ...      4
Auxiliary J/K fitting basis                 ... NOT available
Auxiliary Correlation fitting basis         ... NOT available
Auxiliary 'external' fitting basis          ... NOT available
Integral threshold                          ...     2.500000e-11
Primitive cut-off                           ...     2.500000e-12
Primitive pair pre-selection threshold      ...     2.500000e-12

Calculating pre-screening integrals         ... done (  0.1 sec) Dimension = 199
Organizing shell pair data                  ... done (  0.4 sec)
Shell pair information
Total number of shell pairs                 ...     19900
Shell pairs after pre-screening             ...     14650
Total number of primitive shell pairs       ...     59668
Primitive shell pairs kept                  ...     30498
          la=0 lb=0:   4202 shell pairs
          la=1 lb=0:   4328 shell pairs
          la=1 lb=1:   1156 shell pairs
          la=2 lb=0:   1975 shell pairs
          la=2 lb=1:   1049 shell pairs
          la=2 lb=2:    250 shell pairs
          la=3 lb=0:    940 shell pairs
          la=3 lb=1:    487 shell pairs
          la=3 lb=2:    212 shell pairs
          la=3 lb=3:     51 shell pairs

Calculating one electron integrals          ... done (  0.1 sec)
Calculating RI/J V-Matrix + Cholesky decomp.... done (  0.1 sec)
Calculating Nuclear repulsion               ... done (  0.0 sec) ENN=    774.645285548252 Eh

SHARK setup successfully completed in   1.0 seconds

Maximum memory used throughout the entire GTOINT-calculation: 27.0 MB


           ************************************************************
           *        Program running with 102 parallel MPI-processes   *
           *              working on a common directory               *
           ************************************************************
-------------------------------------------------------------------------------
                                 ORCA SCF
-------------------------------------------------------------------------------

------------
SCF SETTINGS
------------
Hamiltonian:
 Density Functional     Method          .... DFT(GTOs)
 Exchange Functional    Exchange        .... B88
   X-Alpha parameter    XAlpha          ....  0.666667
   Becke's b parameter  XBeta           ....  0.004200
 Correlation Functional Correlation     .... LYP
 LDA part of GGA corr.  LDAOpt          .... VWN-5
 Gradients option       PostSCFGGA      .... off
 Hybrid DFT is turned on
   Fraction HF Exchange ScalHFX         ....  0.200000
   Scaling of DF-GGA-X  ScalDFX         ....  0.720000
   Scaling of DF-GGA-C  ScalDFC         ....  0.810000
   Scaling of DF-LDA-C  ScalLDAC        ....  1.000000
   Perturbative correction              ....  0.000000
   Density functional embedding theory  .... OFF
   NL short-range parameter             ....  4.800000
 RI-approximation to the Coulomb term is turned on
   Number of AuxJ basis functions       .... 791
   RIJ-COSX (HFX calculated with COS-X)).... on


General Settings:
 Integral files         IntName         .... /home/rudenko/mop_saddle_orca_4_serv/for_orca/ch32chno2_pyridine_new/orca/orca_end/end
 Hartree-Fock type      HFTyp           .... RHF
 Total Charge           Charge          ....    0
 Multiplicity           Mult            ....    1
 Number of Electrons    NEL             ....  100
 Basis Dimension        Dim             ....  487
 Nuclear Repulsion      ENuc            ....    774.6452855483 Eh

Convergence Acceleration:
 DIIS                   CNVDIIS         .... on
   Start iteration      DIISMaxIt       ....    12
   Startup error        DIISStart       ....  0.200000
   # of expansion vecs  DIISMaxEq       ....     5
   Bias factor          DIISBfac        ....   1.050
   Max. coefficient     DIISMaxC        ....  10.000
 Trust-Rad. Augm. Hess. CNVTRAH         .... auto
   Auto Start mean grad. ratio tolernc. ....  1.125000
   Auto Start start iteration           ....    20
   Auto Start num. interpolation iter.  ....    10
   Max. Number of Micro iterations      ....    16
   Max. Number of Macro iterations      .... Maxiter - #DIIS iter
   Number of Davidson start vectors     ....     2
   Converg. threshold I  (grad. norm)   ....   1.000e-05
   Converg. threshold II (energy diff.) ....   1.000e-08
   Grad. Scal. Fac. for Micro threshold ....   0.100
   Minimum threshold for Micro iter.    ....   0.010
   NR start threshold (gradient norm)   ....   0.001
   Initial trust radius                 ....   0.400
   Minimum AH scaling param. (alpha)    ....   1.000
   Maximum AH scaling param. (alpha)    .... 1000.000
   Orbital update algorithm             .... Taylor
   White noise on init. David. guess    .... on
   Maximum white noise                  ....   0.010
   Quad. conv. algorithm                .... NR
 SOSCF                  CNVSOSCF        .... on
   Start iteration      SOSCFMaxIt      ....   150
   Startup grad/error   SOSCFStart      ....  0.003300
 Level Shifting         CNVShift        .... on
   Level shift para.    LevelShift      ....    0.2500
   Turn off err/grad.   ShiftErr        ....    0.0010
 Zerner damping         CNVZerner       .... off
 Static damping         CNVDamp         .... on
   Fraction old density DampFac         ....    0.7000
   Max. Damping (<1)    DampMax         ....    0.9800
   Min. Damping (>=0)   DampMin         ....    0.0000
   Turn off err/grad.   DampErr         ....    0.1000
 Fernandez-Rico         CNVRico         .... off

SCF Procedure:
 Maximum # iterations   MaxIter         ....   125
 SCF integral mode      SCFMode         .... Direct
   Integral package                     .... SHARK and LIBINT hybrid scheme
 Reset frequency        DirectResetFreq ....    20
 Integral Threshold     Thresh          ....  2.500e-11 Eh
 Primitive CutOff       TCut            ....  2.500e-12 Eh

Convergence Tolerance:
 Convergence Check Mode ConvCheckMode   .... Total+1el-Energy
 Convergence forced     ConvForced      .... 0
 Energy Change          TolE            ....  1.000e-08 Eh
 1-El. energy change                    ....  1.000e-05 Eh
 Orbital Gradient       TolG            ....  1.000e-05
 Orbital Rotation angle TolX            ....  1.000e-05
 DIIS Error             TolErr          ....  5.000e-07


Diagonalization of the overlap matrix:
Smallest eigenvalue                        ... 5.796e-05
Time for diagonalization                   ...    0.119 sec
Threshold for overlap eigenvalues          ... 1.000e-08
Number of eigenvalues below threshold      ... 0
Time for construction of square roots      ...    0.161 sec
Total time needed                          ...    0.282 sec

Time for model grid setup =    0.182 sec

------------------------------
INITIAL GUESS: MODEL POTENTIAL
------------------------------
Loading Hartree-Fock densities                     ... done
Calculating cut-offs                               ... done
Initializing the effective Hamiltonian             ... done
Setting up the integral package (SHARK)            ... done
Starting the Coulomb interaction                   ... done (   0.0 sec)
Reading the grid                                   ... done
Mapping shells                                     ... done
Starting the XC term evaluation                    ... done (   0.0 sec)
  promolecular density results
     # of electrons  =     99.993598380
     EX              =    -82.993724372
     EC              =     -3.385362014
     EX+EC           =    -86.379086386
Transforming the Hamiltonian                       ... done (   0.1 sec)
Diagonalizing the Hamiltonian                      ... done (   0.1 sec)
Back transforming the eigenvectors                 ... done (   0.1 sec)
Now organizing SCF variables                       ... done
                      ------------------
                      INITIAL GUESS DONE (   0.6 sec)
                      ------------------
-------------------
DFT GRID GENERATION
-------------------

General Integration Accuracy     IntAcc      ... 4.388
Radial Grid Type                 RadialGrid  ... OptM3 with GC (2021)
Angular Grid (max. ang.)         AngularGrid ... 4 (Lebedev-302)
Angular grid pruning method      GridPruning ... 4 (adaptive)
Weight generation scheme         WeightScheme... Becke
Basis function cutoff            BFCut       ... 1.0000e-11
Integration weight cutoff        WCut        ... 1.0000e-14
Angular grids for H and He will be reduced by one unit
Partially contracted basis set               ... off
Rotationally invariant grid construction     ... off

Total number of grid points                  ...   123404
Total number of batches                      ...     1942
Average number of points per batch           ...       63
Average number of grid points per atom       ...     4571
Time for grid setup =    0.999 sec

--------------------
COSX GRID GENERATION
--------------------

GRIDX 1
-------
General Integration Accuracy     IntAcc      ... 3.816
Radial Grid Type                 RadialGrid  ... OptM3 with GC (2021)
Angular Grid (max. ang.)         AngularGrid ... 1 (Lebedev-50)
Angular grid pruning method      GridPruning ... 4 (adaptive)
Weight generation scheme         WeightScheme... Becke
Basis function cutoff            BFCut       ... 1.0000e-11
Integration weight cutoff        WCut        ... 1.0000e-14
Angular grids for H and He will be reduced by one unit
Partially contracted basis set               ... on
Rotationally invariant grid construction     ... off

Total number of grid points                  ...    15755
Total number of batches                      ...      256
Average number of points per batch           ...       61
Average number of grid points per atom       ...      584
UseSFitting                                  ... on

GRIDX 2
-------
General Integration Accuracy     IntAcc      ... 4.020
Radial Grid Type                 RadialGrid  ... OptM3 with GC (2021)
Angular Grid (max. ang.)         AngularGrid ... 2 (Lebedev-110)
Angular grid pruning method      GridPruning ... 4 (adaptive)
Weight generation scheme         WeightScheme... Becke
Basis function cutoff            BFCut       ... 1.0000e-11
Integration weight cutoff        WCut        ... 1.0000e-14
Angular grids for H and He will be reduced by one unit
Partially contracted basis set               ... on
Rotationally invariant grid construction     ... off

Total number of grid points                  ...    33861
Total number of batches                      ...      543
Average number of points per batch           ...       62
Average number of grid points per atom       ...     1254
UseSFitting                                  ... on

GRIDX 3
-------
General Integration Accuracy     IntAcc      ... 4.338
Radial Grid Type                 RadialGrid  ... OptM3 with GC (2021)
Angular Grid (max. ang.)         AngularGrid ... 3 (Lebedev-194)
Angular grid pruning method      GridPruning ... 4 (adaptive)
Weight generation scheme         WeightScheme... Becke
Basis function cutoff            BFCut       ... 1.0000e-11
Integration weight cutoff        WCut        ... 1.0000e-14
Angular grids for H and He will be reduced by one unit
Partially contracted basis set               ... on
Rotationally invariant grid construction     ... off

Total number of grid points                  ...    74089
Total number of batches                      ...     1170
Average number of points per batch           ...       63
Average number of grid points per atom       ...     2744
UseSFitting                                  ... on

Time for X-Grid setup             =    1.341 sec


--------------------
CPCM SOLVATION MODEL
--------------------
CPCM parameters:
  Epsilon                                         ...      78.4000
  Refrac                                          ...       1.3300
  Rsolv                                           ...       1.3000
  Surface type                                    ... GAUSSIAN VDW
  Epsilon function type                           ...         CPCM
Radii:
 Radius for C  used is    3.8550 Bohr (=   2.0400 Ang.)
 Radius for H  used is    2.4944 Bohr (=   1.3200 Ang.)
 Radius for N  used is    3.5149 Bohr (=   1.8600 Ang.)
 Radius for O  used is    3.4469 Bohr (=   1.8240 Ang.)
Calculating surface                               ...        done! (  0.0s)
GEPOL surface points                              ...         1581
GEPOL Volume                                      ...    1640.5325
GEPOL Surface-area                                ...     964.8974
Calculating surface distance matrix               ...        done! (  0.1s)
Performing Cholesky decomposition & store         ...        done! (  0.5s)
Overall time for CPCM initialization              ...                 0.6s
--------------
SCF ITERATIONS
--------------
ITER       Energy         Delta-E        Max-DP      RMS-DP      [F,P]     Damp
               ***  Starting incremental Fock matrix formation  ***
  0   -647.8067363277   0.000000000000 0.07564717  0.00114260  0.2898911 0.7000
  1   -648.0188184507  -0.212082122974 0.06857492  0.00097093  0.1226117 0.7000
                               ***Turning on DIIS***
  2   -648.0980955193  -0.079277068630 0.08261903  0.00154293  0.0432368 0.0000
  3   -648.2260899158  -0.127994396421 0.06408603  0.00075142  0.0673639 0.0000
  4   -648.2531286247  -0.027038708925 0.01747509  0.00024503  0.0159720 0.0000
  5   -648.2546840161  -0.001555391448 0.00724198  0.00010012  0.0061315 0.0000
                      *** Initiating the SOSCF procedure ***
                           *** Shutting down DIIS ***
                      *** Re-Reading the Fockian *** 
                      *** Removing any level shift *** 
ITER      Energy       Delta-E        Grad      Rot      Max-DP    RMS-DP
  6   -648.25482999  -0.0001459736  0.000413  0.000413  0.002357  0.000036
               *** Restarting incremental Fock matrix formation ***
  7   -648.25480446   0.0000255322  0.000152  0.000729  0.002043  0.000030
  8   -648.25480405   0.0000004089  0.000211  0.000397  0.000307  0.000005
  9   -648.25480653  -0.0000024764  0.000041  0.000156  0.000193  0.000003
 10   -648.25480643   0.0000000998  0.000077  0.000121  0.000099  0.000001
 11   -648.25480658  -0.0000001562  0.000008  0.000029  0.000052  0.000001
 12   -648.25480659  -0.0000000076  0.000009  0.000015  0.000033  0.000000
                  ***Gradient check signals convergence***
              ***Rediagonalizing the Fockian in SOSCF/NRSCF***

               *****************************************************
               *                     SUCCESS                       *
               *           SCF CONVERGED AFTER  13 CYCLES          *
               *****************************************************

Old exchange energy                            =    -16.840568752 Eh
New exchange energy                            =    -16.840575168 Eh
Exchange energy change after final integration =     -0.000006416 Eh
Total energy after final integration           =   -648.254813001 Eh
Final COS-X integration done in                =     1.376 sec

----------------
TOTAL SCF ENERGY
----------------

Total Energy       :         -648.25481300 Eh          -17639.91026 eV

Components:
Nuclear Repulsion  :          774.64528555 Eh           21079.16986 eV
Electronic Energy  :        -1422.90009855 Eh          -38719.08012 eV
One Electron Energy:        -2419.96730692 Eh          -65850.65820 eV
Two Electron Energy:          997.06720837 Eh           27131.57808 eV
Max COSX asymmetry :            0.00000120 Eh               0.00003 eV
CPCM Dielectric    :           -0.08257922 Eh              -2.24709 eV

Virial components:
Potential Energy   :        -1293.50716247 Eh          -35198.11933 eV
Kinetic Energy     :          645.25234947 Eh           17558.20907 eV
Virial Ratio       :            2.00465316


DFT components:
N(Alpha)           :       50.000030027120 electrons
N(Beta)            :       50.000030027120 electrons
N(Total)           :      100.000060054240 electrons
E(X)               :      -67.022848304676 Eh       
E(C)               :       -4.002047451644 Eh       
E(XC)              :      -71.024895756319 Eh       
DFET-embed. en.    :        0.000000000000 Eh       
CPCM Solvation Model Properties:
Surface-charge          :           -0.02840452
Charge-correction       :           -0.00064412 Eh              -0.01753 eV
Free-energy (cav+disp)  :  This term is not implemented in the current solvation scheme

---------------
SCF CONVERGENCE
---------------

  Last Energy change         ...    4.4693e-09  Tolerance :   1.0000e-08
  Last MAX-Density change    ...    1.3323e-15  Tolerance :   1.0000e-07
  Last RMS-Density change    ...    1.4298e-17  Tolerance :   5.0000e-09
  Last Orbital Gradient      ...    1.8247e-06  Tolerance :   1.0000e-05
  Last Orbital Rotation      ...    5.8378e-06  Tolerance :   1.0000e-05

             **** THE GBW FILE WAS UPDATED (/home/rudenko/mop_saddle_orca_4_serv/for_orca/ch32chno2_pyridine_new/orca/orca_end/end.gbw) ****
             **** DENSITY /home/rudenko/mop_saddle_orca_4_serv/for_orca/ch32chno2_pyridine_new/orca/orca_end/end.scfp WAS UPDATED ****
             **** ENERGY FILE WAS UPDATED (/home/rudenko/mop_saddle_orca_4_serv/for_orca/ch32chno2_pyridine_new/orca/orca_end/end.en.tmp) ****
             **** THE GBW FILE WAS UPDATED (/home/rudenko/mop_saddle_orca_4_serv/for_orca/ch32chno2_pyridine_new/orca/orca_end/end.gbw) ****
             **** DENSITY /home/rudenko/mop_saddle_orca_4_serv/for_orca/ch32chno2_pyridine_new/orca/orca_end/end.scfp WAS UPDATED ****
----------------
ORBITAL ENERGIES
----------------

  NO   OCC          E(Eh)            E(eV) 
   0   2.0000     -19.156219      -521.2672 
   1   2.0000     -19.065035      -518.7860 
   2   2.0000     -19.064618      -518.7746 
   3   2.0000     -14.458280      -393.4298 
   4   2.0000     -14.409203      -392.0943 
   5   2.0000     -10.258735      -279.1544 
   6   2.0000     -10.258580      -279.1501 
   7   2.0000     -10.223861      -278.2054 
   8   2.0000     -10.214075      -277.9391 
   9   2.0000     -10.214008      -277.9373 
  10   2.0000     -10.169118      -276.7158 
  11   2.0000     -10.153033      -276.2781 
  12   2.0000     -10.152548      -276.2649 
  13   2.0000      -1.130927       -30.7741 
  14   2.0000      -1.038012       -28.2457 
  15   2.0000      -1.009205       -27.4619 
  16   2.0000      -0.945518       -25.7288 
  17   2.0000      -0.844303       -22.9747 
  18   2.0000      -0.811567       -22.0839 
  19   2.0000      -0.803119       -21.8540 
  20   2.0000      -0.689439       -18.7606 
  21   2.0000      -0.680180       -18.5086 
  22   2.0000      -0.676591       -18.4110 
  23   2.0000      -0.671749       -18.2792 
  24   2.0000      -0.597646       -16.2628 
  25   2.0000      -0.539885       -14.6910 
  26   2.0000      -0.524370       -14.2688 
  27   2.0000      -0.517595       -14.0845 
  28   2.0000      -0.507458       -13.8086 
  29   2.0000      -0.488538       -13.2938 
  30   2.0000      -0.472339       -12.8530 
  31   2.0000      -0.468981       -12.7616 
  32   2.0000      -0.463707       -12.6181 
  33   2.0000      -0.456084       -12.4107 
  34   2.0000      -0.451554       -12.2874 
  35   2.0000      -0.427948       -11.6451 
  36   2.0000      -0.401884       -10.9358 
  37   2.0000      -0.396568       -10.7912 
  38   2.0000      -0.394937       -10.7468 
  39   2.0000      -0.387079       -10.5330 
  40   2.0000      -0.378198       -10.2913 
  41   2.0000      -0.376611       -10.2481 
  42   2.0000      -0.341322        -9.2878 
  43   2.0000      -0.340551        -9.2669 
  44   2.0000      -0.333151        -9.0655 
  45   2.0000      -0.300884        -8.1875 
  46   2.0000      -0.264233        -7.1902 
  47   2.0000      -0.248227        -6.7546 
  48   2.0000      -0.217721        -5.9245 
  49   2.0000      -0.175848        -4.7851 
  50   0.0000      -0.083025        -2.2592 
  51   0.0000      -0.050922        -1.3857 
  52   0.0000       0.007648         0.2081 
  53   0.0000       0.032319         0.8794 
  54   0.0000       0.051688         1.4065 
  55   0.0000       0.063986         1.7412 
  56   0.0000       0.075072         2.0428 
  57   0.0000       0.083863         2.2820 
  58   0.0000       0.088926         2.4198 
  59   0.0000       0.091351         2.4858 
  60   0.0000       0.099803         2.7158 
  61   0.0000       0.103923         2.8279 
  62   0.0000       0.108946         2.9646 
  63   0.0000       0.125471         3.4142 
  64   0.0000       0.125763         3.4222 
  65   0.0000       0.133039         3.6202 
  66   0.0000       0.146740         3.9930 
  67   0.0000       0.150424         4.0933 
  68   0.0000       0.159800         4.3484 
  69   0.0000       0.164694         4.4815 
  70   0.0000       0.178222         4.8497 
  71   0.0000       0.185494         5.0476 
  72   0.0000       0.198646         5.4054 
  73   0.0000       0.203852         5.5471 
  74   0.0000       0.206235         5.6119 
  75   0.0000       0.209509         5.7010 
  76   0.0000       0.214496         5.8367 
  77   0.0000       0.216153         5.8818 
  78   0.0000       0.223348         6.0776 
  79   0.0000       0.226746         6.1701 
  80   0.0000       0.233139         6.3440 
  81   0.0000       0.242834         6.6078 
  82   0.0000       0.248851         6.7716 
  83   0.0000       0.254157         6.9160 
  84   0.0000       0.267278         7.2730 
  85   0.0000       0.277731         7.5575 
  86   0.0000       0.293793         7.9945 
  87   0.0000       0.299690         8.1550 
  88   0.0000       0.306821         8.3490 
  89   0.0000       0.312625         8.5070 
  90   0.0000       0.316072         8.6008 
  91   0.0000       0.320364         8.7176 
  92   0.0000       0.328552         8.9403 
  93   0.0000       0.345934         9.4133 
  94   0.0000       0.364402         9.9159 
  95   0.0000       0.366254         9.9663 
  96   0.0000       0.377959        10.2848 
  97   0.0000       0.380043        10.3415 
  98   0.0000       0.392952        10.6928 
  99   0.0000       0.397107        10.8058 
 100   0.0000       0.402682        10.9575 
 101   0.0000       0.404516        11.0075 
 102   0.0000       0.412608        11.2276 
 103   0.0000       0.422107        11.4861 
 104   0.0000       0.426336        11.6012 
 105   0.0000       0.433888        11.8067 
 106   0.0000       0.438113        11.9217 
 107   0.0000       0.447392        12.1742 
 108   0.0000       0.450963        12.2713 
 109   0.0000       0.453631        12.3439 
 110   0.0000       0.455215        12.3870 
 111   0.0000       0.460143        12.5211 
 112   0.0000       0.465551        12.6683 
 113   0.0000       0.469815        12.7843 
 114   0.0000       0.476496        12.9661 
 115   0.0000       0.484184        13.1753 
 116   0.0000       0.491787        13.3822 
 117   0.0000       0.495950        13.4955 
 118   0.0000       0.500923        13.6308 
 119   0.0000       0.509166        13.8551 
 120   0.0000       0.522329        14.2133 
 121   0.0000       0.529222        14.4009 
 122   0.0000       0.540646        14.7117 
 123   0.0000       0.553276        15.0554 
 124   0.0000       0.560898        15.2628 
 125   0.0000       0.573908        15.6168 
 126   0.0000       0.576485        15.6869 
 127   0.0000       0.595200        16.1962 
 128   0.0000       0.600614        16.3435 
 129   0.0000       0.617393        16.8001 
 130   0.0000       0.621656        16.9161 
 131   0.0000       0.627191        17.0667 
 132   0.0000       0.628747        17.1091 
 133   0.0000       0.636509        17.3203 
 134   0.0000       0.642672        17.4880 
 135   0.0000       0.659613        17.9490 
 136   0.0000       0.672611        18.3027 
 137   0.0000       0.681500        18.5446 
 138   0.0000       0.691831        18.8257 
 139   0.0000       0.716239        19.4898 
 140   0.0000       0.717747        19.5309 
 141   0.0000       0.718192        19.5430 
 142   0.0000       0.737284        20.0625 
 143   0.0000       0.743982        20.2448 
 144   0.0000       0.747695        20.3458 
 145   0.0000       0.754121        20.5207 
 146   0.0000       0.789817        21.4920 
 147   0.0000       0.794843        21.6288 
 148   0.0000       0.825778        22.4706 
 149   0.0000       0.834085        22.6966 
 150   0.0000       0.836680        22.7672 
 151   0.0000       0.861453        23.4413 
 152   0.0000       0.872981        23.7550 
 153   0.0000       0.883633        24.0449 
 154   0.0000       0.890991        24.2451 
 155   0.0000       0.919129        25.0108 
 156   0.0000       0.929368        25.2894 
 157   0.0000       0.964291        26.2397 
 158   0.0000       0.981052        26.6958 
 159   0.0000       0.987297        26.8657 
 160   0.0000       0.997904        27.1544 
 161   0.0000       1.006184        27.3797 
 162   0.0000       1.031007        28.0551 
 163   0.0000       1.037458        28.2307 
 164   0.0000       1.051186        28.6042 
 165   0.0000       1.060256        28.8510 
 166   0.0000       1.071717        29.1629 
 167   0.0000       1.072828        29.1931 
 168   0.0000       1.092939        29.7404 
 169   0.0000       1.105871        30.0923 
 170   0.0000       1.116783        30.3892 
 171   0.0000       1.158191        31.5160 
 172   0.0000       1.161986        31.6192 
 173   0.0000       1.179441        32.0942 
 174   0.0000       1.180372        32.1196 
 175   0.0000       1.189051        32.3557 
 176   0.0000       1.207141        32.8480 
 177   0.0000       1.232266        33.5317 
 178   0.0000       1.242361        33.8064 
 179   0.0000       1.248555        33.9749 
 180   0.0000       1.253748        34.1162 
 181   0.0000       1.257522        34.2189 
 182   0.0000       1.263221        34.3740 
 183   0.0000       1.278826        34.7986 
 184   0.0000       1.294324        35.2204 
 185   0.0000       1.339032        36.4369 
 186   0.0000       1.363553        37.1042 
 187   0.0000       1.369146        37.2564 
 188   0.0000       1.378798        37.5190 
 189   0.0000       1.382174        37.6109 
 190   0.0000       1.415775        38.5252 
 191   0.0000       1.425164        38.7807 
 192   0.0000       1.431746        38.9598 
 193   0.0000       1.439915        39.1821 
 194   0.0000       1.456132        39.6234 
 195   0.0000       1.468121        39.9496 
 196   0.0000       1.479251        40.2525 
 197   0.0000       1.489482        40.5309 
 198   0.0000       1.496119        40.7115 
 199   0.0000       1.531129        41.6641 
 200   0.0000       1.533107        41.7180 
 201   0.0000       1.540692        41.9244 
 202   0.0000       1.548828        42.1458 
 203   0.0000       1.556597        42.3571 
 204   0.0000       1.562648        42.5218 
 205   0.0000       1.580771        43.0150 
 206   0.0000       1.590513        43.2801 
 207   0.0000       1.602954        43.6186 
 208   0.0000       1.613089        43.8944 
 209   0.0000       1.620315        44.0910 
 210   0.0000       1.625972        44.2450 
 211   0.0000       1.629399        44.3382 
 212   0.0000       1.637014        44.5454 
 213   0.0000       1.642222        44.6871 
 214   0.0000       1.658531        45.1309 
 215   0.0000       1.659536        45.1583 
 216   0.0000       1.672080        45.4996 
 217   0.0000       1.680721        45.7347 
 218   0.0000       1.684403        45.8349 
 219   0.0000       1.691952        46.0404 
 220   0.0000       1.711022        46.5593 
 221   0.0000       1.728677        47.0397 
 222   0.0000       1.736063        47.2407 
 223   0.0000       1.744620        47.4735 
 224   0.0000       1.753825        47.7240 
 225   0.0000       1.778044        48.3830 
 226   0.0000       1.807206        49.1766 
 227   0.0000       1.820008        49.5249 
 228   0.0000       1.838405        50.0255 
 229   0.0000       1.854551        50.4649 
 230   0.0000       1.863816        50.7170 
 231   0.0000       1.878369        51.1130 
 232   0.0000       1.899167        51.6790 
 233   0.0000       1.914562        52.0979 
 234   0.0000       1.951024        53.0901 
 235   0.0000       1.957095        53.2553 
 236   0.0000       1.972840        53.6837 
 237   0.0000       2.003185        54.5094 
 238   0.0000       2.008055        54.6420 
 239   0.0000       2.013595        54.7927 
 240   0.0000       2.026066        55.1321 
 241   0.0000       2.030848        55.2622 
 242   0.0000       2.050257        55.7903 
 243   0.0000       2.066013        56.2191 
 244   0.0000       2.071488        56.3681 
 245   0.0000       2.090970        56.8982 
 246   0.0000       2.092983        56.9530 
 247   0.0000       2.108803        57.3834 
 248   0.0000       2.123522        57.7840 
 249   0.0000       2.137000        58.1507 
 250   0.0000       2.143981        58.3407 
 251   0.0000       2.160892        58.8009 
 252   0.0000       2.182937        59.4007 
 253   0.0000       2.196173        59.7609 
 254   0.0000       2.204765        59.9947 
 255   0.0000       2.208465        60.0954 
 256   0.0000       2.218309        60.3632 
 257   0.0000       2.252157        61.2843 
 258   0.0000       2.263694        61.5983 
 259   0.0000       2.286143        62.2091 
 260   0.0000       2.305725        62.7420 
 261   0.0000       2.314846        62.9902 
 262   0.0000       2.342774        63.7501 
 263   0.0000       2.345548        63.8256 
 264   0.0000       2.351260        63.9810 
 265   0.0000       2.355854        64.1060 
 266   0.0000       2.366202        64.3876 
 267   0.0000       2.380765        64.7839 
 268   0.0000       2.402873        65.3855 
 269   0.0000       2.409703        65.5713 
 270   0.0000       2.426089        66.0172 
 271   0.0000       2.437099        66.3168 
 272   0.0000       2.449994        66.6677 
 273   0.0000       2.450674        66.6862 
 274   0.0000       2.475770        67.3691 
 275   0.0000       2.505044        68.1657 
 276   0.0000       2.517028        68.4918 
 277   0.0000       2.538831        69.0851 
 278   0.0000       2.541654        69.1619 
 279   0.0000       2.546401        69.2911 
 280   0.0000       2.555208        69.5307 
 281   0.0000       2.562999        69.7427 
 282   0.0000       2.575327        70.0782 
 283   0.0000       2.577317        70.1324 
 284   0.0000       2.590349        70.4870 
 285   0.0000       2.597644        70.6855 
 286   0.0000       2.616807        71.2069 
 287   0.0000       2.625870        71.4536 
 288   0.0000       2.647759        72.0492 
 289   0.0000       2.652927        72.1898 
 290   0.0000       2.653843        72.2147 
 291   0.0000       2.655667        72.2644 
 292   0.0000       2.670213        72.6602 
 293   0.0000       2.678480        72.8851 
 294   0.0000       2.695521        73.3488 
 295   0.0000       2.700086        73.4731 
 296   0.0000       2.723729        74.1164 
 297   0.0000       2.747819        74.7720 
 298   0.0000       2.758227        75.0552 
 299   0.0000       2.759523        75.0904 
 300   0.0000       2.772026        75.4307 
 301   0.0000       2.773826        75.4796 
 302   0.0000       2.776756        75.5594 
 303   0.0000       2.793179        76.0063 
 304   0.0000       2.808542        76.4243 
 305   0.0000       2.815110        76.6030 
 306   0.0000       2.825057        76.8737 
 307   0.0000       2.855854        77.7117 
 308   0.0000       2.868400        78.0531 
 309   0.0000       2.889666        78.6318 
 310   0.0000       2.906317        79.0849 
 311   0.0000       2.911493        79.2258 
 312   0.0000       2.918625        79.4198 
 313   0.0000       2.929828        79.7247 
 314   0.0000       2.947047        80.1932 
 315   0.0000       2.964825        80.6770 
 316   0.0000       2.983650        81.1892 
 317   0.0000       2.992702        81.4356 
 318   0.0000       3.027089        82.3713 
 319   0.0000       3.036048        82.6151 
 320   0.0000       3.054403        83.1145 
 321   0.0000       3.072475        83.6063 
 322   0.0000       3.076583        83.7181 
 323   0.0000       3.080926        83.8363 
 324   0.0000       3.095748        84.2396 
 325   0.0000       3.105116        84.4945 
 326   0.0000       3.111728        84.6744 
 327   0.0000       3.120819        84.9218 
 328   0.0000       3.130205        85.1772 
 329   0.0000       3.141513        85.4849 
 330   0.0000       3.145955        85.6058 
 331   0.0000       3.152249        85.7771 
 332   0.0000       3.174771        86.3899 
 333   0.0000       3.177023        86.4512 
 334   0.0000       3.183696        86.6328 
 335   0.0000       3.188533        86.7644 
 336   0.0000       3.194911        86.9379 
 337   0.0000       3.200671        87.0947 
 338   0.0000       3.213345        87.4396 
 339   0.0000       3.221751        87.6683 
 340   0.0000       3.231358        87.9297 
 341   0.0000       3.235798        88.0505 
 342   0.0000       3.247410        88.3665 
 343   0.0000       3.280431        89.2651 
 344   0.0000       3.294109        89.6373 
 345   0.0000       3.306790        89.9823 
 346   0.0000       3.323989        90.4503 
 347   0.0000       3.325459        90.4904 
 348   0.0000       3.339181        90.8637 
 349   0.0000       3.353359        91.2495 
 350   0.0000       3.359488        91.4163 
 351   0.0000       3.386853        92.1610 
 352   0.0000       3.414499        92.9132 
 353   0.0000       3.419647        93.0533 
 354   0.0000       3.433219        93.4226 
 355   0.0000       3.440199        93.6126 
 356   0.0000       3.445633        93.7604 
 357   0.0000       3.449517        93.8661 
 358   0.0000       3.489354        94.9501 
 359   0.0000       3.501190        95.2722 
 360   0.0000       3.504173        95.3534 
 361   0.0000       3.549426        96.5848 
 362   0.0000       3.587634        97.6245 
 363   0.0000       3.658669        99.5574 
 364   0.0000       3.669813        99.8607 
 365   0.0000       3.679063       100.1124 
 366   0.0000       3.693551       100.5066 
 367   0.0000       3.718269       101.1792 
 368   0.0000       3.724973       101.3617 
 369   0.0000       3.725678       101.3809 
 370   0.0000       3.741544       101.8126 
 371   0.0000       3.793115       103.2159 
 372   0.0000       3.797163       103.3261 
 373   0.0000       3.817563       103.8812 
 374   0.0000       3.850644       104.7813 
 375   0.0000       3.864464       105.1574 
 376   0.0000       3.900750       106.1448 
 377   0.0000       3.918494       106.6276 
 378   0.0000       3.931091       106.9704 
 379   0.0000       3.954403       107.6048 
 380   0.0000       3.957856       107.6987 
 381   0.0000       3.972114       108.0867 
 382   0.0000       3.972600       108.0999 
 383   0.0000       3.986321       108.4733 
 384   0.0000       4.011091       109.1473 
 385   0.0000       4.046258       110.1043 
 386   0.0000       4.055031       110.3430 
 387   0.0000       4.080909       111.0472 
 388   0.0000       4.139767       112.6488 
 389   0.0000       4.152323       112.9905 
 390   0.0000       4.175592       113.6236 
 391   0.0000       4.182511       113.8119 
 392   0.0000       4.198292       114.2413 
 393   0.0000       4.242718       115.4502 
 394   0.0000       4.260301       115.9287 
 395   0.0000       4.321745       117.6006 
 396   0.0000       4.325018       117.6897 
 397   0.0000       4.349355       118.3520 
 398   0.0000       4.352305       118.4322 
 399   0.0000       4.353036       118.4521 
 400   0.0000       4.358648       118.6048 
 401   0.0000       4.416343       120.1748 
 402   0.0000       4.458292       121.3163 
 403   0.0000       4.493360       122.2705 
 404   0.0000       4.531003       123.2949 
 405   0.0000       4.535840       123.4265 
 406   0.0000       4.566652       124.2649 
 407   0.0000       4.623840       125.8211 
 408   0.0000       4.651715       126.5796 
 409   0.0000       4.701370       127.9308 
 410   0.0000       4.721044       128.4661 
 411   0.0000       4.744265       129.0980 
 412   0.0000       4.771033       129.8264 
 413   0.0000       4.776642       129.9790 
 414   0.0000       4.836951       131.6201 
 415   0.0000       4.854905       132.1087 
 416   0.0000       4.886128       132.9583 
 417   0.0000       4.898038       133.2824 
 418   0.0000       4.904127       133.4481 
 419   0.0000       4.932639       134.2239 
 420   0.0000       4.942199       134.4841 
[...]
    63. A(N   2,H   7,O  26)          137.57 -0.000066    0.09    137.66   
    64. A(N   2,H   7,H  21)           67.05  0.000014   -0.01     67.04   
    65. A(H   1,H   7,H  21)          104.37 -0.000065    0.14    104.51   
    66. A(H   1,H   7,O  26)          125.48  0.000037    0.21    125.70   
    67. A(C   9,H   7,H  25)          135.72  0.000012    0.05    135.77   
    68. A(H  21,H   7,H  25)          122.27  0.000039   -0.05    122.22   
    69. A(N   2,H   7,H  25)           90.57 -0.000030    0.12     90.69   
    70. A(H   1,H   7,H  25)          115.72  0.000046   -0.13    115.58   
    71. A(N   2,H   7,C   9)           56.04  0.000048    0.03     56.06   
    72. A(H  25,H   7,O  26)           47.04 -0.000035   -0.02     47.01   
    73. A(C   9,H   7,H  21)           23.55 -0.000048    0.00     23.56   
    74. A(H  21,H   7,O  26)          128.97  0.000024   -0.34    128.63   
    75. A(C   9,H   7,O  26)          151.90 -0.000020   -0.38    151.52   
    76. A(H  10,C   9,H  21)          106.42 -0.000001   -0.00    106.41   
    77. A(C   6,C   9,H  21)          112.02  0.000022   -0.02    111.99   
    78. A(H   5,C   9,H  21)          108.29 -0.000029    0.02    108.32   
    79. A(H   7,C   9,H  21)           68.71  0.000010    0.12     68.83   
    80. A(H   7,C   9,H  10)          150.70  0.000051   -0.03    150.67   
    81. A(C   6,C   9,H   7)           50.49  0.000011   -0.10     50.39   
    82. A(H   5,C   9,H   7)          100.60 -0.000097    0.05    100.65   
    83. A(C   6,C   9,H  10)          112.08  0.000033   -0.02    112.06   
    84. A(H   5,C   9,H  10)          108.13  0.000047   -0.06    108.07   
    85. A(H   5,C   9,C   6)          109.74 -0.000070    0.08    109.81   
    86. A(N  16,C  11,H  23)          116.48 -0.000142    0.07    116.56   
    87. A(C  12,C  11,H  23)          123.68  0.000040   -0.05    123.63   
    88. A(C  12,C  11,N  16)          119.84  0.000102   -0.03    119.81   
    89. A(C  11,C  12,C  13)          118.81  0.000003    0.02    118.83   
    90. A(C  13,C  12,H  17)          121.58  0.000122    0.00    121.58   
    91. A(C  11,C  12,H  17)          119.61 -0.000125   -0.02    119.59   
    92. A(C  12,C  13,C  14)          119.85 -0.000047   -0.00    119.84   
    93. A(C  14,C  13,H  18)          120.15  0.000010    0.02    120.17   
    94. A(C  12,C  13,H  18)          120.00  0.000037   -0.01    119.99   
    95. A(C  13,C  14,C  15)          119.30  0.000056   -0.03    119.27   
    96. A(C  15,C  14,H  19)          119.44 -0.000022    0.02    119.47   
    97. A(C  13,C  14,H  19)          121.26 -0.000034    0.00    121.26   
    98. A(C  14,C  15,H  22)          124.72 -0.000107    0.02    124.74   
    99. A(C  14,C  15,N  16)          119.22  0.000044    0.02    119.25   
   100. A(N  16,C  15,H  22)          116.04  0.000063   -0.04    116.00   
   101. A(C  11,N  16,C  15)          122.98 -0.000158    0.01    123.00   
   102. A(C  15,N  16,H  25)          118.31 -0.000059    0.02    118.32   
   103. A(C  11,N  16,H  25)          118.71  0.000217   -0.03    118.68   
   104. A(H   7,H  21,C   9)           87.74  0.000038   -0.12     87.62   
   105. A(O   4,H  22,C  15)          164.91 -0.000046    0.09    165.00   
   106. A(H  25,H  24,O  26)           44.49 -0.000008    0.08     44.56   
   107. A(H  24,H  25,O  26)           23.14  0.000006    0.05     23.18   
   108. A(H   7,H  25,O  26)           24.55  0.000012    0.01     24.56   
   109. A(H   7,H  25,H  24)           40.07  0.000020    0.02     40.10   
   110. A(N  16,H  25,H  24)          157.61 -0.000021    0.14    157.75   
   111. A(H   7,H  25,N  16)          155.61 -0.000003   -0.09    155.52   
   112. A(H  24,O  26,H  25)          112.38  0.000002   -0.12    112.26   
   113. A(H   7,O  26,H  25)          108.41  0.000023    0.02    108.43   
   114. A(H   7,O  26,H  24)          105.21  0.000008   -0.01    105.20   
   115. D(H   7,H   1,C   0,H   8)   -145.64 -0.000130   -0.31   -145.95   
   116. D(H   7,H   1,C   0,H  20)     98.18 -0.000159   -0.33     97.85   
   117. D(H   7,H   1,C   0,C   6)    -22.97  0.000033   -0.53    -23.50   
   118. D(H  22,O   4,N   2,O   3)     42.59 -0.000083   -0.04     42.55   
   119. D(H  22,O   4,N   2,C   6)   -136.59  0.000022   -0.05   -136.64   
   120. D(H  22,O   4,N   2,H   7)    -71.22 -0.000089   -0.06    -71.27   
   121. D(C   9,C   6,N   2,O   3)    176.37  0.000032   -0.05    176.31   
   122. D(C   0,C   6,N   2,O   3)      5.86  0.000047   -0.02      5.83   
   123. D(C   0,C   6,N   2,O   4)   -174.99 -0.000061   -0.01   -175.00   
   124. D(H   7,C   6,N   2,O   4)     90.05 -0.000122    0.11     90.16   
   125. D(H   7,C   6,C   0,H   1)     27.90 -0.000045    0.68     28.58   
   126. D(N   2,C   6,C   0,H   1)    -59.80 -0.000098    0.74    -59.07   
   127. D(C   9,C   6,C   0,H   1)    130.08 -0.000085    0.77    130.85   
   128. D(N   2,C   6,C   0,H  20)   -179.99  0.000049    0.56   -179.43   
   129. D(C   0,C   6,N   2,H   7)     94.96  0.000061   -0.12     94.84   
   130. D(H   7,C   6,N   2,O   3)    -89.10 -0.000014    0.09    -89.00   
   131. D(H   7,C   6,C   0,H  20)    -92.30  0.000102    0.51    -91.79   
   132. D(C   9,C   6,C   0,H  20)      9.89  0.000062    0.59     10.48   
   133. D(C   9,C   6,N   2,H   7)    -94.53  0.000046   -0.15    -94.68   
   134. D(C   9,C   6,N   2,O   4)     -4.48 -0.000076   -0.04     -4.52   
   135. D(H   7,C   6,C   0,H   8)    147.41 -0.000006    0.52    147.92   
   136. D(N   2,C   6,C   0,H   8)     59.71 -0.000059    0.57     60.28   
   137. D(C   9,C   6,C   0,H   8)   -110.41 -0.000046    0.60   -109.81   
   138. D(H  25,H   7,C   6,C   0)   -112.79 -0.000038   -0.05   -112.84   
   139. D(H  21,H   7,C   6,C   0)    139.22 -0.000087    0.10    139.32   
   140. D(H  21,H   7,H   1,C   0)     -4.50 -0.000049    0.76     -3.74   
   141. D(C   9,H   7,C   6,N   2)   -118.15  0.000027   -0.03   -118.18   
   142. D(H  21,H   7,C   6,N   2)   -102.77 -0.000007    0.02   -102.75   
   143. D(O  26,H   7,N   2,O   3)    -59.13 -0.000006   -0.45    -59.58   
   144. D(H  25,H   7,C   6,C   9)    123.38  0.000015   -0.10    123.27   
   145. D(N   2,H   7,C   6,C   9)    118.15 -0.000027    0.03    118.18   
   146. D(C   6,H   7,H   1,C   0)     18.23  0.000017    0.44     18.67   
   147. D(H   1,H   7,C   6,C   9)   -137.13  0.000060   -0.36   -137.50   
   148. D(H   1,H   7,C   6,C   0)    -13.30  0.000007   -0.31    -13.61   
   149. D(O  26,H   7,C   6,C   9)    128.76  0.000018   -0.94    127.83   
   150. D(O  26,H   7,H   1,C   0)   -173.02 -0.000032    0.63   -172.39   
   151. D(O  26,H   7,C   6,N   2)     10.61  0.000044   -0.96      9.64   
   152. D(H  25,H   7,N   2,O   3)    -57.28  0.000012   -0.10    -57.38   
   153. D(H  25,H   7,N   2,O   4)     66.63  0.000064   -0.11     66.52   
   154. D(H  21,H   7,N   2,O   4)    -58.52  0.000009    0.01    -58.51   
   155. D(C   9,H   7,N   2,O   4)    -82.31  0.000059   -0.01    -82.32   
   156. D(H  21,H   7,N   2,O   3)    177.57 -0.000043    0.02    177.59   
   157. D(C   9,H   7,N   2,C   6)     35.40  0.000030   -0.04     35.36   
   158. D(C   6,H   7,N   2,O   3)    118.38 -0.000023    0.04    118.42   
   159. D(H   1,H   7,N   2,O   4)   -175.79  0.000122   -0.26   -176.06   
   160. D(H   1,H   7,N   2,C   6)    -58.09  0.000093   -0.29    -58.38   
   161. D(C   9,H   7,N   2,O   3)    153.78  0.000007   -0.00    153.78   
   162. D(H  25,H   7,N   2,C   6)   -175.67  0.000035   -0.13   -175.80   
   163. D(N   2,H   7,H   1,C   0)     53.17  0.000026    0.59     53.75   
   164. D(H   1,H   7,C   6,N   2)    104.71  0.000087   -0.39    104.32   
   165. D(O  26,H   7,C   6,C   0)   -107.40 -0.000036   -0.88   -108.28   
   166. D(N   2,H   7,C   6,C   0)   -118.01 -0.000080    0.08   -117.92   
   167. D(C   9,H   7,H   1,C   0)     -3.82 -0.000034    0.62     -3.21   
   168. D(C   9,H   7,C   6,C   0)    123.84 -0.000053    0.06    123.89   
   169. D(C   6,H   7,N   2,O   4)   -117.71  0.000029    0.03   -117.68   
   170. D(H   1,H   7,N   2,O   3)     60.30  0.000070   -0.25     60.04   
   171. D(H  21,H   7,C   6,C   9)     15.38 -0.000034    0.05     15.43   
   172. D(H  25,H   7,H   1,C   0)    132.83 -0.000017    0.71    133.53   
   173. D(O  26,H   7,N   2,C   6)   -177.51  0.000017   -0.49   -178.00   
   174. D(H  25,H   7,C   6,N   2)      5.22  0.000042   -0.13      5.09   
   175. D(H  21,H   7,N   2,C   6)     59.19 -0.000020   -0.02     59.17   
   176. D(O  26,H   7,N   2,O   4)     64.79  0.000046   -0.46     64.32   
   177. D(H   5,C   9,C   6,C   0)    -14.82 -0.000081   -0.01    -14.82   
   178. D(H  21,C   9,H   7,C   6)    147.43  0.000010   -0.09    147.34   
   179. D(H  21,C   9,H   7,N   2)    111.63 -0.000011   -0.11    111.53   
   180. D(H  21,C   9,H   7,H   1)   -178.37  0.000040   -0.36   -178.73   
   181. D(H  10,C   9,H   7,H  25)    -21.74 -0.000003   -0.56    -22.29   
   182. D(H  10,C   9,H   7,H  21)    -85.72  0.000011   -0.25    -85.97   
   183. D(H  10,C   9,H   7,C   6)     61.71  0.000021   -0.34     61.37   
   184. D(H  10,C   9,H   7,H   1)     95.91  0.000051   -0.60     95.31   
   185. D(C   6,C   9,H   7,H  25)    -83.45 -0.000025   -0.22    -83.67   
   186. D(C   6,C   9,H   7,N   2)    -35.80 -0.000021   -0.02    -35.82   
   187. D(C   6,C   9,H   7,H   1)     34.20  0.000030   -0.26     33.93   
   188. D(C   6,C   9,H   7,O  26)   -164.70  0.000047   -0.07   -164.78   
   189. D(H   5,C   9,H   7,H  25)    169.64 -0.000011   -0.30    169.34   
   190. D(H   5,C   9,H   7,H  21)    105.65  0.000004    0.01    105.66   
   191. D(H  10,C   9,H   7,O  26)   -102.99  0.000069   -0.41   -103.40   
   192. D(H   5,C   9,H   7,C   6)   -106.92  0.000014   -0.08   -107.00   
   193. D(H   5,C   9,H   7,N   2)   -142.71 -0.000007   -0.10   -142.81   
   194. D(C   6,C   9,H   7,H  21)   -147.43 -0.000010    0.09   -147.34   
   195. D(H  21,C   9,C   6,H   7)    -32.75  0.000002   -0.12    -32.87   
   196. D(H   7,C   9,C   6,C   0)   -102.38 -0.000013    0.05   -102.34   
   197. D(H   7,C   9,C   6,N   2)     87.51 -0.000010    0.09     87.60   
   198. D(H  21,C   9,C   6,N   2)     54.76 -0.000009   -0.03     54.73   
   199. D(H   5,C   9,H   7,O  26)     88.38  0.000061   -0.15     88.23   
   200. D(H  10,C   9,H   7,N   2)     25.91  0.000001   -0.36     25.56   
   201. D(H  21,C   9,C   6,C   0)   -135.13 -0.000011   -0.07   -135.21   
   202. D(H   5,C   9,H   7,H   1)    -72.72  0.000044   -0.34    -73.06   
   203. D(H  10,C   9,C   6,H   7)   -152.29 -0.000035   -0.08   -152.37   
   204. D(H  21,C   9,H   7,O  26)    -17.27  0.000057   -0.16    -17.43   
   205. D(H  10,C   9,C   6,N   2)    -64.78 -0.000045    0.01    -64.77   
   206. D(H  10,C   9,C   6,C   0)    105.33 -0.000048   -0.04    105.29   
   207. D(H   5,C   9,C   6,H   7)     87.56 -0.000068   -0.05     87.51   
   208. D(H  21,C   9,H   7,H  25)     63.98 -0.000015   -0.31     63.68   
   209. D(H   5,C   9,C   6,N   2)    175.08 -0.000079    0.04    175.11   
   210. D(H  17,C  12,C  11,H  23)      0.06 -0.000010    0.12      0.18   
   211. D(H  17,C  12,C  11,N  16)    179.96  0.000019   -0.02    179.94   
   212. D(C  13,C  12,C  11,H  23)    179.97 -0.000002    0.16    180.13   
   213. D(C  13,C  12,C  11,N  16)     -0.13  0.000027    0.01     -0.11   
   214. D(H  18,C  13,C  12,H  17)     -0.04 -0.000000    0.01     -0.03   
   215. D(H  18,C  13,C  12,C  11)   -179.96 -0.000008   -0.02   -179.98   
   216. D(C  14,C  13,C  12,H  17)   -179.97 -0.000003    0.03   -179.94   
   217. D(C  14,C  13,C  12,C  11)      0.12 -0.000011   -0.01      0.11   
   218. D(H  19,C  14,C  13,H  18)      0.20  0.000086   -0.06      0.15   
   219. D(H  19,C  14,C  13,C  12)   -179.87  0.000089   -0.07   -179.94   
   220. D(C  15,C  14,C  13,H  18)   -179.95 -0.000015    0.05   -179.90   
   221. D(C  15,C  14,C  13,C  12)     -0.03 -0.000012    0.04      0.01   
   222. D(H  22,C  15,C  14,H  19)     -1.56 -0.000052    0.01     -1.55   
   223. D(H  22,C  15,C  14,C  13)    178.59  0.000047   -0.10    178.49   
   224. D(N  16,C  15,C  14,H  19)    179.79 -0.000080    0.04    179.83   
   225. D(N  16,C  15,C  14,C  13)     -0.05  0.000020   -0.07     -0.12   
   226. D(H  25,N  16,C  15,C  14)   -179.86  0.000030    0.04   -179.81   
   227. D(C  11,N  16,C  15,H  22)   -178.72 -0.000026    0.11   -178.61   
   228. D(C  11,N  16,C  15,C  14)      0.05 -0.000003    0.08      0.12   
   229. D(H  25,N  16,C  11,H  23)     -0.14 -0.000026   -0.15     -0.29   
   230. D(H  25,N  16,C  11,C  12)    179.95 -0.000054   -0.01    179.93   
   231. D(C  15,N  16,C  11,H  23)    179.96  0.000007   -0.18    179.77   
   232. D(H  25,N  16,C  15,H  22)      1.38  0.000007    0.07      1.45   
   233. D(C  15,N  16,C  11,C  12)      0.05 -0.000021   -0.05     -0.00   
   234. D(H   7,H  21,C   9,C   6)     26.61  0.000001    0.01     26.63   
   235. D(H   7,H  21,C   9,H   5)    -94.54  0.000095   -0.08    -94.62   
   236. D(C   9,H  21,H   7,H  25)   -132.09  0.000006   -0.28   -132.37   
   237. D(C   9,H  21,H   7,C   6)    -21.20 -0.000019   -0.05    -21.26   
   238. D(C   9,H  21,H   7,N   2)    -56.85 -0.000047   -0.10    -56.95   
   239. D(C   9,H  21,H   7,H   1)      1.66  0.000040   -0.36      1.30   
   240. D(H   7,H  21,C   9,H  10)    149.42  0.000055   -0.02    149.40   
   241. D(C   9,H  21,H   7,O  26)    169.64  0.000023   -0.16    169.47   
   242. D(O   4,H  22,C  15,N  16)     21.00  0.000036   -1.04     19.96   
   243. D(O   4,H  22,C  15,C  14)   -157.69  0.000010   -1.01   -158.70   
   244. D(C  15,H  22,O   4,N   2)     31.91  0.000053    1.21     33.12   
   245. D(H   7,H  25,H  24,O  26)    -35.51  0.000007   -0.01    -35.52   
   246. D(N  16,H  25,H  24,O  26)    178.52 -0.000003   -0.15    178.37   
   247. D(H  24,H  25,N  16,C  11)    -88.40 -0.000009   -0.04    -88.44   
   248. D(H   7,H  25,N  16,C  15)    -27.75 -0.000040   -0.55    -28.30   
   249. D(H   7,H  25,N  16,C  11)    152.35 -0.000008   -0.59    151.76   
   250. D(O  26,H  25,H   7,H  21)   -115.36  0.000004    0.40   -114.96   
   251. D(O  26,H  25,H   7,C   9)   -140.50  0.000048    0.46   -140.03   
   252. D(O  26,H  25,H   7,C   6)    178.83 -0.000006    0.38    179.20   
   253. D(O  26,H  25,H   7,N   2)   -178.30  0.000020    0.31   -177.99   
   254. D(O  26,H  25,H   7,H   1)    115.59  0.000011    0.40    115.98   
   255. D(H  24,H  25,H   7,H  21)    -82.05 -0.000011    0.47    -81.57   
   256. D(H  24,H  25,H   7,C   9)   -107.18  0.000033    0.53   -106.65   
   257. D(H  24,H  25,H   7,C   6)   -147.86 -0.000020    0.45   -147.41   
   258. D(H  24,H  25,H   7,N   2)   -144.99  0.000005    0.39   -144.60   
   259. D(H  24,H  25,H   7,H   1)    148.90 -0.000004    0.47    149.37   
   260. D(H  24,H  25,H   7,O  26)     33.31 -0.000015    0.07     33.39   
   261. D(N  16,H  25,H   7,H  21)     66.88 -0.000027    0.92     67.79   
   262. D(N  16,H  25,H   7,C   9)     41.74  0.000017    0.98     42.72   
   263. D(N  16,H  25,H   7,C   6)      1.07 -0.000037    0.89      1.96   
   264. D(H  24,H  25,N  16,C  15)     91.51 -0.000041   -0.01     91.50   
   265. D(N  16,H  25,H   7,N   2)      3.94 -0.000011    0.83      4.76   
   266. D(N  16,H  25,H   7,H   1)    -62.17 -0.000020    0.91    -61.26   
   267. D(N  16,H  25,H   7,O  26)   -177.76 -0.000031    0.51   -177.25   
   268. D(H   7,O  26,H  25,H  24)   -115.85 -0.000025    0.07   -115.78   
   269. D(H   7,O  26,H  24,H  25)    117.77  0.000034   -0.04    117.72   
   270. D(H  24,O  26,N  16,C  15)     90.49 -0.000049   -0.06     90.43   
   271. D(H   7,O  26,N  16,C  15)    -25.57 -0.000073   -0.04    -25.60   
   272. D(H   7,O  26,N  16,C  11)    154.01 -0.000033   -0.22    153.80   
   273. D(H  25,O  26,H   7,H  21)    100.66  0.000017    0.18    100.85   
   274. D(H  25,O  26,H   7,C   9)    109.44 -0.000026    0.22    109.66   
   275. D(H  25,O  26,H   7,C   6)     -6.12 -0.000006    1.06     -5.06   
   276. D(H  25,O  26,H   7,N   2)      2.52  0.000026    0.48      3.00   
   277. D(H  25,O  26,H   7,H   1)    -93.68 -0.000014    0.40    -93.28   
   278. D(H  24,O  26,H   7,H  25)   -120.42 -0.000018    0.14   -120.28   
   279. D(H  24,O  26,H   7,H  21)    -19.76 -0.000001    0.32    -19.44   
   280. D(H  24,O  26,N  16,C  11)    -89.93 -0.000009   -0.24    -90.17   
   281. D(H  24,O  26,H   7,C   9)    -10.98 -0.000044    0.35    -10.62   
   282. D(H  24,O  26,H   7,C   6)   -126.54 -0.000024    1.20   -125.34   
   283. D(H  24,O  26,H   7,N   2)   -117.90  0.000008    0.62   -117.28   
   284. D(H  24,O  26,H  25,H   7)    115.85  0.000025   -0.07    115.78   
   285. D(H  24,O  26,H   7,H   1)    145.90 -0.000032    0.54    146.44   
    ----------------------------------------------------------------------------




    ----------------------------------------------------------------------------
                                  WARNING !!!
       The optimization did not converge but reached the maximum number of
       optimization cycles.
       Please check your results very carefully.
    ----------------------------------------------------------------------------



                            ***************************************
                            *     ORCA property calculations      *
                            ***************************************

                                    ---------------------
                                    Active property flags
                                    ---------------------
   (+) Dipole Moment


------------------------------------------------------------------------------
                       ORCA ELECTRIC PROPERTIES CALCULATION
------------------------------------------------------------------------------

Dipole Moment Calculation                       ... on
Quadrupole Moment Calculation                   ... off
Polarizability Calculation                      ... off
GBWName                                         ... /home/rudenko/mop_saddle_orca_4_serv/for_orca/ch32chno2_pyridine_new/orca/orca_end/end.gbw
Electron density                                ... /home/rudenko/mop_saddle_orca_4_serv/for_orca/ch32chno2_pyridine_new/orca/orca_end/end.scfp
The origin for moment calculation is the CENTER OF MASS  = ( 5.523077, -5.473703 -4.064323)

-------------
DIPOLE MOMENT
-------------
                                X             Y             Z
Electronic contribution:      5.17781      -6.79626      -8.80900
Nuclear contribution   :     -0.20400       6.91322       6.75569
                        -----------------------------------------
Total Dipole Moment    :      4.97381       0.11696      -2.05331
                        -----------------------------------------
Magnitude (a.u.)       :      5.38224
Magnitude (Debye)      :     13.68058



--------------------
Rotational spectrum 
--------------------
 
Rotational constants in cm-1:     0.049911     0.012216     0.011222 
Rotational constants in MHz :  1496.307370   366.221385   336.439240 

 Dipole components along the rotational axes: 
x,y,z [a.u.] :    -4.437615    -2.737386     1.335229 
x,y,z [Debye]:   -11.279521    -6.957882     3.393883 

 

Timings for individual modules:

Sum of individual times         ...     3723.477 sec (=  62.058 min)
GTO integral calculation        ...      387.590 sec (=   6.460 min)  10.4 %
SCF iterations                  ...     2510.554 sec (=  41.843 min)  67.4 %
SCF Gradient evaluation         ...      816.516 sec (=  13.609 min)  21.9 %
Geometry relaxation             ...        8.817 sec (=   0.147 min)   0.2 %
                             ****ORCA TERMINATED NORMALLY****
TOTAL RUN TIME: 0 days 1 hours 7 minutes 17 seconds 98 msec
