 *******************************************************************************
 **                                                                           **
 **                              MOPAC v22.0.6                                **
 **                                                                           **
 *******************************************************************************
 **          Digital Object Identifier (DOI): 10.5281/zenodo.6511958          **
 **    Visit the DOI location for information on how to cite this program.    **
 *******************************************************************************

                              PM7 CALCULATION RESULTS

 *******************************************************************************
 *  CALCULATION DONE:                                Tue Mar 26 11:52:51 2024  *
 *  PM7        - The PM7 Hamiltonian to be used
 *  SINGLET    - SPIN STATE DEFINED AS A SINGLET
 *
 *
 *
 *                 CHARGE ON SYSTEM = 0
 *
 *
 *
 *  EPS=78.4   - USE ANDREAS KLAMT'S COSMO IMPLICIT SOLVATION MODEL
 *  SADDLE     - TRANSITION STATE TO BE OPTIMIZED
 *  T=         - A TIME OF 14.0 DAYS REQUESTED
 *  DUMP=N     - RESTART FILE WRITTEN EVERY 30.0 MINUTES REQUESTED
 *  RELSCF     - DEFAULT SCF CRITERION MULTIPLIED BY 1.0000
 *              (DEFAULT SCF CRITERION = 0.00010)
 *  ITRY=      - DO A MAXIMUM OF 15000 ITERATIONS FOR SCF
 *  AUX        - OUTPUT AUXILIARY INFORMATION
 *  BONDS      - FINAL BOND-ORDER MATRIX TO BE PRINTED
 *******************************************************************************
SADDLE PM7 BONDS AUX DUMP=30M ITRY=15000 T=14D CHARGE=0 SINGLET eps=78.4 RELSCF=1


   ATOM   CHEMICAL          X               Y               Z
  NUMBER   SYMBOL      (ANGSTROMS)     (ANGSTROMS)     (ANGSTROMS)

     1       C          0.58278000  *  -0.24516000  *  -0.02623000  *
     2       H          0.62694000  *  -0.36391000  *  -1.11861000  *
     3       N          0.34789000  *  -2.65843000  *   0.26864000  *
     4       O          0.52101000  *  -3.07231000  *  -0.86960000  *
     5       O         -0.44516000  *  -3.18836000  *   1.02943000  *
     6       H          1.69366000  *  -0.48363000  *   2.56643000  *
     7       C          1.13503000  *  -1.45939000  *   0.71361000  *
     8       H          2.20712000  *  -1.64611000  *   0.40439000  *
     9       H         -0.45900000  *  -0.02237000  *   0.24295000  *
    10       C          1.04296000  *  -1.30405000  *   2.22409000  *
    11       H          0.02383000  *  -1.07083000  *   2.56317000  *
    12       C          6.69846000  *  -1.25761000  *  -0.83461000  *
    13       C          7.93194000  *  -1.46833000  *  -1.45975000  *
    14       C          8.51864000  *  -2.72945000  *  -1.37087000  *
    15       C          7.85923000  *  -3.73877000  *  -0.67165000  *
    16       C          6.62838000  *  -3.44773000  *  -0.07284000  *
    17       N          6.06017000  *  -2.22758000  *  -0.14910000  *
    18       H          8.41917000  *  -0.65996000  *  -2.00297000  *
    19       H          9.48404000  *  -2.92462000  *  -1.84452000  *
    20       H          8.28947000  *  -4.73621000  *  -0.58920000  *
    21       H          1.17111000  *   0.65340000  *   0.21768000  *
    22       H          1.36213000  *  -2.21070000  *   2.75858000  *
    23       H          6.06879000  *  -4.20788000  *   0.48949000  *
    24       H          6.19296000  *  -0.28332000  *  -0.87574000  *
    25       H          3.71844000  *  -1.84858000  *   2.25942000  *
    26       H          4.69651000  *  -1.48533000  *   1.14327000  *
    27       O          4.12811000  *  -1.09406000  *   1.82657000  *



          CARTESIAN COORDINATES 

    NO.       ATOM           X           Y           Z

     1         C          0.5828     -0.2452     -0.0262
     2         H          0.6269     -0.3639     -1.1186
     3         N          0.3479     -2.6584      0.2686
     4         O          0.5210     -3.0723     -0.8696
     5         O         -0.4452     -3.1884      1.0294
     6         H          1.6937     -0.4836      2.5664
     7         C          1.1350     -1.4594      0.7136
     8         H          2.2071     -1.6461      0.4044
     9         H         -0.4590     -0.0224      0.2430
    10         C          1.0430     -1.3041      2.2241
    11         H          0.0238     -1.0708      2.5632
    12         C          6.6985     -1.2576     -0.8346
    13         C          7.9319     -1.4683     -1.4598
    14         C          8.5186     -2.7294     -1.3709
    15         C          7.8592     -3.7388     -0.6717
    16         C          6.6284     -3.4477     -0.0728
    17         N          6.0602     -2.2276     -0.1491
    18         H          8.4192     -0.6600     -2.0030
    19         H          9.4840     -2.9246     -1.8445
    20         H          8.2895     -4.7362     -0.5892
    21         H          1.1711      0.6534      0.2177
    22         H          1.3621     -2.2107      2.7586
    23         H          6.0688     -4.2079      0.4895
    24         H          6.1930     -0.2833     -0.8757
    25         H          3.7184     -1.8486      2.2594
    26         H          4.6965     -1.4853      1.1433
    27         O          4.1281     -1.0941      1.8266

 General Reference for PM7:
 "Optimization of Parameters for Semiempirical Methods VI: More Modifications to the 
 NDDO Approximations and Re-optimization of Parameters", J. J. P. Stewart, J. Mol. Mod., 1:32, 19 (2013)
 https://link.springer.com/article/10.1007/s00894-012-1667-x

           Empirical Formula: C8 H14 N2 O3  =    27 atoms



      MOLECULAR POINT GROUP   :   C1  


 SINGLET STATE CALCULATION


      RHF CALCULATION, NO. OF DOUBLY OCCUPIED LEVELS = 37



  CARTESIAN GEOMETRY OF FIRST SYSTEM


   1    C          0.85144      -0.54122      -0.86714
   2    H          1.00220      -0.78842      -1.92766
   3    N          0.73359      -2.94168      -0.43716
   4    O          0.60584      -3.17474      -1.67915
   5    O          0.66066      -3.95050       0.33538
   6    H          1.78652      -0.61245       1.67489
   7    C          0.97413      -1.72559       0.02784
   8    H          3.06739      -2.07182      -0.77617
   9    H         -0.15174      -0.09074      -0.78615
  10    C          1.16751      -1.50033       1.48684
  11    H          0.20992      -1.34285       2.00401
  12    C          4.66666      -2.47575      -4.17494
  13    C          4.95710      -3.01389      -5.42514
  14    C          5.04596      -4.39805      -5.57433
  15    C          4.83077      -5.21909      -4.46710
  16    C          4.54177      -4.64460      -3.23258
  17    N          4.46985      -3.29222      -3.10594
  18    H          5.11180      -2.34671      -6.27900
  19    H          5.27592      -4.83598      -6.55202
  20    H          4.88621      -6.30896      -4.55904
  21    H          1.57447       0.24398      -0.61214
  22    H          1.66175      -2.35257       1.97643
  23    H          4.36267      -5.25396      -2.32769
  24    H          4.58436      -1.38780      -4.00750
  25    H          4.24103      -2.71660      -0.06311
  26    H          4.27265      -2.86165      -2.15238
  27    O          4.04546      -2.12565      -0.83098


  CARTESIAN GEOMETRY OF SECOND SYSTEM


   1    C          0.42517      -0.39613      -0.54995
   2    H         -0.14799      -0.47206      -1.48540
   3    N         -0.10721      -2.71244       0.01332
   4    O         -0.66018      -3.10201      -1.00615
   5    O         -0.45877      -3.09236       1.11814
   6    H          2.67385      -0.98609       1.06503
   7    C          1.02307      -1.73321      -0.12402
   8    H          1.69708      -2.13300      -0.93995
   9    H         -0.23802       0.03409       0.21326
  10    C          1.78837      -1.63017       1.18665
  11    H          1.18331      -1.19783       1.99596
  12    C          4.79248      -2.66852      -4.40259
  13    C          5.42460      -3.11229      -5.56886
  14    C          5.69254      -4.47309      -5.70658
  15    C          5.31858      -5.34666      -4.68703
  16    C          4.69109      -4.82393      -3.55068
  17    N          4.43659      -3.50766      -3.40892
  18    H          5.69960      -2.40457      -6.34953
  19    H          6.18940      -4.85062      -6.60382
  20    H          5.50933      -6.41619      -4.76774
  21    H          1.22298       0.34209      -0.72757
  22    H          2.14889      -2.60760       1.53908
  23    H          4.37700      -5.46986      -2.71923
  24    H          4.55744      -1.60718      -4.24521
  25    H          3.88626      -2.74099      -0.16275
  26    H          4.16473      -2.54754      -1.65251
  27    O          4.14572      -2.07403      -0.80487


   "DISTANCE":     4.212570


  REACTION COORDINATE VECTOR


   1    C          0.42627      -0.14509      -0.31719
   2    H          1.15019      -0.31636      -0.44226
   3    N          0.84080      -0.22924      -0.45048
   4    O          1.26602      -0.07273      -0.67300
   5    O          1.11943      -0.85814      -0.78276
   6    H         -0.88733       0.37364       0.60986
   7    C         -0.04894       0.00762       0.15186
   8    H          1.37031       0.06118       0.16378
   9    H          0.08628      -0.12483      -0.99941
  10    C         -0.62086       0.12984       0.30019
  11    H         -0.97339      -0.14502       0.00805
  12    C         -0.12582       0.19277       0.22765
  13    C         -0.46750       0.09840       0.14372
  14    C         -0.64658       0.07504       0.13225
  15    C         -0.48781       0.12757       0.21993
  16    C         -0.14932       0.17933       0.31810
  17    N          0.03326       0.21544       0.30298
  18    H         -0.58780       0.05786       0.07053
  19    H         -0.91348       0.01464       0.05180
  20    H         -0.62312       0.10723       0.20870
  21    H          0.35149      -0.09811       0.11543
  22    H         -0.48714       0.25503       0.43735
  23    H         -0.01433       0.21590       0.39154
  24    H          0.02692       0.21938       0.23771
  25    H          0.35477       0.02439       0.09964
  26    H          0.10792      -0.31411      -0.49987
  27    O         -0.10026      -0.05162      -0.02611
 *+*+*+*+*+*+*+*+*+*+*+*+*+*+*+*+*+*+*+*+*+*+*+*+*+*+*+*+*+*+*+*+*+*+*+*+*+*+*+*+
            BAR SHORTENED BY       0.000 PERCENT
 GRADIENT CRITERION IN FLEPO =     1.000
  SCF CRITERION =    0.1000E-03
 

                    SINCE COS WAS JUST RESET,THE SEARCH IS BEING ENDED


          FOR POINT    1 SECOND STRUCTURE
 DISTANCE A - B      4.212570
 HEAT              -72.019037
 GRADIENT NORM      19.304928
 DIRECTION COSINE    0.000003
* ===============================
* Input file for Mopac
* ===============================
 PM7 BONDS AUX DUMP=30M ITRY=15000 T=14D CHARGE=0 SINGLET eps=78.4 RELSCF=1


  C     0.00000000 +0    0.0000000 +0    0.0000000 +0     0     0     0
  H     1.09933575 +1    0.0000000 +0    0.0000000 +0     1     0     0
  N     2.44151175 +1   87.4455548 +1    0.0000000 +0     1     2     0
  O     1.27010873 +1   90.7478758 +1  -13.7677259 +1     3     1     2
  O     1.27273510 +1  152.7449177 +1  173.7788478 +1     3     1     2
  H     2.70949531 +1  148.4110408 +1   66.0557161 +1     1     2     3
  C     1.32399372 +1   31.7910881 +1  156.4728811 +1     3     1     2
  H     2.26893031 +1   84.4334432 +1  -85.6952766 +1     7     3     1
  H     1.10266120 +1  106.7075329 +1 -110.3030330 +1     1     2     3
  C     1.09857502 +1   70.4999017 +1  -91.7118556 +1     6     1     2
  H     1.09965602 +1  107.1230183 +1 -105.1359662 +1    10     6     1
  C     3.77789114 +1  136.5237195 +1   67.0639940 +1     8     7     3
  C     1.39174354 +1  159.6912237 +1  -62.3842586 +1    12     8     7
  C     1.39500991 +1  119.5393162 +1  -39.4693839 +1    13    12     8
  C     1.39512426 +1  119.2898465 +1    0.5175025 +1    14    13    12
  C     1.39197679 +1  119.5383542 +1   -0.4889342 +1    15    14    13
  N     1.35945520 +1   45.2105582 +1 -112.9833155 +1    12     8     7
  H     1.09459497 +1  119.6398805 +1  140.4614497 +1    13    12     8
  H     1.09569249 +1  120.3560042 +1 -179.8741143 +1    14    13    12
  H     1.09514528 +1  120.7461531 +1  179.4772261 +1    15    14    13
  H     1.09742263 +1  107.1392192 +1  135.5266630 +1     1     2     3
  H     1.10012934 +1  107.2642637 +1  140.2411404 +1    10     6     1
  H     1.10554165 +1  122.1452990 +1  179.9280069 +1    16    15    14
  H     1.10383180 +1   74.1326720 +1   83.5336765 +1    12     8     7
  H     1.51711128 +1  127.7348876 +1  -88.1520332 +1     8     7     3
  H     1.06468542 +1  119.2224433 +1  -19.6094863 +1    17    12     8
  O     0.98108242 +1  161.4258751 +1 -129.8278558 +1     8     7     3

 TIME=     0.80
  REACTANTS AND PRODUCTS SWAPPED AROUND
 *+*+*+*+*+*+*+*+*+*+*+*+*+*+*+*+*+*+*+*+*+*+*+*+*+*+*+*+*+*+*+*+*+*+*+*+*+*+*+*+
            BAR SHORTENED BY       1.000 PERCENT
 GRADIENT CRITERION IN FLEPO =    10.000


          FOR POINT    2 FIRST  STRUCTURE
 DISTANCE A - B      4.170444
 HEAT              -79.193544
 GRADIENT NORM      14.755833
 DIRECTION COSINE   -0.059206
* ===============================
* Input file for Mopac
* ===============================
 PM7 BONDS AUX DUMP=30M ITRY=15000 T=14D CHARGE=0 SINGLET eps=78.4 RELSCF=1


  C     0.00000000 +0    0.0000000 +0    0.0000000 +0     0     0     0
  H     1.10342163 +1    0.0000000 +0    0.0000000 +0     1     0     0
  N     2.44371218 +1   91.0309084 +1    0.0000000 +0     1     2     0
  O     1.22386180 +1  101.9641404 +1    7.0501130 +1     3     1     2
  O     1.22018738 +1  124.7801489 +1 -136.1883284 +1     3     1     2
  H     2.82687871 +1  152.1467081 +1   72.4432740 +1     1     2     3
  C     1.50058506 +1   36.5333321 +1  128.6086374 +1     3     1     2
  H     1.13049142 +1  106.5734734 +1 -117.9292614 +1     7     3     1
  H     1.09819797 +1  107.7277449 +1  -95.1972756 +1     1     2     3
  C     1.10272302 +1   63.1809446 +1  -95.0220584 +1     6     1     2
  H     1.09871964 +1  107.0132705 +1  -92.2491210 +1    10     6     1
  C     4.66894687 +1  165.9203249 +1  154.4905196 +1     8     7     3
  C     1.39878615 +1  162.3207980 +1 -140.7083372 +1    12     8     7
  C     1.39084991 +1  118.3484379 +1  -56.3989895 +1    13    12     8
  C     1.38920503 +1  119.7597709 +1   -1.0436985 +1    14    13    12
  C     1.39976007 +1  118.4193347 +1    0.9980653 +1    15    14    13
  N     1.34762364 +1  122.3473188 +1   -0.7092271 +1    16    15    14
  H     1.08930114 +1  120.3707011 +1  122.8964625 +1    13    12     8
  H     1.09968548 +1  120.0628478 +1 -178.9374930 +1    14    13    12
  H     1.08909907 +1  121.2156379 +1 -179.7087993 +1    15    14    13
  H     1.10274571 +1  106.5838484 +1  150.5235539 +1     1     2     3
  H     1.09870966 +1  107.1645593 +1  153.1307179 +1    10     6     1
  H     1.09775884 +1  121.6545833 +1  179.3678565 +1    16    15    14
  H     1.09867934 +1   68.9443586 +1  -10.6564167 +1    12     8     7
  H     2.39386980 +1  113.8692119 +1 -115.2291600 +1     8     7     3
  H     1.53007726 +1   79.4768488 +1 -158.9106393 +1    25     8     7
  O     0.96155417 +1   81.4633293 +1 -120.5435495 +1    25     8     7

 *+*+*+*+*+*+*+*+*+*+*+*+*+*+*+*+*+*+*+*+*+*+*+*+*+*+*+*+*+*+*+*+*+*+*+*+*+*+*+*+
            BAR SHORTENED BY       1.000 PERCENT
 GRADIENT CRITERION IN FLEPO =    10.000


          FOR POINT    3 FIRST  STRUCTURE
 DISTANCE A - B      4.128740
 HEAT              -79.206862
 GRADIENT NORM      10.825409
 DIRECTION COSINE   -0.209650
* ===============================
* Input file for Mopac
* ===============================
 PM7 BONDS AUX DUMP=30M ITRY=15000 T=14D CHARGE=0 SINGLET eps=78.4 RELSCF=1


  C     0.00000000 +0    0.0000000 +0    0.0000000 +0     0     0     0
  H     1.09913019 +1    0.0000000 +0    0.0000000 +0     1     0     0
  N     2.44559224 +1   91.1724459 +1    0.0000000 +0     1     2     0
  O     1.22224284 +1  101.7848109 +1    6.8875505 +1     3     1     2
  O     1.22017585 +1  124.9379109 +1 -136.5388626 +1     3     1     2
  H     2.82466392 +1  152.3345044 +1   72.4740506 +1     1     2     3
  C     1.50241549 +1   36.4843824 +1  128.6836308 +1     3     1     2
  H     1.12915798 +1  106.5152812 +1 -117.8765941 +1     7     3     1
  H     1.09845252 +1  107.6361382 +1  -95.3852581 +1     1     2     3
  C     1.09919060 +1   63.2735392 +1  -94.9626035 +1     6     1     2
  H     1.09939355 +1  106.9970949 +1  -92.2654289 +1    10     6     1
  C     4.66211153 +1  166.0416254 +1  152.9009759 +1     8     7     3
  C     1.39518146 +1  161.9166187 +1 -138.7524462 +1    12     8     7
  C     1.39551811 +1  118.7071306 +1  -57.3559277 +1    13    12     8
  C     1.39477731 +1  119.2973290 +1    0.1536694 +1    14    13    12
  C     1.39692822 +1  118.5314650 +1    0.0266387 +1    15    14    13
  N     1.34827644 +1  122.3706997 +1   -0.2085307 +1    16    15    14
  H     1.09175737 +1  120.6400328 +1  123.6701618 +1    13    12     8
  H     1.09276212 +1  120.3193127 +1 -178.7984613 +1    14    13    12
  H     1.08916466 +1  120.8020031 +1 -179.9833267 +1    15    14    13
  H     1.10077702 +1  106.6052365 +1  150.4903099 +1     1     2     3
  H     1.09945471 +1  107.3356335 +1  153.0650401 +1    10     6     1
  H     1.09978314 +1  121.5527412 +1  179.7124901 +1    16    15    14
  H     1.09524341 +1   69.0443580 +1   -8.9620368 +1    12     8     7
  H     2.38613344 +1  114.2384338 +1 -114.9700578 +1     8     7     3
  H     1.53096635 +1   79.3533617 +1 -159.2097379 +1    25     8     7
  O     0.96109830 +1   81.2817161 +1 -120.8395177 +1    25     8     7

 *+*+*+*+*+*+*+*+*+*+*+*+*+*+*+*+*+*+*+*+*+*+*+*+*+*+*+*+*+*+*+*+*+*+*+*+*+*+*+*+
            BAR SHORTENED BY       1.000 PERCENT
 GRADIENT CRITERION IN FLEPO =     7.825


          FOR POINT    4 FIRST  STRUCTURE
 DISTANCE A - B      4.087453
 HEAT              -79.214981
 GRADIENT NORM       5.063365
 DIRECTION COSINE    0.169555
* ===============================
* Input file for Mopac
* ===============================
 PM7 BONDS AUX DUMP=30M ITRY=15000 T=14D CHARGE=0 SINGLET eps=78.4 RELSCF=1


  C     0.00000000 +0    0.0000000 +0    0.0000000 +0     0     0     0
  H     1.10015688 +1    0.0000000 +0    0.0000000 +0     1     0     0
  N     2.44487698 +1   91.1946722 +1    0.0000000 +0     1     2     0
  O     1.22358203 +1  101.7218169 +1    6.6320958 +1     3     1     2
  O     1.22033040 +1  125.2217124 +1 -136.9485213 +1     3     1     2
  H     2.82696550 +1  152.4491381 +1   72.2939603 +1     1     2     3
  C     1.49973903 +1   36.4177549 +1  128.5912194 +1     3     1     2
  H     1.13047516 +1  106.5938215 +1 -117.9725492 +1     7     3     1
  H     1.09807170 +1  107.6310930 +1  -95.5094059 +1     1     2     3
  C     1.09976924 +1   63.1784113 +1  -94.5950434 +1     6     1     2
  H     1.09706538 +1  106.7701053 +1  -92.3148417 +1    10     6     1
  C     4.65369985 +1  166.2394675 +1  150.8879681 +1     8     7     3
  C     1.39846406 +1  162.0171213 +1 -136.6423033 +1    12     8     7
  C     1.39433976 +1  118.5832424 +1  -57.2968974 +1    13    12     8
  C     1.39379447 +1  119.3950579 +1    0.2098912 +1    14    13    12
  C     1.39975083 +1  118.5245442 +1   -0.1198279 +1    15    14    13
  N     1.34773175 +1  122.3190342 +1   -0.1802894 +1    16    15    14
  H     1.08846402 +1  120.5304808 +1  123.4497481 +1    13    12     8
  H     1.09079501 +1  120.2762269 +1 -179.3639881 +1    14    13    12
  H     1.08871470 +1  121.0279700 +1  179.8560434 +1    15    14    13
  H     1.10224953 +1  106.3453091 +1  150.3672879 +1     1     2     3
  H     1.09893034 +1  107.1636601 +1  152.9568878 +1    10     6     1
  H     1.09826105 +1  121.5984184 +1  179.9821047 +1    16    15    14
  H     1.09786088 +1   69.1193227 +1   -6.7338874 +1    12     8     7
  H     2.37846894 +1  114.6890259 +1 -114.6253802 +1     8     7     3
  H     1.53200732 +1   79.2354353 +1 -159.5296816 +1    25     8     7
  O     0.96153316 +1   81.0907288 +1 -121.1697768 +1    25     8     7

 TIME=     0.95
  REACTANTS AND PRODUCTS SWAPPED AROUND
 *+*+*+*+*+*+*+*+*+*+*+*+*+*+*+*+*+*+*+*+*+*+*+*+*+*+*+*+*+*+*+*+*+*+*+*+*+*+*+*+
            BAR SHORTENED BY       0.000 PERCENT
 GRADIENT CRITERION IN FLEPO =     2.063
 

                    SINCE COS WAS JUST RESET,THE SEARCH IS BEING ENDED


          FOR POINT    5 SECOND STRUCTURE
 DISTANCE A - B      4.087453
 HEAT              -72.019037
 GRADIENT NORM      19.293878
 DIRECTION COSINE   -0.173211
* ===============================
* Input file for Mopac
* ===============================
 PM7 BONDS AUX DUMP=30M ITRY=15000 T=14D CHARGE=0 SINGLET eps=78.4 RELSCF=1


  C     0.00000000 +0    0.0000000 +0    0.0000000 +0     0     0     0
  H     1.09933575 +1    0.0000000 +0    0.0000000 +0     1     0     0
  N     2.44151175 +1   87.4455549 +1    0.0000000 +0     1     2     0
  O     1.27010873 +1   90.7478758 +1  -13.7677259 +1     3     1     2
  O     1.27273509 +1  152.7449176 +1  173.7788474 +1     3     1     2
  H     2.70949532 +1  148.4110405 +1   66.0557163 +1     1     2     3
  C     1.32399372 +1   31.7910881 +1  156.4728809 +1     3     1     2
  H     2.26893032 +1   84.4334433 +1  -85.6952766 +1     7     3     1
  H     1.10266120 +1  106.7075333 +1 -110.3030331 +1     1     2     3
  C     1.09857503 +1   70.4999016 +1  -91.7118560 +1     6     1     2
  H     1.09965602 +1  107.1230184 +1 -105.1359662 +1    10     6     1
  C     3.77789113 +1  136.5237193 +1   67.0639940 +1     8     7     3
  C     1.39174355 +1  159.6912238 +1  -62.3842589 +1    12     8     7
  C     1.39500991 +1  119.5393162 +1  -39.4693835 +1    13    12     8
  C     1.39512426 +1  119.2898465 +1    0.5175025 +1    14    13    12
  C     1.39197679 +1  119.5383542 +1   -0.4889343 +1    15    14    13
  N     1.35945520 +1   45.2105582 +1 -112.9833153 +1    12     8     7
  H     1.09459497 +1  119.6398805 +1  140.4614501 +1    13    12     8
  H     1.09569249 +1  120.3560042 +1 -179.8741142 +1    14    13    12
  H     1.09514528 +1  120.7461531 +1  179.4772261 +1    15    14    13
  H     1.09742263 +1  107.1392189 +1  135.5266629 +1     1     2     3
  H     1.10012934 +1  107.2642636 +1  140.2411405 +1    10     6     1
  H     1.10554165 +1  122.1452990 +1  179.9280069 +1    16    15    14
  H     1.10383180 +1   74.1326720 +1   83.5336765 +1    12     8     7
  H     1.51711127 +1  127.7348875 +1  -88.1520330 +1     8     7     3
  H     1.06468542 +1  119.2224433 +1  -19.6094861 +1    17    12     8
  O     0.98108241 +1  161.4258753 +1 -129.8278557 +1     8     7     3

 TIME=     0.42
  REACTANTS AND PRODUCTS SWAPPED AROUND
 *+*+*+*+*+*+*+*+*+*+*+*+*+*+*+*+*+*+*+*+*+*+*+*+*+*+*+*+*+*+*+*+*+*+*+*+*+*+*+*+
            BAR SHORTENED BY       1.000 PERCENT
 GRADIENT CRITERION IN FLEPO =    10.000


          FOR POINT    6 FIRST  STRUCTURE
 DISTANCE A - B      4.046578
 HEAT              -79.215253
 GRADIENT NORM       8.526932
 DIRECTION COSINE    0.159967
* ===============================
* Input file for Mopac
* ===============================
 PM7 BONDS AUX DUMP=30M ITRY=15000 T=14D CHARGE=0 SINGLET eps=78.4 RELSCF=1


  C     0.00000000 +0    0.0000000 +0    0.0000000 +0     0     0     0
  H     1.10550641 +1    0.0000000 +0    0.0000000 +0     1     0     0
  N     2.44685738 +1   91.2591665 +1    0.0000000 +0     1     2     0
  O     1.22264326 +1  101.5661218 +1    6.2131135 +1     3     1     2
  O     1.21926923 +1  125.4127103 +1 -137.5735391 +1     3     1     2
  H     2.82278326 +1  152.2344558 +1   72.4304116 +1     1     2     3
  C     1.49709649 +1   36.2874382 +1  128.4320911 +1     3     1     2
  H     1.13558223 +1  106.6009443 +1 -118.0223066 +1     7     3     1
  H     1.09664162 +1  107.8305398 +1  -95.6320507 +1     1     2     3
  C     1.10040625 +1   63.3031445 +1  -94.7475666 +1     6     1     2
  H     1.09736903 +1  106.7655409 +1  -92.3597662 +1    10     6     1
  C     4.64531037 +1  166.4093027 +1  148.6997518 +1     8     7     3
  C     1.39823085 +1  162.0043399 +1 -134.3794884 +1    12     8     7
  C     1.39403582 +1  118.5778670 +1  -57.1346177 +1    13    12     8
  C     1.39378661 +1  119.3990357 +1    0.2206406 +1    14    13    12
  C     1.39899771 +1  118.5434798 +1   -0.2014553 +1    15    14    13
  N     1.34788443 +1  122.3286847 +1   -0.0763393 +1    16    15    14
  H     1.08753568 +1  120.4191074 +1  123.2897089 +1    13    12     8
  H     1.09145901 +1  120.2928622 +1 -179.4483394 +1    14    13    12
  H     1.08903125 +1  121.0109013 +1  179.9051130 +1    15    14    13
  H     1.10228466 +1  106.3579614 +1  150.1389974 +1     1     2     3
  H     1.09897331 +1  107.2647605 +1  152.9666216 +1    10     6     1
  H     1.09851362 +1  121.5947863 +1 -179.9783803 +1    16    15    14
  H     1.09809718 +1   69.1637049 +1   -4.3205496 +1    12     8     7
  H     2.37032642 +1  115.1264281 +1 -114.2731580 +1     8     7     3
  H     1.53482364 +1   79.1057577 +1 -159.9453122 +1    25     8     7
  O     0.96044606 +1   80.7966973 +1 -121.5013685 +1    25     8     7

 *+*+*+*+*+*+*+*+*+*+*+*+*+*+*+*+*+*+*+*+*+*+*+*+*+*+*+*+*+*+*+*+*+*+*+*+*+*+*+*+
            BAR SHORTENED BY       1.000 PERCENT
 GRADIENT CRITERION IN FLEPO =     5.527


          FOR POINT    7 FIRST  STRUCTURE
 DISTANCE A - B      4.006112
 HEAT              -79.174549
 GRADIENT NORM       6.741990
 DIRECTION COSINE    0.027869
* ===============================
* Input file for Mopac
* ===============================
 PM7 BONDS AUX DUMP=30M ITRY=15000 T=14D CHARGE=0 SINGLET eps=78.4 RELSCF=1


  C     0.00000000 +0    0.0000000 +0    0.0000000 +0     0     0     0
  H     1.09813182 +1    0.0000000 +0    0.0000000 +0     1     0     0
  N     2.44798717 +1   91.8289769 +1    0.0000000 +0     1     2     0
  O     1.22256832 +1  101.4927699 +1    6.2213665 +1     3     1     2
  O     1.22077748 +1  125.7048191 +1 -137.7575962 +1     3     1     2
  H     2.82317223 +1  152.6833101 +1   73.2495834 +1     1     2     3
  C     1.50176874 +1   36.2976463 +1  128.6718059 +1     3     1     2
  H     1.13013930 +1  106.4149493 +1 -117.8914967 +1     7     3     1
  H     1.09829227 +1  107.5610425 +1  -95.8305113 +1     1     2     3
  C     1.10071492 +1   63.3735885 +1  -95.5205573 +1     6     1     2
  H     1.10006643 +1  106.7885617 +1  -92.3675002 +1    10     6     1
  C     4.64135543 +1  166.4304738 +1  147.5125012 +1     8     7     3
  C     1.39815142 +1  162.0164356 +1 -133.2006661 +1    12     8     7
  C     1.39389343 +1  118.5880222 +1  -57.0991042 +1    13    12     8
  C     1.39346995 +1  119.3813722 +1    0.2389369 +1    14    13    12
  C     1.39956019 +1  118.5625736 +1   -0.2784917 +1    15    14    13
  N     1.34771359 +1  122.2690433 +1   -0.0066801 +1    16    15    14
  H     1.08653331 +1  120.2195649 +1  122.7042178 +1    13    12     8
  H     1.09211837 +1  120.3455944 +1 -179.6521456 +1    14    13    12
  H     1.08907456 +1  121.0313897 +1  179.8659996 +1    15    14    13
  H     1.10494498 +1  106.3292568 +1  150.0240302 +1     1     2     3
  H     1.09934535 +1  107.4919970 +1  152.9589244 +1    10     6     1
  H     1.09875726 +1  121.7012213 +1 -179.8909701 +1    16    15    14
  H     1.09861168 +1   69.1769367 +1   -3.0883834 +1    12     8     7
  H     2.36513309 +1  115.4559982 +1 -114.0709141 +1     8     7     3
  H     1.53439999 +1   79.0403451 +1 -160.0355103 +1    25     8     7
  O     0.96111612 +1   80.5727659 +1 -121.6713800 +1    25     8     7

 *+*+*+*+*+*+*+*+*+*+*+*+*+*+*+*+*+*+*+*+*+*+*+*+*+*+*+*+*+*+*+*+*+*+*+*+*+*+*+*+
            BAR SHORTENED BY       1.000 PERCENT
 GRADIENT CRITERION IN FLEPO =     3.742


          FOR POINT    8 FIRST  STRUCTURE
 DISTANCE A - B      3.966051
 HEAT              -79.169549
 GRADIENT NORM       5.461173
 DIRECTION COSINE   -0.065918
* ===============================
* Input file for Mopac
* ===============================
 PM7 BONDS AUX DUMP=30M ITRY=15000 T=14D CHARGE=0 SINGLET eps=78.4 RELSCF=1


  C     0.00000000 +0    0.0000000 +0    0.0000000 +0     0     0     0
  H     1.09980577 +1    0.0000000 +0    0.0000000 +0     1     0     0
  N     2.45194769 +1   91.5008337 +1    0.0000000 +0     1     2     0
  O     1.22330270 +1  101.3790805 +1    5.8385639 +1     3     1     2
  O     1.22044650 +1  125.8782446 +1 -138.2171696 +1     3     1     2
  H     2.82632349 +1  152.4303378 +1   72.6024915 +1     1     2     3
  C     1.49904266 +1   36.1883581 +1  128.5017037 +1     3     1     2
  H     1.13172420 +1  106.5528406 +1 -118.0148153 +1     7     3     1
  H     1.09766335 +1  107.6248971 +1  -95.7383759 +1     1     2     3
  C     1.10039457 +1   63.1620474 +1  -95.0559957 +1     6     1     2
  H     1.09887814 +1  107.4173697 +1  -92.6336221 +1    10     6     1
  C     4.63339501 +1  166.6478096 +1  145.0806674 +1     8     7     3
  C     1.39669086 +1  161.8174471 +1 -130.4114268 +1    12     8     7
  C     1.39450372 +1  118.7058738 +1  -57.5803682 +1    13    12     8
  C     1.39354992 +1  119.2632316 +1    0.6869521 +1    14    13    12
  C     1.40002899 +1  118.5607781 +1   -0.5303367 +1    15    14    13
  N     1.34800276 +1  122.3566222 +1    0.0668836 +1    16    15    14
  H     1.09042707 +1  120.3051665 +1  123.0052992 +1    13    12     8
  H     1.09372495 +1  120.3918745 +1 -179.5775876 +1    14    13    12
  H     1.08917081 +1  121.0116381 +1  179.5468397 +1    15    14    13
  H     1.10023916 +1  106.5736797 +1  149.9151429 +1     1     2     3
  H     1.09956959 +1  107.2017679 +1  153.0381860 +1    10     6     1
  H     1.09956375 +1  121.5823435 +1 -179.8556389 +1    16    15    14
  H     1.09838824 +1   69.2448164 +1   -0.4459827 +1    12     8     7
  H     2.35623750 +1  116.0153396 +1 -113.6445704 +1     8     7     3
  H     1.53157250 +1   78.7991172 +1 -160.5113745 +1    25     8     7
  O     0.95980503 +1   80.3929043 +1 -122.0129370 +1    25     8     7

 TIME=     1.08
  REACTANTS AND PRODUCTS SWAPPED AROUND
 *+*+*+*+*+*+*+*+*+*+*+*+*+*+*+*+*+*+*+*+*+*+*+*+*+*+*+*+*+*+*+*+*+*+*+*+*+*+*+*+
            BAR SHORTENED BY       0.000 PERCENT
 GRADIENT CRITERION IN FLEPO =     2.461
 

                    SINCE COS WAS JUST RESET,THE SEARCH IS BEING ENDED


          FOR POINT    9 SECOND STRUCTURE
 DISTANCE A - B      3.966051
 HEAT              -73.041548
 GRADIENT NORM      13.688613
 DIRECTION COSINE    0.115603
* ===============================
* Input file for Mopac
* ===============================
 PM7 BONDS AUX DUMP=30M ITRY=15000 T=14D CHARGE=0 SINGLET eps=78.4 RELSCF=1


  C     0.00000000 +0    0.0000000 +0    0.0000000 +0     0     0     0
  H     1.10275259 +1    0.0000000 +0    0.0000000 +0     1     0     0
  N     2.44845454 +1   87.0110755 +1    0.0000000 +0     1     2     0
  O     1.26640481 +1   91.2498161 +1  -17.3459815 +1     3     1     2
  O     1.27142895 +1  151.9272546 +1  164.6203964 +1     3     1     2
  H     2.70444741 +1  147.3609060 +1   65.6432019 +1     1     2     3
  C     1.32611816 +1   31.4437479 +1  158.4565586 +1     3     1     2
  H     2.18100212 +1   83.4269419 +1  -85.7576814 +1     7     3     1
  H     1.10105223 +1  107.5369196 +1 -111.5799496 +1     1     2     3
  C     1.09977978 +1   70.6246934 +1  -92.1540107 +1     6     1     2
  H     1.10098650 +1  107.2896471 +1 -105.3948559 +1    10     6     1
  C     3.92731757 +1  134.3917070 +1   67.4313196 +1     8     7     3
  C     1.39278997 +1  159.4472085 +1  -61.9871093 +1    12     8     7
  C     1.39734362 +1  119.8945039 +1  -40.1306172 +1    13    12     8
  C     1.39513782 +1  118.8920120 +1    0.6907872 +1    14    13    12
  C     1.39240469 +1  119.7743855 +1   -0.5925749 +1    15    14    13
  N     1.36058684 +1  120.3362454 +1   -0.0054846 +1    16    15    14
  H     1.09499001 +1  119.8900854 +1  140.3681444 +1    13    12     8
  H     1.09228781 +1  120.6319307 +1 -179.1153857 +1    14    13    12
  H     1.10162968 +1  120.5953656 +1  179.9161837 +1    15    14    13
  H     1.09483787 +1  106.4562462 +1  133.3634985 +1     1     2     3
  H     1.10165726 +1  106.9268610 +1  139.9071561 +1    10     6     1
  H     1.10920578 +1  121.8675465 +1 -179.7245720 +1    16    15    14
  H     1.10392753 +1   74.1768995 +1   83.4341685 +1    12     8     7
  H     1.54347506 +1  136.2263026 +1  -86.7356544 +1     8     7     3
  H     1.07263371 +1  119.4478149 +1 -178.7093462 +1    17    16    15
  O     0.96903244 +1   37.7324238 +1 -166.2692957 +1    25     8     7

 TIME=     1.82
  REACTANTS AND PRODUCTS SWAPPED AROUND
 *+*+*+*+*+*+*+*+*+*+*+*+*+*+*+*+*+*+*+*+*+*+*+*+*+*+*+*+*+*+*+*+*+*+*+*+*+*+*+*+
            BAR SHORTENED BY       1.000 PERCENT
 GRADIENT CRITERION IN FLEPO =    10.000
 

                    SINCE COS WAS JUST RESET,THE SEARCH IS BEING ENDED


          FOR POINT   10 FIRST  STRUCTURE
 DISTANCE A - B      3.926391
 HEAT              -79.116025
 GRADIENT NORM      12.139365
 DIRECTION COSINE    0.249778
* ===============================
* Input file for Mopac
* ===============================
 PM7 BONDS AUX DUMP=30M ITRY=15000 T=14D CHARGE=0 SINGLET eps=78.4 RELSCF=1


  C     0.00000000 +0    0.0000000 +0    0.0000000 +0     0     0     0
  H     1.09744108 +1    0.0000000 +0    0.0000000 +0     1     0     0
  N     2.45152321 +1   91.5258645 +1    0.0000000 +0     1     2     0
  O     1.22301673 +1  101.2513378 +1    5.6170861 +1     3     1     2
  O     1.21862068 +1  126.1274218 +1 -138.7275784 +1     3     1     2
  H     2.82079930 +1  152.3725773 +1   72.5072729 +1     1     2     3
  C     1.49340436 +1   36.0535978 +1  128.5546271 +1     3     1     2
  H     1.13922965 +1  106.6159061 +1 -118.1126713 +1     7     3     1
  H     1.09534595 +1  107.6289930 +1  -95.9187278 +1     1     2     3
  C     1.09955732 +1   63.3007415 +1  -95.0150464 +1     6     1     2
  H     1.09787503 +1  107.4216394 +1  -92.7162195 +1    10     6     1
  C     4.62490654 +1  166.7542908 +1  142.3844217 +1     8     7     3
  C     1.39624902 +1  161.7827947 +1 -127.6064686 +1    12     8     7
  C     1.39442574 +1  118.7100695 +1  -57.4362437 +1    13    12     8
  C     1.39345922 +1  119.2735204 +1    0.6854635 +1    14    13    12
  C     1.39956192 +1  118.5656080 +1   -0.5290806 +1    15    14    13
  N     1.34801269 +1  122.3294586 +1    0.0665259 +1    16    15    14
  H     1.09039158 +1  120.2947761 +1  123.1457314 +1    13    12     8
  H     1.09341875 +1  120.3871549 +1 -179.5733072 +1    14    13    12
  H     1.08922618 +1  121.0207896 +1  179.5496935 +1    15    14    13
  H     1.09942382 +1  106.5785043 +1  149.8057409 +1     1     2     3
  H     1.09937251 +1  107.2286399 +1  152.9717830 +1    10     6     1
  H     1.09956540 +1  121.5774813 +1 -179.8558097 +1    16    15    14
  H     1.09835079 +1   69.3015995 +1    2.4906864 +1    12     8     7
  H     2.34788105 +1  116.5064308 +1 -113.2788484 +1     8     7     3
  H     1.53632744 +1   78.6780310 +1 -161.0121053 +1    25     8     7
  O     0.95816289 +1   80.0057711 +1 -122.3778419 +1    25     8     7

 *+*+*+*+*+*+*+*+*+*+*+*+*+*+*+*+*+*+*+*+*+*+*+*+*+*+*+*+*+*+*+*+*+*+*+*+*+*+*+*+
            BAR SHORTENED BY       1.000 PERCENT
 GRADIENT CRITERION IN FLEPO =     9.139


          FOR POINT   11 FIRST  STRUCTURE
 DISTANCE A - B      3.887127
 HEAT              -79.003839
 GRADIENT NORM      16.400722
 DIRECTION COSINE    0.257757
* ===============================
* Input file for Mopac
* ===============================
 PM7 BONDS AUX DUMP=30M ITRY=15000 T=14D CHARGE=0 SINGLET eps=78.4 RELSCF=1


  C     0.00000000 +0    0.0000000 +0    0.0000000 +0     0     0     0
  H     1.10594343 +1    0.0000000 +0    0.0000000 +0     1     0     0
  N     2.45281659 +1   91.8401613 +1    0.0000000 +0     1     2     0
  O     1.22357160 +1  101.1074907 +1    5.0166991 +1     3     1     2
  O     1.22106836 +1  126.2166345 +1 -139.2557626 +1     3     1     2
  H     2.81827614 +1  152.3138092 +1   73.1441855 +1     1     2     3
  C     1.49337982 +1   35.8480116 +1  128.4314058 +1     3     1     2
  H     1.13896658 +1  106.4682464 +1 -118.1585582 +1     7     3     1
  H     1.09956296 +1  107.8089991 +1  -96.2678326 +1     1     2     3
  C     1.10090812 +1   63.4711211 +1  -95.6842298 +1     6     1     2
  H     1.10026009 +1  107.2613476 +1  -92.5976604 +1    10     6     1
  C     4.61806697 +1  166.7475632 +1  140.3500336 +1     8     7     3
  C     1.40155839 +1  161.7624373 +1 -125.7201153 +1    12     8     7
  C     1.39354226 +1  118.7149924 +1  -56.8020073 +1    13    12     8
  C     1.39131857 +1  119.2460506 +1    0.3920001 +1    14    13    12
  C     1.40153490 +1  118.7368471 +1   -0.4077693 +1    15    14    13
  N     1.34406028 +1  122.2203228 +1    0.0119507 +1    16    15    14
  H     1.08888635 +1  120.1831703 +1  123.2767710 +1    13    12     8
  H     1.08942664 +1  120.2058817 +1 -179.4520446 +1    14    13    12
  H     1.08904031 +1  121.0773348 +1  179.8669709 +1    15    14    13
  H     1.10148845 +1  106.1836775 +1  149.8228371 +1     1     2     3
  H     1.09942255 +1  107.3383131 +1  152.8669862 +1    10     6     1
  H     1.09878776 +1  121.5831900 +1 -179.6871753 +1    16    15    14
  H     1.09788824 +1   69.4404417 +1    4.9497594 +1    12     8     7
  H     2.34166621 +1  116.9264520 +1 -112.8404253 +1     8     7     3
  H     1.54097801 +1   78.6768291 +1 -161.2331679 +1    25     8     7
  O     0.96022293 +1   79.7721344 +1 -122.8391745 +1    25     8     7

 *+*+*+*+*+*+*+*+*+*+*+*+*+*+*+*+*+*+*+*+*+*+*+*+*+*+*+*+*+*+*+*+*+*+*+*+*+*+*+*+
            BAR SHORTENED BY       1.000 PERCENT
 GRADIENT CRITERION IN FLEPO =    10.000


          FOR POINT   12 FIRST  STRUCTURE
 DISTANCE A - B      3.848256
 HEAT              -78.996169
 GRADIENT NORM      18.060717
 DIRECTION COSINE    0.095685
* ===============================
* Input file for Mopac
* ===============================
 PM7 BONDS AUX DUMP=30M ITRY=15000 T=14D CHARGE=0 SINGLET eps=78.4 RELSCF=1


  C     0.00000000 +0    0.0000000 +0    0.0000000 +0     0     0     0
  H     1.09829343 +1    0.0000000 +0    0.0000000 +0     1     0     0
  N     2.46283033 +1   91.8784311 +1    0.0000000 +0     1     2     0
  O     1.22682192 +1  101.0377054 +1    5.0793930 +1     3     1     2
  O     1.21867558 +1  126.2159904 +1 -139.7645510 +1     3     1     2
  H     2.81899336 +1  152.3577430 +1   73.1088333 +1     1     2     3
  C     1.49966333 +1   35.8198550 +1  128.3831677 +1     3     1     2
  H     1.13296394 +1  106.5078518 +1 -118.0405258 +1     7     3     1
  H     1.10084480 +1  107.6235296 +1  -96.0224854 +1     1     2     3
  C     1.09729821 +1   63.3723593 +1  -95.7832428 +1     6     1     2
  H     1.09618163 +1  107.6409039 +1  -93.0212144 +1    10     6     1
  C     4.61806653 +1  166.9338667 +1  138.6602386 +1     8     7     3
  C     1.39777242 +1  161.8005486 +1 -123.5893808 +1    12     8     7
  C     1.39462781 +1  118.6213002 +1  -57.1715972 +1    13    12     8
  C     1.39400532 +1  119.3427578 +1    0.3771713 +1    14    13    12
  C     1.40009426 +1  118.5356071 +1   -0.4006355 +1    15    14    13
  N     1.34742794 +1  122.3038502 +1    0.0566417 +1    16    15    14
  H     1.08945864 +1  120.4604247 +1  122.6720362 +1    13    12     8
  H     1.08892515 +1  120.3171808 +1 -179.8202299 +1    14    13    12
  H     1.08799722 +1  120.7837554 +1  179.4263115 +1    15    14    13
  H     1.10131018 +1  106.4648752 +1  149.6956307 +1     1     2     3
  H     1.10596850 +1  107.0547199 +1  152.8523122 +1    10     6     1
  H     1.09789354 +1  121.6824534 +1 -179.7154882 +1    16    15    14
  H     1.09730180 +1   69.3116288 +1    6.6678929 +1    12     8     7
  H     2.34269122 +1  117.6948049 +1 -111.9727433 +1     8     7     3
  H     1.53300235 +1   78.5488474 +1 -161.0423564 +1    25     8     7
  O     0.97437805 +1   38.1303578 +1   87.8586822 +1    26    25     8

 TIME=     1.63
  REACTANTS AND PRODUCTS SWAPPED AROUND
 *+*+*+*+*+*+*+*+*+*+*+*+*+*+*+*+*+*+*+*+*+*+*+*+*+*+*+*+*+*+*+*+*+*+*+*+*+*+*+*+
            BAR SHORTENED BY       0.000 PERCENT
 GRADIENT CRITERION IN FLEPO =    10.000
 

                    SINCE COS WAS JUST RESET,THE SEARCH IS BEING ENDED


          FOR POINT   13 SECOND STRUCTURE
 DISTANCE A - B      3.848256
 HEAT              -73.041548
 GRADIENT NORM      13.688800
 DIRECTION COSINE    0.215106
* ===============================
* Input file for Mopac
* ===============================
 PM7 BONDS AUX DUMP=30M ITRY=15000 T=14D CHARGE=0 SINGLET eps=78.4 RELSCF=1


  C     0.00000000 +0    0.0000000 +0    0.0000000 +0     0     0     0
  H     1.10275259 +1    0.0000000 +0    0.0000000 +0     1     0     0
  N     2.44845454 +1   87.0110756 +1    0.0000000 +0     1     2     0
  O     1.26640481 +1   91.2498161 +1  -17.3459816 +1     3     1     2
  O     1.27142895 +1  151.9272544 +1  164.6203959 +1     3     1     2
  H     2.70444741 +1  147.3609057 +1   65.6432022 +1     1     2     3
  C     1.32611816 +1   31.4437478 +1  158.4565584 +1     3     1     2
  H     2.18100213 +1   83.4269419 +1  -85.7576815 +1     7     3     1
  H     1.10105223 +1  107.5369200 +1 -111.5799496 +1     1     2     3
  C     1.09977978 +1   70.6246933 +1  -92.1540112 +1     6     1     2
  H     1.10098650 +1  107.2896472 +1 -105.3948559 +1    10     6     1
  C     3.92731756 +1  134.3917068 +1   67.4313196 +1     8     7     3
  C     1.39278997 +1  159.4472086 +1  -61.9871096 +1    12     8     7
  C     1.39734362 +1  119.8945039 +1  -40.1306168 +1    13    12     8
  C     1.39513782 +1  118.8920120 +1    0.6907872 +1    14    13    12
  C     1.39240469 +1  119.7743856 +1   -0.5925749 +1    15    14    13
  N     1.36058684 +1  120.3362454 +1   -0.0054846 +1    16    15    14
  H     1.09499001 +1  119.8900854 +1  140.3681447 +1    13    12     8
  H     1.09228781 +1  120.6319307 +1 -179.1153856 +1    14    13    12
  H     1.10162968 +1  120.5953655 +1  179.9161837 +1    15    14    13
  H     1.09483787 +1  106.4562459 +1  133.3634984 +1     1     2     3
  H     1.10165726 +1  106.9268609 +1  139.9071562 +1    10     6     1
  H     1.10920578 +1  121.8675465 +1 -179.7245720 +1    16    15    14
  H     1.10392753 +1   74.1768994 +1   83.4341685 +1    12     8     7
  H     1.54347505 +1  136.2263025 +1  -86.7356542 +1     8     7     3
  H     1.07263371 +1  119.4478149 +1 -178.7093461 +1    17    16    15
  O     0.96903244 +1   37.7324236 +1 -166.2692960 +1    25     8     7

 TIME=     1.20
  REACTANTS AND PRODUCTS SWAPPED AROUND
 *+*+*+*+*+*+*+*+*+*+*+*+*+*+*+*+*+*+*+*+*+*+*+*+*+*+*+*+*+*+*+*+*+*+*+*+*+*+*+*+
            BAR SHORTENED BY       1.000 PERCENT
 GRADIENT CRITERION IN FLEPO =    10.000


          FOR POINT   14 FIRST  STRUCTURE
 DISTANCE A - B      3.809773
 HEAT              -78.968448
 GRADIENT NORM      11.187626
 DIRECTION COSINE   -0.027878
* ===============================
* Input file for Mopac
* ===============================
 PM7 BONDS AUX DUMP=30M ITRY=15000 T=14D CHARGE=0 SINGLET eps=78.4 RELSCF=1


  C     0.00000000 +0    0.0000000 +0    0.0000000 +0     0     0     0
  H     1.09938074 +1    0.0000000 +0    0.0000000 +0     1     0     0
  N     2.45650831 +1   91.8756066 +1    0.0000000 +0     1     2     0
  O     1.22450071 +1  101.2017521 +1    4.8160132 +1     3     1     2
  O     1.22285510 +1  126.7662331 +1 -140.2813521 +1     3     1     2
  H     2.82204083 +1  152.3525684 +1   73.1364601 +1     1     2     3
  C     1.49489470 +1   35.9489423 +1  128.2047072 +1     3     1     2
  H     1.13103263 +1  106.6300378 +1 -118.0026286 +1     7     3     1
  H     1.09767735 +1  107.7087645 +1  -96.1548865 +1     1     2     3
  C     1.10039563 +1   63.2487765 +1  -95.4182641 +1     6     1     2
  H     1.09942742 +1  107.0880727 +1  -92.8695207 +1    10     6     1
  C     4.61448736 +1  167.0114075 +1  136.5970439 +1     8     7     3
  C     1.39821676 +1  161.7856823 +1 -121.6199868 +1    12     8     7
  C     1.39364716 +1  118.5798336 +1  -57.1397045 +1    13    12     8
  C     1.39501607 +1  119.3099701 +1    0.6565816 +1    14    13    12
  C     1.39654015 +1  118.6270596 +1   -0.9778215 +1    15    14    13
  N     1.34757225 +1  122.2772182 +1    0.6711892 +1    16    15    14
  H     1.08894214 +1  120.4274103 +1  122.6749426 +1    13    12     8
  H     1.09164412 +1  120.3258207 +1 -179.8014463 +1    14    13    12
  H     1.08925196 +1  120.8103926 +1  179.5409680 +1    15    14    13
  H     1.10359483 +1  106.4881319 +1  149.7246106 +1     1     2     3
  H     1.10020506 +1  107.1007569 +1  152.9366531 +1    10     6     1
  H     1.09885405 +1  121.6835659 +1 -179.4787551 +1    16    15    14
  H     1.09824041 +1   69.3245873 +1    8.6176067 +1    12     8     7
  H     2.33849214 +1  118.1434815 +1 -112.0403849 +1     8     7     3
  H     1.52696411 +1   78.7306607 +1 -161.1584175 +1    25     8     7
  O     0.96060174 +1   79.2461686 +1 -122.5354380 +1    25     8     7

 TIME=     0.30
  REACTANTS AND PRODUCTS SWAPPED AROUND
 *+*+*+*+*+*+*+*+*+*+*+*+*+*+*+*+*+*+*+*+*+*+*+*+*+*+*+*+*+*+*+*+*+*+*+*+*+*+*+*+
            BAR SHORTENED BY       1.000 PERCENT
 GRADIENT CRITERION IN FLEPO =     8.188


          FOR POINT   15 SECOND STRUCTURE
 DISTANCE A - B      3.771675
 HEAT              -72.979961
 GRADIENT NORM      13.238886
 DIRECTION COSINE   -0.003432
* ===============================
* Input file for Mopac
* ===============================
 PM7 BONDS AUX DUMP=30M ITRY=15000 T=14D CHARGE=0 SINGLET eps=78.4 RELSCF=1


  C     0.00000000 +0    0.0000000 +0    0.0000000 +0     0     0     0
  H     1.09806820 +1    0.0000000 +0    0.0000000 +0     1     0     0
  N     2.44661957 +1   87.2153191 +1    0.0000000 +0     1     2     0
  O     1.26910030 +1   91.2677200 +1  -16.9834732 +1     3     1     2
  O     1.27008639 +1  152.1658246 +1  164.9437835 +1     3     1     2
  H     2.70661055 +1  147.3959700 +1   65.6669564 +1     1     2     3
  C     1.32402703 +1   31.3577919 +1  158.4109187 +1     3     1     2
  H     2.18042919 +1   83.5686735 +1  -86.0831560 +1     7     3     1
  H     1.10249484 +1  107.7456764 +1 -111.6964455 +1     1     2     3
  C     1.09786993 +1   70.6672831 +1  -92.3623918 +1     6     1     2
  H     1.09496499 +1  106.7628140 +1 -105.2118303 +1    10     6     1
  C     3.92862729 +1  134.4912813 +1   67.8315908 +1     8     7     3
  C     1.39146157 +1  159.8143315 +1  -62.2581771 +1    12     8     7
  C     1.39399140 +1  119.5213095 +1  -40.1940896 +1    13    12     8
  C     1.39478306 +1  119.2029581 +1    0.6893540 +1    14    13    12
  C     1.39438886 +1  119.5940998 +1   -0.8837872 +1    15    14    13
  N     1.35920197 +1   45.0810182 +1 -113.8192096 +1    12     8     7
  H     1.10036067 +1  119.6064392 +1  140.5324135 +1    13    12     8
  H     1.09643031 +1  120.5769604 +1 -179.4578893 +1    14    13    12
  H     1.09716680 +1  120.7002735 +1  179.8421308 +1    15    14    13
  H     1.10060609 +1  106.8130333 +1  133.4793657 +1     1     2     3
  H     1.10111315 +1  107.0234147 +1  139.6955616 +1    10     6     1
  H     1.10487257 +1  121.9418068 +1 -179.7130906 +1    16    15    14
  H     1.10867056 +1   74.3313944 +1   83.2458019 +1    12     8     7
  H     1.54719803 +1  136.2310571 +1  -87.1737820 +1     8     7     3
  H     1.07252398 +1  119.8659344 +1  -19.6672531 +1    17    12     8
  O     0.97006854 +1   37.6740394 +1 -164.6929528 +1    25     8     7

 TIME=     0.80
  REACTANTS AND PRODUCTS SWAPPED AROUND
 *+*+*+*+*+*+*+*+*+*+*+*+*+*+*+*+*+*+*+*+*+*+*+*+*+*+*+*+*+*+*+*+*+*+*+*+*+*+*+*+
            BAR SHORTENED BY       1.000 PERCENT
 GRADIENT CRITERION IN FLEPO =    10.000


          FOR POINT   16 FIRST  STRUCTURE
 DISTANCE A - B      3.733958
 HEAT              -78.982696
 GRADIENT NORM      11.850355
 DIRECTION COSINE   -0.023482
* ===============================
* Input file for Mopac
* ===============================
 PM7 BONDS AUX DUMP=30M ITRY=15000 T=14D CHARGE=0 SINGLET eps=78.4 RELSCF=1


  C     0.00000000 +0    0.0000000 +0    0.0000000 +0     0     0     0
  H     1.10053082 +1    0.0000000 +0    0.0000000 +0     1     0     0
  N     2.46079491 +1   91.9640668 +1    0.0000000 +0     1     2     0
  O     1.22258294 +1  101.0368286 +1    4.4621635 +1     3     1     2
  O     1.22361553 +1  127.3035030 +1 -140.3591638 +1     3     1     2
  H     2.81928574 +1  152.2309724 +1   73.3571209 +1     1     2     3
  C     1.49922866 +1   35.8190958 +1  128.1156166 +1     3     1     2
  H     1.13226991 +1  106.3142102 +1 -118.0596238 +1     7     3     1
  H     1.09579980 +1  107.8239593 +1  -95.8719125 +1     1     2     3
  C     1.10090901 +1   63.4342081 +1  -95.8074503 +1     6     1     2
  H     1.09721208 +1  107.3651418 +1  -92.8545790 +1    10     6     1
  C     4.60912535 +1  166.7791672 +1  135.1325414 +1     8     7     3
  C     1.39857426 +1  161.7639264 +1 -120.0985363 +1    12     8     7
  C     1.39456279 +1  118.5354012 +1  -56.9795649 +1    13    12     8
  C     1.39323832 +1  119.3875497 +1    0.5204609 +1    14    13    12
  C     1.39876937 +1  118.6107582 +1   -0.7817823 +1    15    14    13
  N     1.35008425 +1  122.3917743 +1    0.3393991 +1    16    15    14
  H     1.08887960 +1  120.3966393 +1  122.7743286 +1    13    12     8
  H     1.09116047 +1  120.2865966 +1  179.9929802 +1    14    13    12
  H     1.09143294 +1  121.0290356 +1  179.4064857 +1    15    14    13
  H     1.10544804 +1  106.3518809 +1  149.9045698 +1     1     2     3
  H     1.10301353 +1  106.6920362 +1  152.6022092 +1    10     6     1
  H     1.09601725 +1  121.9526151 +1 -179.5132956 +1    16    15    14
  H     1.09925828 +1   69.3589779 +1   10.2067813 +1    12     8     7
  H     2.33158124 +1  118.4878008 +1 -111.8767657 +1     8     7     3
  H     1.53077502 +1   78.7751125 +1 -161.2394556 +1    25     8     7
  O     0.95917613 +1   78.5693161 +1 -122.5059243 +1    25     8     7

 TIME=     0.77
  REACTANTS AND PRODUCTS SWAPPED AROUND
 *+*+*+*+*+*+*+*+*+*+*+*+*+*+*+*+*+*+*+*+*+*+*+*+*+*+*+*+*+*+*+*+*+*+*+*+*+*+*+*+
            BAR SHORTENED BY       1.000 PERCENT
 GRADIENT CRITERION IN FLEPO =     8.850


          FOR POINT   17 SECOND STRUCTURE
 DISTANCE A - B      3.696619
 HEAT              -72.882976
 GRADIENT NORM      14.219843
 DIRECTION COSINE   -0.018625
* ===============================
* Input file for Mopac
* ===============================
 PM7 BONDS AUX DUMP=30M ITRY=15000 T=14D CHARGE=0 SINGLET eps=78.4 RELSCF=1


  C     0.00000000 +0    0.0000000 +0    0.0000000 +0     0     0     0
  H     1.10058223 +1    0.0000000 +0    0.0000000 +0     1     0     0
  N     2.44953786 +1   87.0279221 +1    0.0000000 +0     1     2     0
  O     1.26835258 +1   91.4125000 +1  -16.7758904 +1     3     1     2
  O     1.27083047 +1  151.8304078 +1  165.9013385 +1     3     1     2
  H     2.70522465 +1  147.1818207 +1   65.3972711 +1     1     2     3
  C     1.32573554 +1   31.2627503 +1  158.4393440 +1     3     1     2
  H     2.18172876 +1   83.5078389 +1  -86.3719614 +1     7     3     1
  H     1.09854004 +1  107.7538593 +1 -111.9339318 +1     1     2     3
  C     1.09646978 +1   70.5438809 +1  -92.2533830 +1     6     1     2
  H     1.09932231 +1  107.1429332 +1 -105.1275964 +1    10     6     1
  C     3.92738913 +1  134.6709188 +1   68.1501729 +1     8     7     3
  C     1.39490141 +1  159.8757778 +1  -62.8309768 +1    12     8     7
  C     1.39696124 +1  119.4439776 +1  -39.8914821 +1    13    12     8
  C     1.39530874 +1  119.2374284 +1   -0.0248840 +1    14    13    12
  C     1.39543464 +1  119.4512889 +1    0.4288386 +1    15    14    13
  N     1.36047056 +1  120.6821562 +1   -0.9347640 +1    16    15    14
  H     1.09475270 +1  119.6638603 +1  140.5368178 +1    13    12     8
  H     1.09607945 +1  120.3646584 +1 -179.5143770 +1    14    13    12
  H     1.09375913 +1  120.6461288 +1  179.1417357 +1    15    14    13
  H     1.10528384 +1  106.7086593 +1  133.5547234 +1     1     2     3
  H     1.10246714 +1  106.9973902 +1  139.9085038 +1    10     6     1
  H     1.10265195 +1  121.5482574 +1  179.8979348 +1    16    15    14
  H     1.10398503 +1   74.5652512 +1   82.9643974 +1    12     8     7
  H     1.54894221 +1  136.0690750 +1  -87.5816537 +1     8     7     3
  H     1.07166247 +1  119.5462034 +1 -178.1196275 +1    17    16    15
  O     0.97160622 +1   37.7979152 +1 -163.5183713 +1    25     8     7

 TIME=     1.30
  REACTANTS AND PRODUCTS SWAPPED AROUND
 *+*+*+*+*+*+*+*+*+*+*+*+*+*+*+*+*+*+*+*+*+*+*+*+*+*+*+*+*+*+*+*+*+*+*+*+*+*+*+*+
            BAR SHORTENED BY       1.000 PERCENT
 GRADIENT CRITERION IN FLEPO =    10.000


          FOR POINT   18 FIRST  STRUCTURE
 DISTANCE A - B      3.659653
 HEAT              -79.051869
 GRADIENT NORM       6.735748
 DIRECTION COSINE    0.229971
* ===============================
* Input file for Mopac
* ===============================
 PM7 BONDS AUX DUMP=30M ITRY=15000 T=14D CHARGE=0 SINGLET eps=78.4 RELSCF=1


  C     0.00000000 +0    0.0000000 +0    0.0000000 +0     0     0     0
  H     1.09944027 +1    0.0000000 +0    0.0000000 +0     1     0     0
  N     2.46285514 +1   91.9538896 +1    0.0000000 +0     1     2     0
  O     1.22409833 +1  100.8302982 +1    4.0796801 +1     3     1     2
  O     1.22061066 +1  127.5091086 +1 -141.0000381 +1     3     1     2
  H     2.81714910 +1  152.2348905 +1   73.3833887 +1     1     2     3
  C     1.49797415 +1   35.7860420 +1  128.0386310 +1     3     1     2
  H     1.13291235 +1  106.3951813 +1 -117.9747922 +1     7     3     1
  H     1.09785412 +1  107.9201726 +1  -95.9378075 +1     1     2     3
  C     1.10242741 +1   63.5656530 +1  -95.4668284 +1     6     1     2
  H     1.09947729 +1  107.0073378 +1  -92.7856671 +1    10     6     1
  C     4.60352841 +1  166.8421417 +1  133.0823072 +1     8     7     3
  C     1.39761774 +1  161.6242325 +1 -117.7711802 +1    12     8     7
  C     1.39422951 +1  118.5836883 +1  -57.3119605 +1    13    12     8
  C     1.39351662 +1  119.3764504 +1    0.6079126 +1    14    13    12
  C     1.39930636 +1  118.5397049 +1   -0.6724816 +1    15    14    13
  N     1.34803216 +1  122.3101422 +1    0.1476076 +1    16    15    14
  H     1.09029200 +1  120.4667642 +1  122.8908685 +1    13    12     8
  H     1.09324727 +1  120.3558928 +1 -179.7253537 +1    14    13    12
  H     1.08964827 +1  121.0847380 +1  179.2610876 +1    15    14    13
  H     1.10205524 +1  106.4404928 +1  149.8619942 +1     1     2     3
  H     1.10002836 +1  107.0447935 +1  152.6449626 +1    10     6     1
  H     1.10040661 +1  121.8238343 +1 -179.7942994 +1    16    15    14
  H     1.09817885 +1   69.4850919 +1   12.3024963 +1    12     8     7
  H     2.32567742 +1  118.8393251 +1 -111.6311384 +1     8     7     3
  H     1.53135329 +1   78.5889903 +1 -161.6203764 +1    25     8     7
  O     0.95995155 +1   78.2271926 +1 -122.9214984 +1    25     8     7

 *+*+*+*+*+*+*+*+*+*+*+*+*+*+*+*+*+*+*+*+*+*+*+*+*+*+*+*+*+*+*+*+*+*+*+*+*+*+*+*+
            BAR SHORTENED BY       1.000 PERCENT
 GRADIENT CRITERION IN FLEPO =     3.736


          FOR POINT   19 FIRST  STRUCTURE
 DISTANCE A - B      3.623056
 HEAT              -79.010006
 GRADIENT NORM       7.508350
 DIRECTION COSINE    0.216784
* ===============================
* Input file for Mopac
* ===============================
 PM7 BONDS AUX DUMP=30M ITRY=15000 T=14D CHARGE=0 SINGLET eps=78.4 RELSCF=1


  C     0.00000000 +0    0.0000000 +0    0.0000000 +0     0     0     0
  H     1.10364941 +1    0.0000000 +0    0.0000000 +0     1     0     0
  N     2.46409955 +1   92.0104112 +1    0.0000000 +0     1     2     0
  O     1.22222710 +1  100.6497455 +1    3.7335432 +1     3     1     2
  O     1.22132638 +1  127.6569436 +1 -141.4776782 +1     3     1     2
  H     2.81418299 +1  152.1437334 +1   73.4571690 +1     1     2     3
  C     1.49840667 +1   35.7401223 +1  127.9107102 +1     3     1     2
  H     1.13223460 +1  106.3684418 +1 -117.9683563 +1     7     3     1
  H     1.09750511 +1  108.0078117 +1  -96.1047069 +1     1     2     3
  C     1.09731612 +1   63.6242152 +1  -95.7321211 +1     6     1     2
  H     1.09692158 +1  107.3670936 +1  -92.9741980 +1    10     6     1
  C     4.59975838 +1  166.8079019 +1  131.2059393 +1     8     7     3
  C     1.39838447 +1  161.6012466 +1 -116.0077318 +1    12     8     7
  C     1.39367352 +1  118.5295025 +1  -56.8253879 +1    13    12     8
  C     1.39273027 +1  119.4673805 +1    0.0700345 +1    14    13    12
  C     1.39919133 +1  118.5516983 +1   -0.1888299 +1    15    14    13
  N     1.34752141 +1  122.2266591 +1   -0.0478393 +1    16    15    14
  H     1.08880674 +1  120.3945978 +1  122.9969010 +1    13    12     8
  H     1.09310366 +1  120.2267900 +1 -179.5025355 +1    14    13    12
  H     1.08658478 +1  121.0760685 +1  179.5246757 +1    15    14    13
  H     1.10212717 +1  106.3793102 +1  149.7912619 +1     1     2     3
  H     1.10203914 +1  107.0861678 +1  152.4258993 +1    10     6     1
  H     1.09866760 +1  121.7703574 +1 -179.9867195 +1    16    15    14
  H     1.09907936 +1   69.4138546 +1   14.2740117 +1    12     8     7
  H     2.32056858 +1  119.2055695 +1 -111.4288441 +1     8     7     3
  H     1.53080549 +1   78.1414889 +1 -162.0130583 +1    25     8     7
  O     0.96042917 +1   77.8731720 +1 -123.2167297 +1    25     8     7

 *+*+*+*+*+*+*+*+*+*+*+*+*+*+*+*+*+*+*+*+*+*+*+*+*+*+*+*+*+*+*+*+*+*+*+*+*+*+*+*+
            BAR SHORTENED BY       1.000 PERCENT
 GRADIENT CRITERION IN FLEPO =     4.508


          FOR POINT   20 FIRST  STRUCTURE
 DISTANCE A - B      3.586826
 HEAT              -78.949198
 GRADIENT NORM       8.674724
 DIRECTION COSINE    0.128648
* ===============================
* Input file for Mopac
* ===============================
 PM7 BONDS AUX DUMP=30M ITRY=15000 T=14D CHARGE=0 SINGLET eps=78.4 RELSCF=1


  C     0.00000000 +0    0.0000000 +0    0.0000000 +0     0     0     0
  H     1.09893770 +1    0.0000000 +0    0.0000000 +0     1     0     0
  N     2.46989254 +1   92.0168842 +1    0.0000000 +0     1     2     0
  O     1.22177087 +1  100.3200203 +1    3.3970539 +1     3     1     2
  O     1.21931432 +1  127.5965374 +1 -141.7322541 +1     3     1     2
  H     2.81710364 +1  152.2333460 +1   73.3864144 +1     1     2     3
  C     1.50440045 +1   35.7012226 +1  128.0190091 +1     3     1     2
  H     1.13014059 +1  106.1841074 +1 -117.8223250 +1     7     3     1
  H     1.09657635 +1  107.9698211 +1  -96.0709495 +1     1     2     3
  C     1.10085228 +1   63.5512016 +1  -95.5433963 +1     6     1     2
  H     1.09919510 +1  107.1173386 +1  -92.9418736 +1    10     6     1
  C     4.59525304 +1  166.7679767 +1  129.9001422 +1     8     7     3
  C     1.39740725 +1  161.4840538 +1 -114.5784524 +1    12     8     7
  C     1.39415678 +1  118.6104875 +1  -57.1038658 +1    13    12     8
  C     1.39350812 +1  119.3378652 +1    0.4254701 +1    14    13    12
  C     1.39957085 +1  118.6323119 +1   -0.4390999 +1    15    14    13
  N     1.34757917 +1  122.2181955 +1    0.2341657 +1    16    15    14
  H     1.09096221 +1  120.4886343 +1  123.0024554 +1    13    12     8
  H     1.09401171 +1  120.3927647 +1 -179.6436812 +1    14    13    12
  H     1.08870180 +1  120.9840609 +1  179.4507028 +1    15    14    13
  H     1.10213457 +1  106.4685376 +1  149.7117995 +1     1     2     3
  H     1.10049877 +1  107.0768188 +1  152.5988770 +1    10     6     1
  H     1.09866217 +1  121.6990403 +1 -179.8229922 +1    16    15    14
  H     1.09894345 +1   69.3840232 +1   15.7329865 +1    12     8     7
  H     2.31686164 +1  119.4514873 +1 -111.2434772 +1     8     7     3
  H     1.53267639 +1   78.0768295 +1 -162.2482992 +1    25     8     7
  O     0.96029422 +1   77.2253197 +1 -123.3976167 +1    25     8     7

 TIME=     3.57
  REACTANTS AND PRODUCTS SWAPPED AROUND
 *+*+*+*+*+*+*+*+*+*+*+*+*+*+*+*+*+*+*+*+*+*+*+*+*+*+*+*+*+*+*+*+*+*+*+*+*+*+*+*+
            BAR SHORTENED BY       0.000 PERCENT
 GRADIENT CRITERION IN FLEPO =     5.675


          FOR POINT   21 SECOND STRUCTURE
 DISTANCE A - B      3.586826
 HEAT              -73.114759
 GRADIENT NORM      12.713867
 DIRECTION COSINE    0.218570
* ===============================
* Input file for Mopac
* ===============================
 PM7 BONDS AUX DUMP=30M ITRY=15000 T=14D CHARGE=0 SINGLET eps=78.4 RELSCF=1


  C     0.00000000 +0    0.0000000 +0    0.0000000 +0     0     0     0
  H     1.09788021 +1    0.0000000 +0    0.0000000 +0     1     0     0
  N     2.45128068 +1   87.1344090 +1    0.0000000 +0     1     2     0
  O     1.27241620 +1   91.3035542 +1  -18.0187030 +1     3     1     2
  O     1.27142680 +1  152.2041144 +1  165.5756333 +1     3     1     2
  H     2.70253075 +1  147.3125877 +1   65.4951084 +1     1     2     3
  C     1.32340712 +1   31.2594512 +1  158.7351735 +1     3     1     2
  H     2.17725015 +1   83.8395425 +1  -87.1754433 +1     7     3     1
  H     1.10207375 +1  107.3984919 +1 -111.7836157 +1     1     2     3
  C     1.09932976 +1   70.8690323 +1  -92.3592280 +1     6     1     2
  H     1.09931880 +1  107.2015590 +1 -105.1462927 +1    10     6     1
  C     3.96088532 +1  133.3041681 +1   68.2854743 +1     8     7     3
  C     1.39249866 +1  159.7232222 +1  -63.9379218 +1    12     8     7
  C     1.39446558 +1  119.6646870 +1  -39.2326285 +1    13    12     8
  C     1.39589331 +1  119.1314262 +1    0.5917034 +1    14    13    12
  C     1.39048397 +1  119.5922272 +1   -0.2433967 +1    15    14    13
  N     1.36090198 +1   45.0452998 +1 -113.9737052 +1    12     8     7
  H     1.09445181 +1  119.7356733 +1  141.3664416 +1    13    12     8
  H     1.09695444 +1  120.2686111 +1 -179.5858528 +1    14    13    12
  H     1.09704385 +1  120.6140621 +1  179.2706795 +1    15    14    13
  H     1.09959169 +1  106.8379240 +1  133.6639426 +1     1     2     3
  H     1.09837514 +1  107.2178995 +1  139.7646698 +1    10     6     1
  H     1.10549701 +1  121.8103830 +1  179.9738675 +1    16    15    14
  H     1.10283342 +1   74.3709009 +1   82.5704203 +1    12     8     7
  H     1.52593205 +1  137.6999273 +1  -88.4341515 +1     8     7     3
  H     1.06280590 +1  119.4445432 +1  -18.8702628 +1    17    12     8
  O     0.96991386 +1   38.6678710 +1 -165.2955082 +1    25     8     7

 TIME=     1.16
  REACTANTS AND PRODUCTS SWAPPED AROUND
 *+*+*+*+*+*+*+*+*+*+*+*+*+*+*+*+*+*+*+*+*+*+*+*+*+*+*+*+*+*+*+*+*+*+*+*+*+*+*+*+
            BAR SHORTENED BY       1.000 PERCENT
 GRADIENT CRITERION IN FLEPO =     9.714


          FOR POINT   22 FIRST  STRUCTURE
 DISTANCE A - B      3.550957
 HEAT              -78.793946
 GRADIENT NORM       8.702775
 DIRECTION COSINE    0.312414
* ===============================
* Input file for Mopac
* ===============================
 PM7 BONDS AUX DUMP=30M ITRY=15000 T=14D CHARGE=0 SINGLET eps=78.4 RELSCF=1


  C     0.00000000 +0    0.0000000 +0    0.0000000 +0     0     0     0
  H     1.10479282 +1    0.0000000 +0    0.0000000 +0     1     0     0
  N     2.46834019 +1   92.0920121 +1    0.0000000 +0     1     2     0
  O     1.22203951 +1  100.2809466 +1    3.0309116 +1     3     1     2
  O     1.21960135 +1  127.8500427 +1 -142.2834945 +1     3     1     2
  H     2.81275667 +1  152.1161925 +1   73.5483005 +1     1     2     3
  C     1.49959616 +1   35.6228691 +1  127.9407302 +1     3     1     2
  H     1.13524778 +1  106.2379160 +1 -117.8916439 +1     7     3     1
  H     1.09604870 +1  108.0495425 +1  -96.2691775 +1     1     2     3
  C     1.09913083 +1   63.6965322 +1  -95.8139102 +1     6     1     2
  H     1.09835066 +1  107.2492332 +1  -92.9759561 +1    10     6     1
  C     4.58849486 +1  166.6885103 +1  127.4691350 +1     8     7     3
  C     1.39768679 +1  161.4831649 +1 -112.1279979 +1    12     8     7
  C     1.39422154 +1  118.6065418 +1  -56.9286491 +1    13    12     8
  C     1.39380700 +1  119.3223247 +1    0.3763776 +1    14    13    12
  C     1.39933463 +1  118.6557929 +1   -0.4057793 +1    15    14    13
  N     1.34742125 +1  122.1811394 +1    0.1997565 +1    16    15    14
  H     1.09006096 +1  120.4694680 +1  123.1080109 +1    13    12     8
  H     1.09284596 +1  120.3866283 +1 -179.6639490 +1    14    13    12
  H     1.08892662 +1  120.9933790 +1  179.4998400 +1    15    14    13
  H     1.10178194 +1  106.3210778 +1  149.6310524 +1     1     2     3
  H     1.10141298 +1  107.1999751 +1  152.5708754 +1    10     6     1
  H     1.09879364 +1  121.6831291 +1 -179.8151411 +1    16    15    14
  H     1.09860325 +1   69.4772108 +1   18.3190786 +1    12     8     7
  H     2.30977551 +1  119.8848476 +1 -110.9554075 +1     8     7     3
  H     1.53609692 +1   77.9789982 +1 -162.6801525 +1    25     8     7
  O     0.95933434 +1   76.8518196 +1 -123.7867226 +1    25     8     7

 *+*+*+*+*+*+*+*+*+*+*+*+*+*+*+*+*+*+*+*+*+*+*+*+*+*+*+*+*+*+*+*+*+*+*+*+*+*+*+*+
            BAR SHORTENED BY       1.000 PERCENT
 GRADIENT CRITERION IN FLEPO =     5.703


          FOR POINT   23 FIRST  STRUCTURE
 DISTANCE A - B      3.515448
 HEAT              -78.768118
 GRADIENT NORM       6.202003
 DIRECTION COSINE    0.204487
* ===============================
* Input file for Mopac
* ===============================
 PM7 BONDS AUX DUMP=30M ITRY=15000 T=14D CHARGE=0 SINGLET eps=78.4 RELSCF=1


  C     0.00000000 +0    0.0000000 +0    0.0000000 +0     0     0     0
  H     1.09891603 +1    0.0000000 +0    0.0000000 +0     1     0     0
  N     2.46663642 +1   92.1194987 +1    0.0000000 +0     1     2     0
  O     1.22207272 +1  100.2552448 +1    2.8301416 +1     3     1     2
  O     1.22173178 +1  128.1322857 +1 -142.6197199 +1     3     1     2
  H     2.81226398 +1  152.2151278 +1   73.5109590 +1     1     2     3
  C     1.49979655 +1   35.7383489 +1  127.9620402 +1     3     1     2
  H     1.13154517 +1  106.2680584 +1 -117.8092804 +1     7     3     1
  H     1.09735441 +1  107.9967805 +1  -96.3956279 +1     1     2     3
  C     1.09932225 +1   63.8416112 +1  -95.7452271 +1     6     1     2
  H     1.09865378 +1  107.2326351 +1  -92.8830775 +1    10     6     1
  C     4.58474172 +1  166.6311174 +1  125.8176052 +1     8     7     3
  C     1.39819510 +1  161.4962821 +1 -110.6347103 +1    12     8     7
  C     1.39437269 +1  118.5658898 +1  -56.8020571 +1    13    12     8
  C     1.39338955 +1  119.3500108 +1    0.3448580 +1    14    13    12
  C     1.39934850 +1  118.6647305 +1   -0.3957844 +1    15    14    13
  N     1.34734502 +1  122.1399108 +1    0.1645053 +1    16    15    14
  H     1.08860120 +1  120.4464576 +1  123.1401372 +1    13    12     8
  H     1.08986809 +1  120.3293322 +1  179.8927899 +1    14    13    12
  H     1.08909170 +1  121.0351183 +1  179.5442957 +1    15    14    13
  H     1.10230154 +1  106.4054525 +1  149.6152858 +1     1     2     3
  H     1.09830592 +1  107.3673432 +1  152.3903809 +1    10     6     1
  H     1.09995185 +1  121.7067445 +1 -179.7857529 +1    16    15    14
  H     1.09862329 +1   69.5375036 +1   19.9241884 +1    12     8     7
  H     2.30527956 +1  120.1889477 +1 -110.8463284 +1     8     7     3
  H     1.53655881 +1   77.8957357 +1 -162.8914530 +1    25     8     7
  O     0.96026923 +1   76.4421402 +1 -124.1555909 +1    25     8     7

 *+*+*+*+*+*+*+*+*+*+*+*+*+*+*+*+*+*+*+*+*+*+*+*+*+*+*+*+*+*+*+*+*+*+*+*+*+*+*+*+
            BAR SHORTENED BY       1.000 PERCENT
 GRADIENT CRITERION IN FLEPO =     3.202


          FOR POINT   24 FIRST  STRUCTURE
 DISTANCE A - B      3.480293
 HEAT              -78.779546
 GRADIENT NORM       7.062238
 DIRECTION COSINE    0.397550
* ===============================
* Input file for Mopac
* ===============================
 PM7 BONDS AUX DUMP=30M ITRY=15000 T=14D CHARGE=0 SINGLET eps=78.4 RELSCF=1


  C     0.00000000 +0    0.0000000 +0    0.0000000 +0     0     0     0
  H     1.09661806 +1    0.0000000 +0    0.0000000 +0     1     0     0
  N     2.46620777 +1   91.8034530 +1    0.0000000 +0     1     2     0
  O     1.22179424 +1  100.2635118 +1    2.4549440 +1     3     1     2
  O     1.22048931 +1  128.3917994 +1 -142.6884886 +1     3     1     2
  H     2.81659071 +1  152.1962274 +1   73.0022554 +1     1     2     3
  C     1.49935287 +1   35.6971046 +1  128.1200052 +1     3     1     2
  H     1.13151151 +1  106.1312350 +1 -117.7432755 +1     7     3     1
  H     1.09669264 +1  108.0082879 +1  -96.0672790 +1     1     2     3
  C     1.10029843 +1   63.6390449 +1  -95.1566080 +1     6     1     2
  H     1.09995079 +1  107.2704080 +1  -92.9812941 +1    10     6     1
  C     4.57997499 +1  166.4966049 +1  123.9469128 +1     8     7     3
  C     1.39722253 +1  161.2700885 +1 -108.5743227 +1    12     8     7
  C     1.39396782 +1  118.6283899 +1  -57.2920826 +1    13    12     8
  C     1.39440905 +1  119.3342141 +1    0.9110358 +1    14    13    12
  C     1.39836697 +1  118.5989957 +1   -0.8458615 +1    15    14    13
  N     1.34802719 +1  122.2362445 +1    0.2710327 +1    16    15    14
  H     1.08961624 +1  120.4013664 +1  123.2638032 +1    13    12     8
  H     1.09288453 +1  120.3808521 +1 -179.7401038 +1    14    13    12
  H     1.08915250 +1  121.0148740 +1  179.1760808 +1    15    14    13
  H     1.10244956 +1  106.5923889 +1  149.5601688 +1     1     2     3
  H     1.10075308 +1  107.2478313 +1  152.3519457 +1    10     6     1
  H     1.09864972 +1  121.5886506 +1 -179.6716346 +1    16    15    14
  H     1.09932470 +1   69.6781168 +1   21.8860029 +1    12     8     7
  H     2.30246514 +1  120.6846128 +1 -110.6166432 +1     8     7     3
  H     1.53451451 +1   77.6367583 +1 -163.1126977 +1    25     8     7
  O     0.96009690 +1   75.7632851 +1 -124.2087004 +1    25     8     7

 TIME=     1.51
  REACTANTS AND PRODUCTS SWAPPED AROUND
 *+*+*+*+*+*+*+*+*+*+*+*+*+*+*+*+*+*+*+*+*+*+*+*+*+*+*+*+*+*+*+*+*+*+*+*+*+*+*+*+
            BAR SHORTENED BY       0.000 PERCENT
 GRADIENT CRITERION IN FLEPO =     4.062


          FOR POINT   25 SECOND STRUCTURE
 DISTANCE A - B      3.480293
 HEAT              -73.377550
 GRADIENT NORM       9.251786
 DIRECTION COSINE   -0.032139
* ===============================
* Input file for Mopac
* ===============================
 PM7 BONDS AUX DUMP=30M ITRY=15000 T=14D CHARGE=0 SINGLET eps=78.4 RELSCF=1


  C     0.00000000 +0    0.0000000 +0    0.0000000 +0     0     0     0
  H     1.10039705 +1    0.0000000 +0    0.0000000 +0     1     0     0
  N     2.45130664 +1   86.9982262 +1    0.0000000 +0     1     2     0
  O     1.26756650 +1   91.2349366 +1  -17.6372591 +1     3     1     2
  O     1.26783031 +1  152.4577493 +1  165.2060328 +1     3     1     2
  H     2.70632904 +1  147.3479940 +1   65.3589397 +1     1     2     3
  C     1.32547425 +1   31.2199164 +1  159.2994682 +1     3     1     2
  H     2.18494549 +1   83.6816889 +1  -86.7954264 +1     7     3     1
  H     1.10072449 +1  106.9368255 +1 -112.0432344 +1     1     2     3
  C     1.09986692 +1   70.5162859 +1  -92.2560290 +1     6     1     2
  H     1.10151090 +1  107.4130380 +1 -105.3664257 +1    10     6     1
  C     3.96018257 +1  133.3886781 +1   68.2037736 +1     8     7     3
  C     1.39260845 +1  159.9250538 +1  -64.0914590 +1    12     8     7
  C     1.39560668 +1  119.4498512 +1  -38.7265321 +1    13    12     8
  C     1.39494638 +1  119.3271052 +1    0.3458939 +1    14    13    12
  C     1.39234452 +1  119.5592908 +1   -0.4023385 +1    15    14    13
  N     1.36037873 +1   44.9869675 +1 -113.8377556 +1    12     8     7
  H     1.09621235 +1  119.7277028 +1  140.9955099 +1    13    12     8
  H     1.09603886 +1  120.2376907 +1 -179.9051731 +1    14    13    12
  H     1.09465983 +1  120.6124519 +1  179.7149857 +1    15    14    13
  H     1.09763729 +1  106.8105080 +1  133.5275004 +1     1     2     3
  H     1.10183858 +1  106.9336326 +1  139.9462152 +1    10     6     1
  H     1.10565657 +1  122.0217206 +1 -179.9873688 +1    16    15    14
  H     1.10486927 +1   74.3741397 +1   82.5206092 +1    12     8     7
  H     1.53230712 +1  137.5088138 +1  -88.4655047 +1     8     7     3
  H     1.06627698 +1  119.6736889 +1  -18.6424073 +1    17    12     8
  O     0.96705162 +1   38.0610938 +1 -164.5866297 +1    25     8     7

 TIME=     0.20
  REACTANTS AND PRODUCTS SWAPPED AROUND
 *+*+*+*+*+*+*+*+*+*+*+*+*+*+*+*+*+*+*+*+*+*+*+*+*+*+*+*+*+*+*+*+*+*+*+*+*+*+*+*+
            BAR SHORTENED BY       1.000 PERCENT
 GRADIENT CRITERION IN FLEPO =     6.252


          FOR POINT   26 FIRST  STRUCTURE
 DISTANCE A - B      3.445490
 HEAT              -78.829461
 GRADIENT NORM       6.870217
 DIRECTION COSINE    0.114793
* ===============================
* Input file for Mopac
* ===============================
 PM7 BONDS AUX DUMP=30M ITRY=15000 T=14D CHARGE=0 SINGLET eps=78.4 RELSCF=1


  C     0.00000000 +0    0.0000000 +0    0.0000000 +0     0     0     0
  H     1.09919564 +1    0.0000000 +0    0.0000000 +0     1     0     0
  N     2.46522762 +1   91.7850636 +1    0.0000000 +0     1     2     0
  O     1.22334454 +1  100.1407777 +1    2.4214582 +1     3     1     2
  O     1.22100542 +1  128.6304932 +1 -142.9396780 +1     3     1     2
  H     2.81264980 +1  152.3807443 +1   72.8696352 +1     1     2     3
  C     1.50094719 +1   35.7916912 +1  128.1983693 +1     3     1     2
  H     1.12968673 +1  106.1595804 +1 -117.7084256 +1     7     3     1
  H     1.09757015 +1  107.7442508 +1  -96.2003620 +1     1     2     3
  C     1.09974242 +1   63.7296845 +1  -94.9391294 +1     6     1     2
  H     1.09856829 +1  107.2780935 +1  -92.8758896 +1    10     6     1
  C     4.57456541 +1  166.4174812 +1  122.4808182 +1     8     7     3
  C     1.39828111 +1  161.3019697 +1 -107.3595864 +1    12     8     7
  C     1.39452704 +1  118.6122106 +1  -56.9259633 +1    13    12     8
  C     1.39365707 +1  119.3284358 +1    0.5656879 +1    14    13    12
  C     1.39922810 +1  118.6456700 +1   -0.5259048 +1    15    14    13
  N     1.34750530 +1  122.1579343 +1    0.0874641 +1    16    15    14
  H     1.08665201 +1  120.4750661 +1  123.2152256 +1    13    12     8
  H     1.09131500 +1  120.3293037 +1 -179.7003360 +1    14    13    12
  H     1.08898433 +1  121.0574360 +1  179.1999520 +1    15    14    13
  H     1.10190143 +1  106.6196405 +1  149.5904142 +1     1     2     3
  H     1.10256954 +1  107.1969315 +1  152.9660796 +1    10     6     1
  H     1.09964713 +1  121.7496466 +1 -179.9008888 +1    16    15    14
  H     1.09869026 +1   69.7314976 +1   23.2909791 +1    12     8     7
  H     2.29840791 +1  120.9382342 +1 -110.5618355 +1     8     7     3
  H     1.53513370 +1   77.3125180 +1 -163.4033741 +1    25     8     7
  O     0.96033536 +1   75.2157467 +1 -124.4817295 +1    25     8     7

 *+*+*+*+*+*+*+*+*+*+*+*+*+*+*+*+*+*+*+*+*+*+*+*+*+*+*+*+*+*+*+*+*+*+*+*+*+*+*+*+
            BAR SHORTENED BY       1.000 PERCENT
 GRADIENT CRITERION IN FLEPO =     3.870
 

                    SINCE COS WAS JUST RESET,THE SEARCH IS BEING ENDED


          FOR POINT   27 FIRST  STRUCTURE
 DISTANCE A - B      3.411035
 HEAT              -78.713815
 GRADIENT NORM      10.083300
 DIRECTION COSINE    0.408820
* ===============================
* Input file for Mopac
* ===============================
 PM7 BONDS AUX DUMP=30M ITRY=15000 T=14D CHARGE=0 SINGLET eps=78.4 RELSCF=1


  C     0.00000000 +0    0.0000000 +0    0.0000000 +0     0     0     0
  H     1.09744511 +1    0.0000000 +0    0.0000000 +0     1     0     0
  N     2.46478685 +1   91.7902027 +1    0.0000000 +0     1     2     0
  O     1.22328054 +1  100.0312226 +1    2.2244419 +1     3     1     2
  O     1.21949988 +1  128.8631873 +1 -143.4014641 +1     3     1     2
  H     2.80851689 +1  152.3249597 +1   72.7741920 +1     1     2     3
  C     1.49584519 +1   35.6666295 +1  128.2837444 +1     3     1     2
  H     1.13786004 +1  106.1925495 +1 -117.7831957 +1     7     3     1
  H     1.09575356 +1  107.7424165 +1  -96.3763926 +1     1     2     3
  C     1.09922412 +1   63.8399384 +1  -94.9046696 +1     6     1     2
  H     1.09796571 +1  107.2830995 +1  -92.9713225 +1    10     6     1
  C     4.56721368 +1  166.2529092 +1  120.1597046 +1     8     7     3
  C     1.39795028 +1  161.2817610 +1 -104.9652227 +1    12     8     7
  C     1.39446571 +1  118.6153834 +1  -56.7740556 +1    13    12     8
  C     1.39359402 +1  119.3382026 +1    0.5629080 +1    14    13    12
  C     1.39889171 +1  118.6495219 +1   -0.5240285 +1    15    14    13
  N     1.34758541 +1  122.1353827 +1    0.0877883 +1    16    15    14
  H     1.08668963 +1  120.4629397 +1  123.3616658 +1    13    12     8
  H     1.09114524 +1  120.3236655 +1 -179.7034099 +1    14    13    12
  H     1.08899833 +1  121.0619489 +1  179.2039244 +1    15    14    13
  H     1.10133066 +1  106.6333422 +1  149.4690183 +1     1     2     3
  H     1.10242433 +1  107.2103136 +1  152.8790141 +1    10     6     1
  H     1.09964174 +1  121.7470446 +1 -179.9025891 +1    16    15    14
  H     1.09868586 +1   69.7829305 +1   25.8206297 +1    12     8     7
  H     2.29060318 +1  121.3610248 +1 -110.2197720 +1     8     7     3
  H     1.54027824 +1   77.2186862 +1 -163.9139770 +1    25     8     7
  O     0.95901006 +1   74.8759399 +1 -124.8603294 +1    25     8     7

 *+*+*+*+*+*+*+*+*+*+*+*+*+*+*+*+*+*+*+*+*+*+*+*+*+*+*+*+*+*+*+*+*+*+*+*+*+*+*+*+
            BAR SHORTENED BY       1.000 PERCENT
 GRADIENT CRITERION IN FLEPO =     7.083


          FOR POINT   28 FIRST  STRUCTURE
 DISTANCE A - B      3.376925
 HEAT              -78.664787
 GRADIENT NORM      13.051723
 DIRECTION COSINE    0.355185
* ===============================
* Input file for Mopac
* ===============================
 PM7 BONDS AUX DUMP=30M ITRY=15000 T=14D CHARGE=0 SINGLET eps=78.4 RELSCF=1


  C     0.00000000 +0    0.0000000 +0    0.0000000 +0     0     0     0
  H     1.09863615 +1    0.0000000 +0    0.0000000 +0     1     0     0
  N     2.46841210 +1   91.8033699 +1    0.0000000 +0     1     2     0
  O     1.22548800 +1   99.5422881 +1    1.9958240 +1     3     1     2
  O     1.22074252 +1  128.8282131 +1 -143.6811854 +1     3     1     2
  H     2.81206869 +1  152.2760498 +1   72.9916201 +1     1     2     3
  C     1.49620009 +1   35.5206162 +1  128.2815112 +1     3     1     2
  H     1.13664133 +1  106.2109848 +1 -117.8126416 +1     7     3     1
  H     1.09956517 +1  107.7843169 +1  -96.6045678 +1     1     2     3
  C     1.10382203 +1   63.6641868 +1  -95.3378772 +1     6     1     2
  H     1.09963494 +1  107.5274790 +1  -93.0946931 +1    10     6     1
  C     4.56259797 +1  166.1916029 +1  118.1302298 +1     8     7     3
  C     1.40104211 +1  161.3636603 +1 -102.7939064 +1    12     8     7
  C     1.39097420 +1  118.4537646 +1  -56.6244749 +1    13    12     8
  C     1.39427299 +1  119.5607518 +1    0.6854695 +1    14    13    12
  C     1.40016939 +1  118.4924177 +1   -0.9648085 +1    15    14    13
  N     1.34745089 +1  122.2421749 +1    0.4323703 +1    16    15    14
  H     1.08880625 +1  120.3161259 +1  123.1932446 +1    13    12     8
  H     1.09392788 +1  120.2765802 +1 -179.9507394 +1    14    13    12
  H     1.08943391 +1  121.1079028 +1  179.4147786 +1    15    14    13
  H     1.10293406 +1  106.5536425 +1  149.4546490 +1     1     2     3
  H     1.10012953 +1  107.2112385 +1  152.5052545 +1    10     6     1
[...]
  C     1.09606967 +1   67.6930462 +1  -89.7655019 +1     6     1     2
  H     1.10032785 +1  107.1055854 +1  -97.2262936 +1    10     6     1
  C     4.14555565 +1  138.6919260 +1   71.4458230 +1     8     7     3
  C     1.39774014 +1  159.8189057 +1  -65.4437985 +1    12     8     7
  C     1.39461409 +1  119.1520458 +1  -41.9917184 +1    13    12     8
  C     1.39186563 +1  119.1509660 +1   -0.3795498 +1    14    13    12
  C     1.39727128 +1  119.2068772 +1    0.4208272 +1    15    14    13
  N     1.35214370 +1  121.2771479 +1   -0.0440593 +1    16    15    14
  H     1.09128656 +1  120.0967157 +1  137.6473147 +1    13    12     8
  H     1.09458912 +1  120.2970335 +1  179.4247011 +1    14    13    12
  H     1.09174994 +1  120.8293368 +1 -179.7562255 +1    15    14    13
  H     1.09817937 +1  106.8477166 +1  143.9831888 +1     1     2     3
  H     1.09730632 +1  107.4852411 +1  148.2856579 +1    10     6     1
  H     1.10159664 +1  121.6588152 +1 -179.9832800 +1    16    15    14
  H     1.10051866 +1   74.0131326 +1   78.3862139 +1    12     8     7
  H     1.75533027 +1  148.4493400 +1  -90.0198038 +1     8     7     3
  H     1.37448047 +1  120.9978429 +1  178.6938432 +1    17    16    15
  O     0.96550710 +1   42.3161798 +1 -167.1380767 +1    25     8     7

 *+*+*+*+*+*+*+*+*+*+*+*+*+*+*+*+*+*+*+*+*+*+*+*+*+*+*+*+*+*+*+*+*+*+*+*+*+*+*+*+
            BAR SHORTENED BY       1.000 PERCENT
 AT END OF STEPWISE ASCENT OF REACTION BARRIER

 -------------------------------------------------------------------------------
 PM7 BONDS AUX DUMP=30M ITRY=15000 T=14D CHARGE=0 SINGLET eps=78.4 RELSCF=1




     TRANSITION STATE LOCATED USING THE "SADDLE" TECHNIQUE    
     SCF FIELD WAS ACHIEVED                                   


                              PM7 CALCULATION
                                                       MOPAC v22.0.6 Linux
                                                       Tue Mar 26 11:56:15 2024




          FINAL HEAT OF FORMATION =        -61.51910 KCAL/MOL =    -257.39593 KJ/MOL
          VAN DER WAALS AREA      =        232.91 SQUARE ANGSTROMS



          DIELECTRIC ENERGY       =         -1.36029 EV
          COSMO AREA              =        232.91 SQUARE ANGSTROMS
          COSMO VOLUME            =        247.00 CUBIC ANGSTROMS

          GRADIENT NORM           =          9.74587          =       1.87559 PER ATOM
          IONIZATION POTENTIAL    =          9.030630 EV
          HOMO LUMO ENERGIES (EV) =         -9.031 -0.849
          NO. OF FILLED LEVELS    =         37
          MOLECULAR WEIGHT        =        186.2102         POINT GROUP:  C1  

          MOLECULAR DIMENSIONS (Angstroms)

            Atom       Atom       Distance
            H    19    H    11    10.35481
            H    21    H    20     4.57568
            O     4    H    25     4.20462


          SCF CALCULATIONS        =       2407

          WALL-CLOCK TIME         =          3 MINUTES AND 24.543 SECONDS
          COMPUTATION TIME        =         39 MINUTES AND 37.410 SECONDS



       FINAL  POINT  AND  DERIVATIVES

   PARAMETER     ATOM    TYPE            VALUE        GRADIENT
      1          1  C    CARTESIAN X     0.907743     -0.639420  KCAL/ANGSTROM
      2          1  C    CARTESIAN Y    -0.574412      1.161943  KCAL/ANGSTROM
      3          1  C    CARTESIAN Z    -0.902895      0.809392  KCAL/ANGSTROM
      4          2  H    CARTESIAN X     0.894881      0.552477  KCAL/ANGSTROM
      5          2  H    CARTESIAN Y    -0.784554      0.881910  KCAL/ANGSTROM
      6          2  H    CARTESIAN Z    -1.980485      1.163627  KCAL/ANGSTROM
      7          3  N    CARTESIAN X     0.655907      0.300376  KCAL/ANGSTROM
      8          3  N    CARTESIAN Y    -2.969239      0.664216  KCAL/ANGSTROM
      9          3  N    CARTESIAN Z    -0.432755      0.018209  KCAL/ANGSTROM
     10          4  O    CARTESIAN X     0.218185      0.358226  KCAL/ANGSTROM
     11          4  O    CARTESIAN Y    -3.154878      0.636074  KCAL/ANGSTROM
     12          4  O    CARTESIAN Z    -1.582068      0.549492  KCAL/ANGSTROM
     13          5  O    CARTESIAN X     0.613243      0.100170  KCAL/ANGSTROM
     14          5  O    CARTESIAN Y    -3.924295      0.171183  KCAL/ANGSTROM
     15          5  O    CARTESIAN Z     0.366892      0.887479  KCAL/ANGSTROM
     16          6  H    CARTESIAN X     2.038140      0.809017  KCAL/ANGSTROM
     17          6  H    CARTESIAN Y    -0.647060      1.838991  KCAL/ANGSTROM
     18          6  H    CARTESIAN Z     1.594329      1.630614  KCAL/ANGSTROM
     19          7  C    CARTESIAN X     1.276712      0.459424  KCAL/ANGSTROM
     20          7  C    CARTESIAN Y    -1.779204      0.701269  KCAL/ANGSTROM
     21          7  C    CARTESIAN Z    -0.082717      1.742356  KCAL/ANGSTROM
     22          8  H    CARTESIAN X     2.699411     -0.759732  KCAL/ANGSTROM
     23          8  H    CARTESIAN Y    -2.087271      0.163694  KCAL/ANGSTROM
     24          8  H    CARTESIAN Z    -0.581433      1.133955  KCAL/ANGSTROM
     25          9  H    CARTESIAN X    -0.087716      0.449633  KCAL/ANGSTROM
     26          9  H    CARTESIAN Y    -0.196328     -0.010563  KCAL/ANGSTROM
     27          9  H    CARTESIAN Z    -0.630731      0.432740  KCAL/ANGSTROM
     28         10  C    CARTESIAN X     1.404603     -2.610746  KCAL/ANGSTROM
     29         10  C    CARTESIAN Y    -1.524443     -0.847678  KCAL/ANGSTROM
     30         10  C    CARTESIAN Z     1.393293      2.016143  KCAL/ANGSTROM
     31         11  H    CARTESIAN X     0.425102      0.889172  KCAL/ANGSTROM
     32         11  H    CARTESIAN Y    -1.325036     -0.272418  KCAL/ANGSTROM
     33         11  H    CARTESIAN Z     1.848783     -0.354329  KCAL/ANGSTROM
     34         12  C    CARTESIAN X     4.644259     -2.024886  KCAL/ANGSTROM
     35         12  C    CARTESIAN Y    -2.481670      0.834735  KCAL/ANGSTROM
     36         12  C    CARTESIAN Z    -4.164109      1.577394  KCAL/ANGSTROM
     37         13  C    CARTESIAN X     5.020344      2.102886  KCAL/ANGSTROM
     38         13  C    CARTESIAN Y    -3.002042     -0.409936  KCAL/ANGSTROM
     39         13  C    CARTESIAN Z    -5.406332     -1.848191  KCAL/ANGSTROM
     40         14  C    CARTESIAN X     5.142012      0.666476  KCAL/ANGSTROM
     41         14  C    CARTESIAN Y    -4.382787      0.289127  KCAL/ANGSTROM
     42         14  C    CARTESIAN Z    -5.556756     -1.572459  KCAL/ANGSTROM
     43         15  C    CARTESIAN X     4.896011      1.933783  KCAL/ANGSTROM
     44         15  C    CARTESIAN Y    -5.207392     -1.396403  KCAL/ANGSTROM
     45         15  C    CARTESIAN Z    -4.459177     -1.697588  KCAL/ANGSTROM
     46         16  C    CARTESIAN X     4.521601     -2.382664  KCAL/ANGSTROM
     47         16  C    CARTESIAN Y    -4.630236      1.039996  KCAL/ANGSTROM
     48         16  C    CARTESIAN Z    -3.241008      1.726457  KCAL/ANGSTROM
     49         17  N    CARTESIAN X     4.402794      2.952055  KCAL/ANGSTROM
     50         17  N    CARTESIAN Y    -3.288662     -1.061305  KCAL/ANGSTROM
     51         17  N    CARTESIAN Z    -3.103571     -0.334610  KCAL/ANGSTROM
     52         18  H    CARTESIAN X     5.206239      0.045483  KCAL/ANGSTROM
     53         18  H    CARTESIAN Y    -2.331971     -0.035822  KCAL/ANGSTROM
     54         18  H    CARTESIAN Z    -6.248642     -0.310793  KCAL/ANGSTROM
     55         19  H    CARTESIAN X     5.421146     -0.199739  KCAL/ANGSTROM
     56         19  H    CARTESIAN Y    -4.812891      0.255164  KCAL/ANGSTROM
     57         19  H    CARTESIAN Z    -6.523582     -0.053458  KCAL/ANGSTROM
     58         20  H    CARTESIAN X     4.986663      0.235642  KCAL/ANGSTROM
     59         20  H    CARTESIAN Y    -6.292984     -0.126162  KCAL/ANGSTROM
     60         20  H    CARTESIAN Z    -4.546594     -0.329064  KCAL/ANGSTROM
     61         21  H    CARTESIAN X     1.618972     -0.353139  KCAL/ANGSTROM
     62         21  H    CARTESIAN Y     0.247508      0.253573  KCAL/ANGSTROM
     63         21  H    CARTESIAN Z    -0.744662      0.771725  KCAL/ANGSTROM
     64         22  H    CARTESIAN X     1.842437     -1.156800  KCAL/ANGSTROM
     65         22  H    CARTESIAN Y    -2.373228      1.484148  KCAL/ANGSTROM
     66         22  H    CARTESIAN Z     1.929396     -0.927642  KCAL/ANGSTROM
     67         23  H    CARTESIAN X     4.326801      1.214208  KCAL/ANGSTROM
     68         23  H    CARTESIAN Y    -5.246169      0.065948  KCAL/ANGSTROM
     69         23  H    CARTESIAN Z    -2.349613     -0.142696  KCAL/ANGSTROM
     70         24  H    CARTESIAN X     4.544292      1.070431  KCAL/ANGSTROM
     71         24  H    CARTESIAN Y    -1.397856     -0.155887  KCAL/ANGSTROM
     72         24  H    CARTESIAN Z    -4.001524      0.005231  KCAL/ANGSTROM
     73         25  H    CARTESIAN X     4.234424      0.451038  KCAL/ANGSTROM
     74         25  H    CARTESIAN Y    -2.710494      0.538056  KCAL/ANGSTROM
     75         25  H    CARTESIAN Z    -0.222415      0.224364  KCAL/ANGSTROM
     76         26  H    CARTESIAN X     4.024495      0.540692  KCAL/ANGSTROM
     77         26  H    CARTESIAN Y    -2.753301     -0.257541  KCAL/ANGSTROM
     78         26  H    CARTESIAN Z    -1.959552     -0.649801  KCAL/ANGSTROM
     79         27  O    CARTESIAN X     3.802379      2.468696  KCAL/ANGSTROM
     80         27  O    CARTESIAN Y    -2.175642     -0.377054  KCAL/ANGSTROM
     81         27  O    CARTESIAN Z    -0.904282     -0.525009  KCAL/ANGSTROM




   ATOM   CHEMICAL          X               Y               Z
  NUMBER   SYMBOL      (ANGSTROMS)     (ANGSTROMS)     (ANGSTROMS)

     1       C          0.90774261  *  -0.57441178  *  -0.90289514  *
     2       H          0.89488095  *  -0.78455365  *  -1.98048464  *
     3       N          0.65590654  *  -2.96923854  *  -0.43275504  *
     4       O          0.21818459  *  -3.15487762  *  -1.58206847  *
     5       O          0.61324337  *  -3.92429471  *   0.36689246  *
     6       H          2.03814035  *  -0.64705982  *   1.59432939  *
     7       C          1.27671197  *  -1.77920421  *  -0.08271700  *
     8       H          2.69941074  *  -2.08727078  *  -0.58143330  *
     9       H         -0.08771580  *  -0.19632827  *  -0.63073070  *
    10       C          1.40460309  *  -1.52444271  *   1.39329327  *
    11       H          0.42510218  *  -1.32503566  *   1.84878253  *
    12       C          4.64425904  *  -2.48166963  *  -4.16410862  *
    13       C          5.02034424  *  -3.00204237  *  -5.40633224  *
    14       C          5.14201227  *  -4.38278708  *  -5.55675554  *
    15       C          4.89601079  *  -5.20739202  *  -4.45917743  *
    16       C          4.52160114  *  -4.63023630  *  -3.24100849  *
    17       N          4.40279412  *  -3.28866239  *  -3.10357059  *
    18       H          5.20623888  *  -2.33197099  *  -6.24864161  *
    19       H          5.42114588  *  -4.81289090  *  -6.52358242  *
    20       H          4.98666323  *  -6.29298424  *  -4.54659444  *
    21       H          1.61897173  *   0.24750833  *  -0.74466206  *
    22       H          1.84243681  *  -2.37322832  *   1.92939563  *
    23       H          4.32680130  *  -5.24616915  *  -2.34961271  *
    24       H          4.54429195  *  -1.39785598  *  -4.00152448  *
    25       H          4.23442371  *  -2.71049422  *  -0.22241478  *
    26       H          4.02449542  *  -2.75330073  *  -1.95955150  *
    27       O          3.80237878  *  -2.17564226  *  -0.90428168  *

                             CARTESIAN COORDINATES

   1    C        0.907742607    -0.574411777    -0.902895138
   2    H        0.894880952    -0.784553647    -1.980484642
   3    N        0.655906543    -2.969238536    -0.432755044
   4    O        0.218184590    -3.154877620    -1.582068473
   5    O        0.613243374    -3.924294714     0.366892459
   6    H        2.038140346    -0.647059820     1.594329393
   7    C        1.276711969    -1.779204213    -0.082717004
   8    H        2.699410737    -2.087270779    -0.581433295
   9    H       -0.087715799    -0.196328268    -0.630730698
  10    C        1.404603091    -1.524442707     1.393293266
  11    H        0.425102176    -1.325035664     1.848782529
  12    C        4.644259044    -2.481669626    -4.164108620
  13    C        5.020344242    -3.002042369    -5.406332240
  14    C        5.142012272    -4.382787077    -5.556755541
  15    C        4.896010787    -5.207392020    -4.459177428
  16    C        4.521601138    -4.630236301    -3.241008487
  17    N        4.402794120    -3.288662388    -3.103570594
  18    H        5.206238885    -2.331970993    -6.248641606
  19    H        5.421145885    -4.812890899    -6.523582423
  20    H        4.986663232    -6.292984240    -4.546594442
  21    H        1.618971726     0.247508327    -0.744662058
  22    H        1.842436806    -2.373228320     1.929395628
  23    H        4.326801296    -5.246169153    -2.349612712
  24    H        4.544291949    -1.397855977    -4.001524477
  25    H        4.234423713    -2.710494218    -0.222414780
  26    H        4.024495425    -2.753300728    -1.959551501
  27    O        3.802378784    -2.175642263    -0.904281680


           Empirical Formula: C8 H14 N2 O3  =    27 atoms



      MOLECULAR POINT GROUP   :   C1  


                  EIGENVALUES  
 -37.37821 -36.27204 -29.46535 -29.04616 -28.89130 -27.92071 -27.01061 -24.59765
 -24.02804 -22.89579 -22.60428 -19.81770 -19.45831 -17.98039 -17.45642 -17.13505
 -17.06834 -16.55182 -16.37249 -16.07961 -15.24747 -15.10797 -14.75059 -14.06374
 -13.87331 -13.50098 -13.30040 -13.24105 -13.05807 -12.28119 -11.86905 -11.51213
 -11.31397 -11.05388 -11.03399 -10.71168  -9.03063  -0.84950  -0.68342   0.39774
   1.67986   1.71614   1.85450   3.27439   3.68219   3.82692   3.85875   3.99631
   4.57873   4.58898   4.59706   5.00923   5.20656   5.39213   5.42914   5.46820
   5.65633   5.74129   5.81364   5.87147   5.90639   5.93621   5.98602   6.08605
   6.94151   7.07405


              NET ATOMIC CHARGES AND DIPOLE CONTRIBUTIONS

  ATOM NO.   TYPE          CHARGE      No. of ELECS.   s-Pop       p-Pop       
    1          C          -0.420699        4.4207     1.04725     3.37345
    2          H           0.156487        0.8435     0.84351
    3          N           0.699283        4.3007     1.44670     2.85401
    4          O          -0.612974        6.6130     1.94236     4.67062
    5          O          -0.626034        6.6260     1.94274     4.68329
    6          H           0.156647        0.8434     0.84335
    7          C          -0.301178        4.3012     1.09656     3.20462
    8          H           0.422126        0.5779     0.57787
    9          H           0.148060        0.8519     0.85194
   10          C          -0.421397        4.4214     1.04718     3.37422
   11          H           0.149972        0.8500     0.85003
   12          C           0.063304        3.9367     1.10258     2.83412
   13          C          -0.215874        4.2159     1.09275     3.12313
   14          C          -0.045736        4.0457     1.09931     2.94643
   15          C          -0.212086        4.2121     1.09298     3.11911
   16          C           0.062536        3.9375     1.10301     2.83445
   17          N          -0.352024        5.3520     1.63035     3.72168
   18          H           0.191841        0.8082     0.80816
   19          H           0.182493        0.8175     0.81751
   20          H           0.194009        0.8060     0.80599
   21          H           0.156502        0.8435     0.84350
   22          H           0.153760        0.8462     0.84624
   23          H           0.208084        0.7919     0.79192
   24          H           0.204077        0.7959     0.79592
   25          H           0.387643        0.6124     0.61236
   26          H           0.443584        0.5564     0.55642
   27          O          -0.772407        6.7724     1.81995     4.95246
 DIPOLE           X         Y         Z       TOTAL
 POINT-CHG.    13.024     1.075    -7.335    14.986
 HYBRID        -0.628    -0.587    -0.063     0.862
 SUM           12.396     0.488    -7.399    14.444


          ATOMIC ORBITAL ELECTRON POPULATIONS

     Atom    s        px        py        pz   
    1  C   1.04725   1.16798   1.07016   1.13532
    2  H   0.84351
    3  N   1.44670   0.91258   1.00757   0.93386
    4  O   1.94236   1.61775   1.90714   1.14573
    5  O   1.94274   1.73427   1.42086   1.52816
    6  H   0.84335
    7  C   1.09656   1.29504   0.88438   1.02520
    8  H   0.57787
    9  H   0.85194
   10  C   1.04718   1.18076   1.17675   1.01671
   11  H   0.85003
   12  C   1.10258   0.90486   1.03715   0.89210
   13  C   1.09275   1.02506   1.03859   1.05947
   14  C   1.09931   0.88886   0.99165   1.06591
   15  C   1.09298   1.02082   1.11288   0.98541
   16  C   1.10301   0.91236   0.87192   1.05017
   17  N   1.63035   1.28303   1.13272   1.30592
   18  H   0.80816
   19  H   0.81751
   20  H   0.80599
   21  H   0.84350
   22  H   0.84624
   23  H   0.79192
   24  H   0.79592
   25  H   0.61236
   26  H   0.55642
   27  O   1.81995   1.63308   1.75467   1.56470

          BONDING CONTRIBUTION OF EACH M.O.

  1.3710  1.3686  1.5424  0.9899  1.4803  1.4979  1.8901  1.1017  1.9658  1.8256
  1.9570  1.2657  1.7147  1.5080  1.1277  1.9513  1.6887  1.6399  1.8660  1.5529
  1.8755  2.0039  1.3313  1.6415  1.9214  1.0211  1.6593  1.8984  2.0222  1.9574
  1.3353  1.9341  0.6306  0.5293  0.3240  2.0757  1.1715 -1.9981 -1.9264 -2.3689
 -1.9631 -2.1058 -1.9269 -1.8505 -1.9239 -1.9677 -1.9703 -2.0091 -1.9094 -1.9643
 -1.9523 -1.9102 -1.9527 -1.9567 -1.9392 -1.9458 -1.9279 -1.9444 -1.9637 -1.9717
 -1.9687 -1.9227 -1.8464 -1.7293 -1.9110 -1.9104





            (VALENCIES)   BOND ORDERS

     1  C     (3.925)     7  C 0.994     9  H 0.967     2  H 0.966    21  H 0.964     5  O 0.013

     2  H     (0.976)     1  C 0.966

     3  N     (3.774)     4  O 1.306     5  O 1.294     7  C 1.106     8  H 0.017    27  O 0.015

     4  O     (1.659)     3  N 1.306     5  O 0.201     7  C 0.115    10  C 0.013

     5  O     (1.645)     3  N 1.294     4  O 0.201     7  C 0.113     1  C 0.013

     6  H     (0.975)    10  C 0.964

     7  C     (3.692)     3  N 1.106    10  C 0.996     1  C 0.994     8  H 0.291     4  O 0.115     5  O 0.113
                         27  O 0.056

     8  H     (0.822)    27  O 0.489     7  C 0.291     3  N 0.017

     9  H     (0.978)     1  C 0.967

    10  C     (3.925)     7  C 0.996    22  H 0.967    11  H 0.967     6  H 0.964     4  O 0.013

    11  H     (0.978)    10  C 0.967

    12  C     (3.913)    13  C 1.442    17  N 1.354    24  H 0.940    15  C 0.113    16  C 0.024    23  H 0.011

    13  C     (3.964)    12  C 1.442    14  C 1.435    18  H 0.950    16  C 0.113

    14  C     (3.949)    15  C 1.436    13  C 1.435    19  H 0.954    17  N 0.095

    15  C     (3.963)    16  C 1.442    14  C 1.436    20  H 0.949    12  C 0.113

    16  C     (3.910)    15  C 1.442    17  N 1.352    23  H 0.938    13  C 0.113    12  C 0.024    24  H 0.011

    17  N     (3.292)    12  C 1.354    16  C 1.352    26  H 0.384    14  C 0.095    27  O 0.065

    18  H     (0.963)    13  C 0.950

    19  H     (0.967)    14  C 0.954

    20  H     (0.962)    15  C 0.949

    21  H     (0.976)     1  C 0.964

    22  H     (0.976)    10  C 0.967

    23  H     (0.957)    16  C 0.938    12  C 0.011

    24  H     (0.958)    12  C 0.940    16  C 0.011

    25  H     (0.850)    27  O 0.838

    26  H     (0.803)    27  O 0.393    17  N 0.384

    27  O     (1.887)    25  H 0.838     8  H 0.489    26  H 0.393    17  N 0.065     7  C 0.056     3  N 0.015


 **********************
 *                    *
 * JOB ENDED NORMALLY *
 *                    *
 **********************



 TOTAL JOB TIME:           204.61 SECONDS

 == MOPAC DONE ==
