 *******************************************************************************
 **                                                                           **
 **                              MOPAC v22.0.6                                **
 **                                                                           **
 *******************************************************************************
 **          Digital Object Identifier (DOI): 10.5281/zenodo.6511958          **
 **    Visit the DOI location for information on how to cite this program.    **
 *******************************************************************************

                              PM7 CALCULATION RESULTS

 *******************************************************************************
 *  CALCULATION DONE:                                Tue Mar 26 12:03:41 2024  *
 *  PM7        - The PM7 Hamiltonian to be used
 *  SINGLET    - SPIN STATE DEFINED AS A SINGLET
 *
 *
 *
 *                 CHARGE ON SYSTEM = -1
 *
 *
 *
 *  EPS=78.4   - USE ANDREAS KLAMT'S COSMO IMPLICIT SOLVATION MODEL
 *  T=         - A TIME OF 14.0 DAYS REQUESTED
 *  DUMP=N     - RESTART FILE WRITTEN EVERY 30.0 MINUTES REQUESTED
 *  RELSCF     - DEFAULT SCF CRITERION MULTIPLIED BY 1.0000
 *              (DEFAULT SCF CRITERION = 0.00010)
 *  ITRY=      - DO A MAXIMUM OF 15000 ITERATIONS FOR SCF
 *  AUX        - OUTPUT AUXILIARY INFORMATION
 *  BONDS      - FINAL BOND-ORDER MATRIX TO BE PRINTED
 *******************************************************************************
PM7 BONDS AUX DUMP=30M ITRY=15000 T=14D CHARGE=-1 SINGLET eps=78.4 RELSCF=1
 Title: ASE calculation

   ATOM   CHEMICAL          X               Y               Z
  NUMBER   SYMBOL      (ANGSTROMS)     (ANGSTROMS)     (ANGSTROMS)

     1       C         -1.35548000  *  -0.51118000  *   0.38379000  *
     2       H          0.61519000  *  -1.18922000  *  -0.08253000  *
     3       H         -1.06953000  *  -0.32148000  *   1.40109000  *
     4       H         -1.57788000  *  -1.53300000  *   0.13688000  *
     5       N         -1.52063000  *   0.46561000  *  -0.48579000  *
     6       O         -1.31414000  *   1.67124000  *  -0.17508000  *
     7       O         -1.88350000  *   0.24034000  *  -1.67542000  *
     8       C          3.78454000  *   0.06090000  *  -1.97529000  *
     9       O          2.96814000  *   0.64203000  *  -1.08343000  *
    10       O          3.65587000  *  -1.11721000  *  -2.24753000  *
    11       C          4.78337000  *   1.00293000  *  -2.51863000  *
    12       H          4.87074000  *   0.92275000  *  -3.61334000  *
    13       H          5.78820000  *   0.79139000  *  -2.10673000  *
    14       H          4.55897000  *   2.05721000  *  -2.27877000  *
    15       H          2.31259000  *  -0.03074000  *  -0.63726000  *
    16       O          1.60476000  *  -1.28756000  *  -0.04915000  *
    17       H          1.79745000  *  -1.92789000  *  -0.75685000  *



          CARTESIAN COORDINATES 

    NO.       ATOM           X           Y           Z

     1         C         -1.3555     -0.5112      0.3838
     2         H          0.6152     -1.1892     -0.0825
     3         H         -1.0695     -0.3215      1.4011
     4         H         -1.5779     -1.5330      0.1369
     5         N         -1.5206      0.4656     -0.4858
     6         O         -1.3141      1.6712     -0.1751
     7         O         -1.8835      0.2403     -1.6754
     8         C          3.7845      0.0609     -1.9753
     9         O          2.9681      0.6420     -1.0834
    10         O          3.6559     -1.1172     -2.2475
    11         C          4.7834      1.0029     -2.5186
    12         H          4.8707      0.9228     -3.6133
    13         H          5.7882      0.7914     -2.1067
    14         H          4.5590      2.0572     -2.2788
    15         H          2.3126     -0.0307     -0.6373
    16         O          1.6048     -1.2876     -0.0492
    17         H          1.7974     -1.9279     -0.7569

 General Reference for PM7:
 "Optimization of Parameters for Semiempirical Methods VI: More Modifications to the 
 NDDO Approximations and Re-optimization of Parameters", J. J. P. Stewart, J. Mol. Mod., 1:32, 19 (2013)
 https://link.springer.com/article/10.1007/s00894-012-1667-x

           Empirical Formula: C3 H8 N O5  =    17 atoms



      MOLECULAR POINT GROUP   :   C1  


 SINGLET STATE CALCULATION


      RHF CALCULATION, NO. OF DOUBLY OCCUPIED LEVELS = 28


          Geometry optimization using EF
  SCF CRITERION =    0.1000E-03

          DIAGONAL MATRIX USED AS START HESSIAN

 CYCLE:     1 TIME:   0.109 TIME LEFT:  2.00W  GRAD.:    18.201 HEAT: -301.8791
 CYCLE:     2 TIME:   0.148 TIME LEFT:  2.00W  GRAD.:    24.938 HEAT: -301.8867
 CYCLE:     3 TIME:   0.082 TIME LEFT:  2.00W  GRAD.:    26.208 HEAT: -301.9586
 CYCLE:     4 TIME:   0.043 TIME LEFT:  2.00W  GRAD.:    11.635 HEAT: -302.0880
 CYCLE:     5 TIME:   0.109 TIME LEFT:  2.00W  GRAD.:     6.071 HEAT: -302.1009
 CYCLE:     6 TIME:   0.082 TIME LEFT:  2.00W  GRAD.:     4.672 HEAT: -302.1120
 CYCLE:     7 TIME:   0.023 TIME LEFT:  2.00W  GRAD.:     4.266 HEAT: -302.1255
 CYCLE:     8 TIME:   0.070 TIME LEFT:  2.00W  GRAD.:     3.761 HEAT: -302.1281
 CYCLE:     9 TIME:   0.020 TIME LEFT:  2.00W  GRAD.:    12.772 HEAT: -302.3412
 CYCLE:    10 TIME:   0.059 TIME LEFT:  2.00W  GRAD.:     7.722 HEAT: -302.3443
 CYCLE:    11 TIME:   0.039 TIME LEFT:  2.00W  GRAD.:     6.035 HEAT: -302.3512
 CYCLE:    12 TIME:   0.035 TIME LEFT:  2.00W  GRAD.:     5.223 HEAT: -302.3540

     TRUST RADIUS NOW LESS THAN  0.00010 OPTIMIZATION TERMINATING
      THE GEOMETRY MAY NOT BE COMPLETELY OPTIMIZED
      (TO CONTINUE, ADD 'LET DDMIN=0.0' TO THE KEYWORD LINE)

 -------------------------------------------------------------------------------
 PM7 BONDS AUX DUMP=30M ITRY=15000 T=14D CHARGE=-1 SINGLET eps=78.4 RELSCF=1
 Title: ASE calculation



     GEOMETRY OPTIMISED USING EIGENVECTOR FOLLOWING (EF).     
     SCF FIELD WAS ACHIEVED                                   


                              PM7 CALCULATION
                                                       MOPAC v22.0.6 Linux
                                                       Tue Mar 26 12:03:43 2024




          FINAL HEAT OF FORMATION =       -302.35397 KCAL/MOL =   -1265.04899 KJ/MOL
          VAN DER WAALS AREA      =        185.16 SQUARE ANGSTROMS



          DIELECTRIC ENERGY       =         -3.45946 EV
          COSMO AREA              =        185.16 SQUARE ANGSTROMS
          COSMO VOLUME            =        168.41 CUBIC ANGSTROMS

          GRADIENT NORM           =          5.22309          =       1.26678 PER ATOM
          IONIZATION POTENTIAL    =          9.231844 EV
          HOMO LUMO ENERGIES (EV) =         -9.232  0.817
          NO. OF FILLED LEVELS    =         28
          MOLECULAR WEIGHT        =        138.0999         POINT GROUP:  C1  

          MOLECULAR DIMENSIONS (Angstroms)

            Atom       Atom       Distance
            H    13    H     4     8.05348
            H    17    O     6     4.37270
            H     3    O     7     3.12777


          SCF CALCULATIONS        =         31

          WALL-CLOCK TIME         =      1.145 SECONDS
          COMPUTATION TIME        =     10.764 SECONDS



       FINAL  POINT  AND  DERIVATIVES

   PARAMETER     ATOM    TYPE            VALUE        GRADIENT
      1          1  C    CARTESIAN X    -1.373132     -0.213204  KCAL/ANGSTROM
      2          1  C    CARTESIAN Y    -0.509620     -0.814996  KCAL/ANGSTROM
      3          1  C    CARTESIAN Z     0.387531      0.901162  KCAL/ANGSTROM
      4          2  H    CARTESIAN X     0.624420     -1.265196  KCAL/ANGSTROM
      5          2  H    CARTESIAN Y    -1.161270      0.048309  KCAL/ANGSTROM
      6          2  H    CARTESIAN Z    -0.103630      0.905184  KCAL/ANGSTROM
      7          3  H    CARTESIAN X    -1.069534      0.790864  KCAL/ANGSTROM
      8          3  H    CARTESIAN Y    -0.320934     -0.040229  KCAL/ANGSTROM
      9          3  H    CARTESIAN Z     1.399994     -0.132804  KCAL/ANGSTROM
     10          4  H    CARTESIAN X    -1.578259      0.832217  KCAL/ANGSTROM
     11          4  H    CARTESIAN Y    -1.533047      0.165423  KCAL/ANGSTROM
     12          4  H    CARTESIAN Z     0.137591     -0.034932  KCAL/ANGSTROM
     13          5  N    CARTESIAN X    -1.522105      0.088206  KCAL/ANGSTROM
     14          5  N    CARTESIAN Y     0.465289      1.160784  KCAL/ANGSTROM
     15          5  N    CARTESIAN Z    -0.486266      0.153601  KCAL/ANGSTROM
     16          6  O    CARTESIAN X    -1.305340     -0.050444  KCAL/ANGSTROM
     17          6  O    CARTESIAN Y     1.671445      0.210529  KCAL/ANGSTROM
     18          6  O    CARTESIAN Z    -0.177567     -0.026655  KCAL/ANGSTROM
     19          7  O    CARTESIAN X    -1.878756     -0.091561  KCAL/ANGSTROM
     20          7  O    CARTESIAN Y     0.241065     -0.044025  KCAL/ANGSTROM
     21          7  O    CARTESIAN Z    -1.678819     -1.086658  KCAL/ANGSTROM
     22          8  C    CARTESIAN X     3.788774     -1.624952  KCAL/ANGSTROM
     23          8  C    CARTESIAN Y     0.067396     -0.456329  KCAL/ANGSTROM
     24          8  C    CARTESIAN Z    -1.977749      1.878584  KCAL/ANGSTROM
     25          9  O    CARTESIAN X     2.974055      0.664715  KCAL/ANGSTROM
     26          9  O    CARTESIAN Y     0.646452     -0.597642  KCAL/ANGSTROM
     27          9  O    CARTESIAN Z    -1.083679     -1.462739  KCAL/ANGSTROM
     28         10  O    CARTESIAN X     3.657790      0.020895  KCAL/ANGSTROM
     29         10  O    CARTESIAN Y    -1.109919      0.180796  KCAL/ANGSTROM
     30         10  O    CARTESIAN Z    -2.250905     -0.107582  KCAL/ANGSTROM
     31         11  C    CARTESIAN X     4.786453      0.126383  KCAL/ANGSTROM
     32         11  C    CARTESIAN Y     1.009807      0.182488  KCAL/ANGSTROM
     33         11  C    CARTESIAN Z    -2.527456     -0.958526  KCAL/ANGSTROM
     34         12  H    CARTESIAN X     4.873468      0.154191  KCAL/ANGSTROM
     35         12  H    CARTESIAN Y     0.924943      0.068660  KCAL/ANGSTROM
     36         12  H    CARTESIAN Z    -3.623360      0.677184  KCAL/ANGSTROM
     37         13  H    CARTESIAN X     5.792682     -0.051259  KCAL/ANGSTROM
     38         13  H    CARTESIAN Y     0.797724     -0.195405  KCAL/ANGSTROM
     39         13  H    CARTESIAN Z    -2.119691      0.214371  KCAL/ANGSTROM
     40         14  H    CARTESIAN X     4.566358     -0.095535  KCAL/ANGSTROM
     41         14  H    CARTESIAN Y     2.065438      0.005819  KCAL/ANGSTROM
     42         14  H    CARTESIAN Z    -2.292338      0.265004  KCAL/ANGSTROM
     43         15  H    CARTESIAN X     2.328037     -0.828891  KCAL/ANGSTROM
     44         15  H    CARTESIAN Y    -0.017453      0.399915  KCAL/ANGSTROM
     45         15  H    CARTESIAN Z    -0.635709     -0.512091  KCAL/ANGSTROM
     46         16  O    CARTESIAN X     1.582297      1.164207  KCAL/ANGSTROM
     47         16  O    CARTESIAN Y    -1.326645     -1.409560  KCAL/ANGSTROM
     48         16  O    CARTESIAN Z    -0.020892     -1.399224  KCAL/ANGSTROM
     49         17  H    CARTESIAN X     1.804048      0.379552  KCAL/ANGSTROM
     50         17  H    CARTESIAN Y    -1.931391      1.135606  KCAL/ANGSTROM
     51         17  H    CARTESIAN Z    -0.747248      0.726432  KCAL/ANGSTROM




   ATOM   CHEMICAL          X               Y               Z
  NUMBER   SYMBOL      (ANGSTROMS)     (ANGSTROMS)     (ANGSTROMS)

     1       C         -1.37313242  *  -0.50961960  *   0.38753146  *
     2       H          0.62442023  *  -1.16126976  *  -0.10362955  *
     3       H         -1.06953434  *  -0.32093375  *   1.39999416  *
     4       H         -1.57825879  *  -1.53304658  *   0.13759117  *
     5       N         -1.52210493  *   0.46528898  *  -0.48626555  *
     6       O         -1.30534001  *   1.67144534  *  -0.17756733  *
     7       O         -1.87875623  *   0.24106519  *  -1.67881949  *
     8       C          3.78877429  *   0.06739565  *  -1.97774937  *
     9       O          2.97405535  *   0.64645250  *  -1.08367877  *
    10       O          3.65779039  *  -1.10991873  *  -2.25090465  *
    11       C          4.78645337  *   1.00980746  *  -2.52745627  *
    12       H          4.87346815  *   0.92494293  *  -3.62336039  *
    13       H          5.79268154  *   0.79772435  *  -2.11969068  *
    14       H          4.56635828  *   2.06543772  *  -2.29233768  *
    15       H          2.32803693  *  -0.01745273  *  -0.63570921  *
    16       O          1.58229735  *  -1.32664518  *  -0.02089180  *
    17       H          1.80404824  *  -1.93139087  *  -0.74724792  *

                             CARTESIAN COORDINATES

   1    C       -1.373132415    -0.509619602     0.387531460
   2    H        0.624420231    -1.161269759    -0.103629553
   3    H       -1.069534344    -0.320933752     1.399994162
   4    H       -1.578258788    -1.533046575     0.137591174
   5    N       -1.522104930     0.465288978    -0.486265554
   6    O       -1.305340007     1.671445343    -0.177567329
   7    O       -1.878756234     0.241065187    -1.678819485
   8    C        3.788774286     0.067395654    -1.977749368
   9    O        2.974055352     0.646452497    -1.083678772
  10    O        3.657790385    -1.109918735    -2.250904646
  11    C        4.786453374     1.009807462    -2.527456270
  12    H        4.873468148     0.924942932    -3.623360390
  13    H        5.792681541     0.797724351    -2.119690680
  14    H        4.566358281     2.065437718    -2.292337677
  15    H        2.328036931    -0.017452731    -0.635709215
  16    O        1.582297352    -1.326645183    -0.020891797
  17    H        1.804048240    -1.931390867    -0.747247924


           Empirical Formula: C3 H8 N O5  =    17 atoms



      MOLECULAR POINT GROUP   :   C1  


                  EIGENVALUES  
 -35.78094 -31.53813 -29.94716 -29.36927 -27.89579 -26.65821 -26.14403 -20.86934
 -20.78246 -18.09109 -17.72468 -17.41612 -16.94724 -16.34036 -16.18801 -15.96048
 -14.83632 -14.17609 -13.69624 -13.57398 -13.49293 -12.50700 -12.35934 -11.60671
 -11.03043 -10.88553 -10.70766  -9.23184   0.81732   1.22943   2.04141   2.21300
   3.47447   3.84829   4.50529   4.90904   5.18362   5.29574   5.80226   6.05349
   6.23229   6.49143   6.56809   6.81210


              NET ATOMIC CHARGES AND DIPOLE CONTRIBUTIONS

  ATOM NO.   TYPE          CHARGE      No. of ELECS.   s-Pop       p-Pop       
    1          C          -0.630025        4.6300     1.06927     3.56075
    2          H           0.377710        0.6223     0.62229
    3          H           0.185720        0.8143     0.81428
    4          H           0.186344        0.8137     0.81366
    5          N           0.739601        4.2604     1.40602     2.85438
    6          O          -0.732700        6.7327     1.94564     4.78706
    7          O          -0.733707        6.7337     1.94597     4.78774
    8          C           0.747539        3.2525     1.10297     2.14949
    9          O          -0.610393        6.6104     1.84377     4.76662
   10          O          -0.655024        6.6550     1.87623     4.77880
   11          C          -0.538937        4.5389     1.06090     3.47803
   12          H           0.201298        0.7987     0.79870
   13          H           0.203027        0.7970     0.79697
   14          H           0.203060        0.7969     0.79694
   15          H           0.400881        0.5991     0.59912
   16          O          -0.728604        6.7286     1.81456     4.91404
   17          H           0.384210        0.6158     0.61579
 DIPOLE           X         Y         Z       TOTAL
 POINT-CHG.    12.478    -2.855    -0.948    12.836
 HYBRID        -0.569    -0.066    -0.314     0.654
 SUM           11.909    -2.921    -1.262    12.327


          ATOMIC ORBITAL ELECTRON POPULATIONS

     Atom    s        px        py        pz   
    1  C   1.06927   1.44008   1.03443   1.08624
    2  H   0.62229
    3  H   0.81428
    4  H   0.81366
    5  N   1.40602   0.94777   0.95604   0.95058
    6  O   1.94564   1.76886   1.14529   1.87292
    7  O   1.94597   1.72667   1.91146   1.14961
    8  C   1.10297   0.71572   0.76970   0.66407
    9  O   1.84377   1.58729   1.57354   1.60580
   10  O   1.87623   1.75840   1.32310   1.69730
   11  C   1.06090   1.13012   1.15251   1.19540
   12  H   0.79870
   13  H   0.79697
   14  H   0.79694
   15  H   0.59912
   16  O   1.81456   1.48343   1.76050   1.67010
   17  H   0.61579

          BONDING CONTRIBUTION OF EACH M.O.

  1.4323  1.3257  1.0488  1.0281  0.9302  1.7917  1.2145  1.0756  1.5075  1.5812
  1.1249  1.1146  1.6222  1.2081  1.5081  1.2213  0.7706  1.2996  1.4376  1.5070
  1.8646  0.3407  0.5682  0.5925  0.4316  0.4039  0.2368  0.8957 -1.7998 -2.5193
 -2.0991 -2.1579 -1.9648 -1.7924 -1.8593 -1.9182 -1.9220 -1.8985 -1.7832 -1.8902
 -1.7118 -1.8668 -1.9619 -1.9382





            (VALENCIES)   BOND ORDERS

     1  C     (3.682)     5  N 1.451     3  H 0.951     4  H 0.949     6  O 0.155     7  O 0.154     2  H 0.016

     2  H     (0.857)    16  O 0.833     1  C 0.016

     3  H     (0.966)     1  C 0.951     7  O 0.010

     4  H     (0.965)     1  C 0.949     6  O 0.010

     5  N     (3.821)     1  C 1.451     6  O 1.183     7  O 1.180

     6  O     (1.495)     5  N 1.183     1  C 0.155     7  O 0.145     4  H 0.010

     7  O     (1.492)     5  N 1.180     1  C 0.154     6  O 0.145     3  H 0.010

     8  C     (3.702)    10  O 1.641     9  O 1.043    11  C 0.991    13  H 0.011

     9  O     (1.995)     8  C 1.043    15  H 0.740    10  O 0.144    16  O 0.030    11  C 0.025

    10  O     (1.856)     8  C 1.641     9  O 0.144    11  C 0.046

    11  C     (3.887)     8  C 0.991    14  H 0.944    12  H 0.937    13  H 0.930    10  O 0.046     9  O 0.025
                         15  H 0.013

    12  H     (0.959)    11  C 0.937

    13  H     (0.959)    11  C 0.930     8  C 0.011

    14  H     (0.959)    11  C 0.944

    15  H     (0.839)     9  O 0.740    16  O 0.073    11  C 0.013

    16  O     (1.796)    17  H 0.847     2  H 0.833    15  H 0.073     9  O 0.030

    17  H     (0.852)    16  O 0.847


 **********************
 *                    *
 * JOB ENDED NORMALLY *
 *                    *
 **********************



 TOTAL JOB TIME:             1.14 SECONDS

 == MOPAC DONE ==
